
                                 *****************
                                 * O   R   C   A *
                                 *****************

                                            #,                                       
                                            ###                                      
                                            ####                                     
                                            #####                                    
                                            ######                                   
                                           ########,                                 
                                     ,,################,,,,,                         
                               ,,#################################,,                 
                          ,,##########################################,,             
                       ,#########################################, ''#####,          
                    ,#############################################,,   '####,        
                  ,##################################################,,,,####,       
                ,###########''''           ''''###############################       
              ,#####''   ,,,,##########,,,,          '''####'''          '####       
            ,##' ,,,,###########################,,,                        '##       
           ' ,,###''''                  '''############,,,                           
         ,,##''                                '''############,,,,        ,,,,,,###''
      ,#''                                            '''#######################'''  
     '                                                          ''''####''''         
             ,#######,   #######,   ,#######,      ##                                
            ,#'     '#,  ##    ##  ,#'     '#,    #''#        ,####,    ,#,          
            ##       ##  ##   ,#'  ##            #'  '#       #'       ,# #          
            ##       ##  #######   ##           ,######,      #####,      #          
            '#,     ,#'  ##    ##  '#,     ,#' ,#      #,     #,   #      #          
             '#######'   ##     ##  '#######'  #'      '#     '####' #    #          



                #########################################################
                #                        -***-                          #
                #          Department of theory and spectroscopy        #
                #                                                       #
                #                      Frank Neese                      #
                #                                                       #
                #     Directorship, Architecture, Infrastructure        #
                #                    SHARK, DRIVERS                     #
                #        Core code/Algorithms in most modules           #
                #                                                       #
                #        Max Planck Institute fuer Kohlenforschung      #
                #                Kaiser Wilhelm Platz 1                 #
                #                 D-45470 Muelheim/Ruhr                 #
                #                      Germany                          #
                #                                                       #
                #                  All rights reserved                  #
                #                        -***-                          #
                #########################################################


                         Program Version 6.1.0  -  RELEASE   -
                                (GIT: $679e74b$)
                          ($2025-06-10 18:02:51 +0200$)


 With contributions from (in alphabetic order):
[Max-Planck-Institut fuer Kohlenforschung]                               
  Daniel Aravena         : Magnetic Suceptibility                        
  Michael Atanasov       : Ab Initio Ligand Field Theory (pilot matlab implementation)
  Alexander A. Auer      : GIAO ZORA, VPT2 properties, NMR spectrum      
  Ute Becker             : All parallelization in ORCA, NUMFREQ, NUMCALC 
  Giovanni Bistoni       : ED, misc. LED, open-shell LED, HFLD           
  Dmytro Bykov           : pre 5.0 version of the SCF Hessian            
  Marcos Casanova-Páez   : Triplet and SCS-CIS(D). UHF-(DLPNO)-IP/EA/STEOM-CCSD. UHF-CVS-IP/STEOM-CCSD   
  Vijay G. Chilkuri      : MRCI spin determinant printing, contributions to CSF-ICE 
  Pauline Colinet        : FMM embedding                                 
  Dipayan Datta          : RHF DLPNO-CCSD density                        
  Achintya Kumar Dutta   : EOM-CC, STEOM-CC                              
  Nicolas Foglia         : Exact transition moments, OPA infrastructure, MCD improvements    
  Dmitry Ganyushin       : Spin-Orbit,Spin-Spin,Magnetic field MRCI      
  Miquel Garcia-Rates    : C-PCM and meta-GGA Hessian, CCSD/C-PCM, Gaussian charge scheme 
  Tiago L. C. Gouveia    : GS-ROHF, GS-ROCIS                             
  Yang Guo               : DLPNO-NEVPT2, F12-NEVPT2, CIM, IAO-localization        
  Andreas Hansen         : Spin unrestricted coupled pair/coupled cluster methods 
  Ingolf Harden          : AUTO-CI MPn and infrastructure                
  Benjamin Helmich-Paris : MC-RPA, TRAH-(SCF,CASSCF), AVAS, COSX integrals, SCF dyn. polar., MC-PDFT, srDFT 
  Lee Huntington         : MR-EOM, pCC                                   
  Robert Izsak           : Overlap fitted RIJCOSX, COSX-SCS-MP3, EOM     
  Riya Kayal             : Wick's Theorem for AUTO-CI, AUTO-CI UHF-CCSDT 
  Emily Kempfer          : AUTO-CI RHF CISDT and CCSDT, approximate NEVPT4
  Christian Kollmar      : KDIIS, OOCD, Brueckner-CCSD(T), CCSD density, CASPT2, CASPT2-K, improved NEVPT2 
  Axel Koslowski         : Symmetry handling                             
  Simone Kossmann        : meta-GGA functionals, TD-DFT gradient, OOMP2, (MP2 Hessian; deprecated post 5.0) 
  Lucas Lang             : DCDCAS, Hyperfine gauge corrections, ICE-SOC+SSC
  Marvin Lechner         : AUTO-CI (C++ implementation), FIC-MRCC        
  Spencer Leger          : CASSCF response                               
  Dagmar Lenk            : GEPOL surface, SMD, ORCA-2-JSON               
  Dimitrios Liakos       : Extrapolation schemes; Compound Job, Property file
  Dimitrios Manganas     : Further ROCIS development; embedding schemes. LFT, Crystal Embedding 
  Dimitrios Pantazis     : SARC Basis sets                               
  Anastasios Papadopoulos: AUTO-CI, single reference methods and gradients 
  Taras Petrenko         : pre 6.0 DFT Hessian and TD-DFT gradient,  ECA, NRVS 
  Petra Pikulova         : Analytic Raman intensities                    
  Peter Pinski           : DLPNO-MP2, DLPNO-MP2 Gradient                 
  Shashank Vittal Rao    : ES-AILFT, MagRelax                            
  Christoph Reimann      : Effective Core Potentials                     
  Marius Retegan         : Local ZFS, SOC                                
  Christoph Riplinger    : Optimizer, TS searches, QM/MM, DLPNO-CCSD(T), (RO)-DLPNO pert. Triples 
  Michael Roemelt        : Original ROCIS implementation, recursive CI coupling coefficients
  Masaaki Saitow         : Open-shell DLPNO-CCSD energy and density      
  Barbara Sandhoefer     : DKH picture change effects                    
  Yorick L. A. Schmerwitz: GMF and freeze-and-release deltaSCF, NEB S-IDPP initial path                    
  Kantharuban Sivalingam : CASSCF convergence/infrastructure, NEVPT2, NEVPT3, NEVPT4(SD), FIC-MRCI and CEPA variants
  Bernardo de Souza      : ESD, SOC TD-DFT                               
  Georgi L. Stoychev     : AutoAux, RI-MP2 NMR, DLPNO-MP2 response, X2C  
  Van Anh Tran           : RI-MP2 g-tensors                              
  Willem Van den Heuvel  : Paramagnetic NMR                              
  Zikuan Wang            : NOTCH, Electric field optimization            
  Frank Wennmohs         : Technical directorship and infrastructure     
  Hang Xu                : AUTO-CI-Response properties                   
                                                                         
[FACCTs GmbH]                                                            
  Markus Bursch, Nicolas Foglia, Miquel Garcia-Rates, Ingolf Harden, Hagen Neugebauer, Anastasios Papadopoulos, 
  Christoph Riplinger, Bernardo de Souza, Georgi L. Stoychev                                                    
                                                                 
  APM, various basis sets, CI-OPT, improved COSX, DLPNO-Multilevel,           
  DOCKER, DRACO, updates on ESD, Fragmentator, GOAT, IRC, LR-CPCM, L-BFGS, MBIS, meta-GGA TD-DFT gradient, ML-optimized integration grids, 
  MM, NACMEs, nearIR, NEB, NEB-TS, NL-DFT gradient (VV10), 2- and 3-layer-ONIOM, interface openCOSMO-RS, QMMM,   
  Crystal-QMMM, RESP, rigid body optimization, SF, symmetry and pop. for TD-DFT, various functionals, SOLVATOR                                   
                                                                         
[Other institutions]                                                     
  V. Asgeirsson          : NEB                                           
  Christoph Bannwarth    : sTDA-DFT, sTD-DFT, PBEh-3c, B97-3c, D3        
  Giovanni Bistoni       : ETS/NOCV, ADLD/ADEX, COVALED                  
  Martin Brehm           : Molecular dynamics                            
  Ronald Cardenas        : ETS/NOCV                                      
  Martina Colucci        : COVALED                                       
  Sebastian Ehlert       : rSCAN, r2SCAN, r2SCAN-3c, D4, dhf basis sets  
  Marvin Friede          : D4 for Fr, Ra, Ac-Lr                          
  Lars Goerigk           : TD-DFT with DH, B97 family of functionals     
  Stefan Grimme          : VdW corrections, initial TS optimization, DFT functionals, gCP, sTDA/sTD-DF 
  Waldemar Hujo          : DFT-NL                                        
  H. Jonsson             : NEB                                           
  Holger Kruse           : gCP                                           
  Marcel Mueller         : wB97X-3c, vDZP basis set                      
  Hagen Neugebauer       : wr2SCAN, Native XTB                           
  Gianluca Regni         : ADLD/ADEX                                     
  Tobias Risthaus        : pre 6.0 range-separated hybrid DFT and stability analysis
  Lukas Wittmann         : regularized MP2, r2SCAN double-hybrids, wr2SCAN        
                                                                         
We gratefully acknowledge several colleagues who have allowed us to      
interface, adapt or use parts of their codes:                            
  Ed Valeev, F. Pavosevic, A. Kumar             : LibInt (2-el integral package), F12 methods 
  Garnet Chan, S. Sharma, J. Yang, R. Olivares  : DMRG                   
  Ulf Ekstrom                                   : XCFun DFT Library      
  Mihaly Kallay                                 : mrcc  (arbitrary order and MRCC methods)
  Frank Weinhold                                : gennbo (NPA and NBO analysis)           
  Simon Mueller                                 : openCOSMO-RS                            
  Christopher J. Cramer and Donald G. Truhlar   : smd solvation model                     
  S Lehtola, MJT Oliveira, MAL Marques          : LibXC Library                           
  Liviu Ungur et al                             : ANISO software                          


 Your calculation uses the libint2 library for the computation of 2-el integrals
 For citations please refer to: http://libint.valeyev.net

 Your ORCA version has been built with support for libXC version: 7.0.0
 For citations please refer to: https://libxc.gitlab.io

 This ORCA versions uses:
   CBLAS   interface :  Fast vector & matrix operations
   LAPACKE interface :  Fast linear algebra routines
   SCALAPACK package :  Parallel linear algebra routines
   Shared memory     :  Shared parallel matrices
   BLAS/LAPACK       :  OpenBLAS 0.3.29  USE64BITINT DYNAMIC_ARCH NO_AFFINITY Haswell SINGLE_THREADED
        Core in use  :  Haswell
   Copyright (c) 2011-2014, The OpenBLAS Project


  ***********************************
  * Starting time: Sat Aug  9 14:46:41 2025
  * Host name:     chemlab03
  * Process ID:    1507003
  * Working dir.:  /home/test/Desktop/Aishani MM/attachments
  ***********************************



***************************************
The coordinates will be read from file: m.xyz
***************************************


Your calculation utilizes the semiempirical GFN2-xTB method
Please cite in your paper:
Bannwarth, C.; Ehlert S.; Grimme, S. J. Chem. Theory Comput. 2019, 15, 1652.
   

================================================================================

================================================================================
                                        WARNINGS
                       Please study these warnings very carefully!
================================================================================


================================================================================
 STARTING AUTOMATIC FRAGMENTATION: 
================================================================================

WARNING: Geometry Optimization
  ===> : Switching off AutoStart
         For restart on a previous wavefunction, please use MOREAD

WARNING: Found dipole moment calculation with XTB calculation
  ===> : Switching off dipole moment calculation


================================================================================
                                       INPUT FILE
================================================================================
NAME = m.inp
|  1> ! xtb goat
|  2> 
|  3> * xyzfile 0 1 m.xyz
|  4> 
|  5>                          ****END OF INPUT****
================================================================================

                       *****************************
                       * Geometry Optimization Run *
                       *****************************


                       *********************************
                       *              GOAT             *
                       * Global Optimization Algorithm *
                       *********************************

Geometry optimization settings:
Update method            Update   .... BFGS
Choice of coordinates    CoordSys .... (2022) Redundant Internals
Initial Hessian          InHess   .... Almloef's Model
Max. no of cycles        MaxIter  .... 57

Convergence Tolerances:
Energy Change            TolE     ....  5.0000e-06 Eh
Max. Gradient            TolMAXG  ....  3.0000e-04 Eh/bohr
RMS Gradient             TolRMSG  ....  1.0000e-04 Eh/bohr
Max. Displacement        TolMAXD  ....  4.0000e-03 bohr
RMS Displacement         TolRMSD  ....  2.0000e-03 bohr
Strict Convergence                .... True

------------------------------------------------------------------------------
                        ORCA OPTIMIZATION COORDINATE SETUP
------------------------------------------------------------------------------

The optimization will be done in redundant internal coordinates (2022)
Making redundant internal coordinates   ...  (2022 redundants) done
Evaluating the initial hessian          ...  (Almloef) done
Evaluating the coordinates              ...  done
Calculating the B-matrix                .... done
Calculating the G-matrix                .... done
The number of degrees of freedom        ....   77

    -----------------------------------------------------------------
                    Redundant Internal Coordinates


    -----------------------------------------------------------------
         Definition                    Initial Value    Approx d2E/dq
    -----------------------------------------------------------------
      1. B(C   1,C   0)                  1.5383         0.362297   
      2. B(C   2,C   0)                  1.5347         0.367230   
      3. B(C   3,C   2)                  1.5286         0.375462   
      4. B(S   4,C   3)                  1.8217         0.344960   
      5. B(C   5,S   4)                  1.7227         0.496329   
      6. B(N   6,C   0)                  1.4817         0.399556   
      7. B(O   7,C   1)                  1.3559         0.634345   
      8. B(O   8,C   1)                  1.2207         1.042282   
      9. B(H   9,O   7)                  0.9802         0.482721   
     10. B(H  10,N   6)                  1.0254         0.408938   
     11. B(H  10,O   7)                  2.1830         0.010000   
     12. B(H  11,N   6)                  1.0202         0.416842   
     13. B(H  12,C   2)                  1.0993         0.347985   
     14. B(H  13,C   2)                  1.0989         0.348521   
     15. B(H  14,C   3)                  1.0953         0.353133   
     16. B(H  15,C   3)                  1.0947         0.353996   
     17. B(H  16,C   5)                  1.0838         0.368353   
     18. B(H  17,C   5)                  1.0847         0.367236   
     19. B(H  18,C   0)                  1.0956         0.352723   
     20. A(C   2,C   0,H  18)          111.1618         0.322313   
     21. A(C   1,C   0,N   6)          109.9105         0.363356   
     22. A(C   1,C   0,C   2)          109.8935         0.360400   
     23. A(N   6,C   0,H  18)          108.9861         0.324854   
     24. A(C   2,C   0,N   6)          110.8330         0.364197   
     25. A(C   1,C   0,H  18)          105.9360         0.321600   
     26. A(O   7,C   1,O   8)          119.8949         0.472737   
     27. A(C   0,C   1,O   8)          127.2521         0.429850   
     28. A(C   0,C   1,O   7)          112.7545         0.393615   
     29. A(C   3,C   2,H  12)          107.7944         0.322770   
     30. A(C   0,C   2,H  12)          109.0495         0.321600   
     31. A(H  12,C   2,H  13)          105.2081         0.287806   
     32. A(C   3,C   2,H  13)          109.0772         0.322851   
     33. A(C   0,C   2,H  13)          109.1082         0.321681   
     34. A(C   0,C   2,C   3)          116.0535         0.362602   
     35. A(C   2,C   3,S   4)          112.6064         0.377693   
     36. A(S   4,C   3,H  15)          109.2300         0.335382   
     37. A(C   2,C   3,H  15)          110.7297         0.323678   
     38. A(S   4,C   3,H  14)          108.2888         0.335246   
     39. A(C   2,C   3,H  14)          108.6023         0.323548   
     40. A(H  14,C   3,H  15)          107.2068         0.289173   
     41. A(C   3,S   4,C   5)          100.4024         0.418105   
     42. A(H  16,C   5,H  17)          119.0367         0.292780   
     43. A(S   4,C   5,H  17)          119.4045         0.358761   
     44. A(S   4,C   5,H  16)          121.5464         0.358947   
     45. A(H  10,N   6,H  11)          105.5639         0.298754   
     46. A(C   0,N   6,H  11)          108.4744         0.331086   
     47. A(C   0,N   6,H  10)          107.1181         0.330039   
     48. A(C   1,O   7,H   9)          103.3244         0.366863   
     49. D(O   7,C   1,C   0,H  18)    -82.6885         0.010000   
     50. D(O   8,C   1,C   0,N   6)   -148.7410         0.010000   
     51. D(O   8,C   1,C   0,C   2)    -26.5105         0.010000   
     52. D(O   7,C   1,C   0,N   6)     34.9100         0.010000   
     53. D(O   7,C   1,C   0,C   2)    157.1406         0.010000   
     54. D(C   3,C   2,C   0,N   6)    -56.1798         0.010791   
     55. D(C   3,C   2,C   0,C   1)   -177.8612         0.010791   
     56. D(H  12,C   2,C   0,N   6)     65.7369         0.010791   
     57. D(H  12,C   2,C   0,C   1)    -55.9445         0.010791   
     58. D(H  12,C   2,C   0,H  18)   -172.8925         0.010791   
     59. D(C   3,C   2,C   0,H  18)     65.1907         0.010791   
     60. D(S   4,C   3,C   2,H  13)     62.5804         0.011250   
     61. D(S   4,C   3,C   2,H  12)    176.3159         0.011250   
     62. D(H  14,C   3,C   2,C   0)    178.9738         0.011250   
     63. D(S   4,C   3,C   2,C   0)    -61.1048         0.011250   
     64. D(H  14,C   3,C   2,H  13)    -57.3410         0.011250   
     65. D(H  14,C   3,C   2,H  12)     56.3945         0.011250   
     66. D(C   5,S   4,C   3,H  15)     59.8419         0.010000   
     67. D(C   5,S   4,C   3,H  14)    -56.5979         0.010000   
     68. D(C   5,S   4,C   3,C   2)   -176.7003         0.010000   
     69. D(H  17,C   5,S   4,C   3)   -178.5357         0.010000   
     70. D(H  16,C   5,S   4,C   3)      2.7566         0.010000   
     71. D(H  11,N   6,C   0,C   1)   -155.8258         0.013631   
     72. D(H  10,N   6,C   0,H  18)     73.3696         0.013631   
     73. D(H  10,N   6,C   0,C   2)   -163.9876         0.013631   
     74. D(H  11,N   6,C   0,C   2)     82.5028         0.013631   
     75. D(H  10,N   6,C   0,C   1)    -42.3162         0.013631   
     76. D(H   9,O   7,C   1,O   8)      3.2114         0.032704   
     77. D(H   9,O   7,C   1,C   0)    179.8595         0.032704   
    -----------------------------------------------------------------

Number of atoms                         .... 19
Number of degrees of freedom            .... 77


         *************************************************************
         *                GEOMETRY OPTIMIZATION CYCLE   1            *
         *************************************************************
---------------------------------
CARTESIAN COORDINATES (ANGSTROEM)
---------------------------------
  C    -1.006534    0.113921    0.179241
  C    -0.226297    1.429011    0.347383
  C    -0.033979   -1.036462   -0.113924
  C    -0.667859   -2.406052   -0.357081
  S    -1.611124   -3.006392    1.081115
  C    -2.087027   -4.561749    0.513722
  N    -2.001542    0.253238   -0.909785
  O    -0.990281    2.525196    0.116965
  O     0.931571    1.559904    0.711131
  H    -0.368134    3.268687    0.261877
  H    -2.437666    1.175199   -0.804007
  H    -2.749229   -0.422867   -0.752975
  H     0.566209   -0.782122   -0.999125
  H     0.687988   -1.116137    0.710691
  H     0.128756   -3.126773   -0.570827
  H    -1.323954   -2.379354   -1.232920
  H    -1.767677   -4.935077   -0.452370
  H    -2.703697   -5.192960    1.144417
  H    -1.534310   -0.045889    1.125986

----------------------------
CARTESIAN COORDINATES (A.U.)
----------------------------
  NO LB    ZA    FRAG    MASS        X           Y           Z
   0 C   6.0000    1    12.011   -1.902073    0.215280    0.338716
   1 C   6.0000    1    12.011   -0.427640    2.700439    0.656460
   2 C   6.0000    1    12.011   -0.064211   -1.958630   -0.215286
   3 C   6.0000    1    12.011   -1.262071   -4.546779   -0.674785
   4 S  16.0000    1    32.060   -3.044583   -5.681257    2.043012
   5 C   6.0000    1    12.011   -3.943909   -8.620457    0.970794
   6 N   7.0000    1    14.007   -3.782366    0.478551   -1.719245
   7 O   8.0000    1    15.999   -1.871360    4.771930    0.221031
   8 O   8.0000    1    15.999    1.760414    2.947792    1.343844
   9 H   1.0000    1     1.008   -0.695672    6.176923    0.494876
  10 H   1.0000    1     1.008   -4.606521    2.220803   -1.519352
  11 H   1.0000    1     1.008   -5.195291   -0.799103   -1.422917
  12 H   1.0000    1     1.008    1.069979   -1.477996   -1.888073
  13 H   1.0000    1     1.008    1.300108   -2.109193    1.343011
  14 H   1.0000    1     1.008    0.243314   -5.908744   -1.078707
  15 H   1.0000    1     1.008   -2.501910   -4.496327   -2.329881
  16 H   1.0000    1     1.008   -3.340426   -9.325944   -0.854855
  17 H   1.0000    1     1.008   -5.109247   -9.813271    2.162635
  18 H   1.0000    1     1.008   -2.899425   -0.086718    2.127806

      -----------------------------------------------------------      
     |                   =====================                   |     
     |                           x T B                           |     
     |                   =====================                   |     
     |                         S. Grimme                         |     
     |          Mulliken Center for Theoretical Chemistry        |     
     |                    University of Bonn                     |     
      -----------------------------------------------------------      

   * xtb version 6.7.1 (edcfbbe) compiled by 'albert@albert-system' on 2024-07-22

   xtb is free software: you can redistribute it and/or modify it under
   the terms of the GNU Lesser General Public License as published by
   the Free Software Foundation, either version 3 of the License, or
   (at your option) any later version.
   
   xtb is distributed in the hope that it will be useful,
   but WITHOUT ANY WARRANTY; without even the implied warranty of
   MERCHANTABILITY or FITNESS FOR A PARTICULAR PURPOSE.  See the
   GNU Lesser General Public License for more details.
   
   Cite this work as:
   * C. Bannwarth, E. Caldeweyher, S. Ehlert, A. Hansen, P. Pracht,
     J. Seibert, S. Spicher, S. Grimme, WIREs Comput. Mol. Sci., 2020, 11,
     e01493. DOI: 10.1002/wcms.1493
   
   for GFN2-xTB:
   * C. Bannwarth, S. Ehlert and S. Grimme., J. Chem. Theory Comput., 2019,
     15, 1652-1671. DOI: 10.1021/acs.jctc.8b01176
   for GFN1-xTB:
   * S. Grimme, C. Bannwarth, P. Shushkov, J. Chem. Theory Comput., 2017,
     13, 1989-2009. DOI: 10.1021/acs.jctc.7b00118
   for GFN0-xTB:
   * P. Pracht, E. Caldeweyher, S. Ehlert, S. Grimme, ChemRxiv, 2019, preprint.
     DOI: 10.26434/chemrxiv.8326202.v1
   for GFN-FF:
   * S. Spicher and S. Grimme, Angew. Chem. Int. Ed., 2020, 59, 15665-15673.
     DOI: 10.1002/anie.202004239
   
   for ALPB and GBSA implicit solvation:
   * S. Ehlert, M. Stahn, S. Spicher, S. Grimme, J. Chem. Theory Comput.,
     2021, 17, 4250-4261. DOI: 10.1021/acs.jctc.1c00471
   
   for ddCOSMO and CPCM-X implicit solvation:
   * M. Stahn, S. Ehlert, S. Grimme, J. Phys. Chem. A,
     2023, XX, XXXX-XXXX. DOI: 10.1021/acs.jpca.3c04382
   
   for DFT-D4:
   * E. Caldeweyher, C. Bannwarth and S. Grimme, J. Chem. Phys., 2017,
     147, 034112. DOI: 10.1063/1.4993215
   * E. Caldeweyher, S. Ehlert, A. Hansen, H. Neugebauer, S. Spicher,
     C. Bannwarth and S. Grimme, J. Chem. Phys., 2019, 150, 154122.
     DOI: 10.1063/1.5090222
   * E. Caldeweyher, J.-M. Mewes, S. Ehlert and S. Grimme, Phys. Chem. Chem. Phys.
     2020, 22, 8499-8512. DOI: 10.1039/D0CP00502A
   
   for sTDA-xTB:
   * S. Grimme and C. Bannwarth, J. Chem. Phys., 2016, 145, 054103.
     DOI: 10.1063/1.4959605
   
   in the mass-spec context:
   * V. Asgeirsson, C. Bauer and S. Grimme, Chem. Sci., 2017, 8, 4879.
     DOI: 10.1039/c7sc00601b
   * J. Koopman and S. Grimme, ACS Omega 2019, 4, 12, 15120-15133.
     DOI: 10.1021/acsomega.9b02011
   
   for metadynamics refer to:
   * S. Grimme, J. Chem. Theory Comput., 2019, 155, 2847-2862
     DOI: 10.1021/acs.jctc.9b00143
   
   for SPH calculations refer to:
   * S. Spicher and S. Grimme, J. Chem. Theory Comput., 2021, 17, 1701-1714
     DOI: 10.1021/acs.jctc.0c01306
   
   for ONIOM refer to:
   * C. Plett, A. Katbashev, S. Ehlert, S. Grimme, M. Bursch,
     Phys. Chem. Chem. Phys., 2023, 25, 17860-17868. DOI: 10.1039/D3CP02178E
   
   for DIPRO refer to:
   * J. Kohn, N. Gildemeister, S. Grimme, D. Fazzi, A. Hansen,
     J. Chem. Phys., 2023, just accepted.
   
   for PTB refer to:
   * S. Grimme, M. Mueller, A. Hansen, J. Chem. Phys., 2023, 158, 124111.
     DOI: 10.1063/5.0137838
   
   with help from (in alphabetical order)
   P. Atkinson, C. Bannwarth, F. Bohle, G. Brandenburg, E. Caldeweyher
   M. Checinski, S. Dohm, S. Ehlert, S. Ehrlich, I. Gerasimov, C. Hölzer
   A. Katbashev, J. Kohn, J. Koopman, C. Lavigne, S. Lehtola, F. März, M. Müller,
   F. Musil, H. Neugebauer, J. Pisarek, C. Plett, P. Pracht, F. Pultar,
   J. Seibert, P. Shushkov, S. Spicher, M. Stahn, M. Steiner, T. Strunk,
   J. Stückrath, T. Rose, and J. Unsleber
   
 * started run on 2025/08/09 at 14:46:41.135     
   ID    Z sym.   atoms
    1    6 C      1-4, 6
    2   16 S      5
    3    7 N      7
    4    8 O      8, 9
    5    1 H      10-19

           -------------------------------------------------
          |                Calculation Setup                |
           -------------------------------------------------

          program call               : /home/test/orca/orca_6_1_0_linux_x86-64_shared_openmpi418/otool_xtb m_XTB.xyz --grad -c 0 -u 0 -P 1 --namespace m --input m_XTB.input.tmp --acc 0.200000
          calculation namespace      : m
          coordinate file            : m_XTB.xyz
          omp threads                :                     1


           -------------------------------------------------
          |                 G F N 2 - x T B                 |
           -------------------------------------------------

        Reference                      10.1021/acs.jctc.8b01176
      * Hamiltonian:
        H0-scaling (s, p, d)           1.850000    2.230000    2.230000
        zeta-weighting                 0.500000
      * Dispersion:
        s8                             2.700000
        a1                             0.520000
        a2                             5.000000
        s9                             5.000000
      * Repulsion:
        kExp                           1.500000    1.000000
        rExp                           1.000000
      * Coulomb:
        alpha                          2.000000
        third order                    shell-resolved
        anisotropic                    true
        a3                             3.000000
        a5                             4.000000
        cn-shift                       1.200000
        cn-exp                         4.000000
        max-rad                        5.000000


          ...................................................
          :                      SETUP                      :
          :.................................................:
          :  # basis functions                  52          :
          :  # atomic orbitals                  51          :
          :  # shells                           29          :
          :  # electrons                        53          :
          :  max. iterations                   250          :
          :  Hamiltonian                  GFN2-xTB          :
          :  restarted?                      false          :
          :  GBSA solvation                  false          :
          :  PC potential                    false          :
          :  electronic temp.          300.0000000     K    :
          :  accuracy                    0.2000000          :
          :  -> integral cutoff          0.3198970E+02      :
          :  -> integral neglect         0.2000000E-08      :
          :  -> SCF convergence          0.2000000E-06 Eh   :
          :  -> wf. convergence          0.2000000E-04 e    :
          :  Broyden damping             0.4000000          :
          :  net charge                          0          :
          :  unpaired electrons                  0          :
          ...................................................

 iter      E             dE          RMSdq      gap      omega  full diag
   1    -30.2396758 -0.302397E+02  0.408E+00    2.74       0.0  T
   2    -30.2865770 -0.469012E-01  0.225E+00    1.41       1.0  T
   3    -30.2892406 -0.266362E-02  0.119E+00    1.59       1.0  T
   4    -30.2935442 -0.430358E-02  0.295E-01    1.00       1.0  T
   5    -30.2936463 -0.102125E-03  0.123E-01    1.08       1.0  T
   6    -30.2937046 -0.582835E-04  0.492E-02    1.04       1.0  T
   7    -30.2937103 -0.574460E-05  0.216E-02    1.05       1.1  T
   8    -30.2937115 -0.121016E-05  0.919E-03    1.06       2.5  T
   9    -30.2937119 -0.342532E-06  0.229E-03    1.06      10.0  T
  10    -30.2937119 -0.864240E-08  0.876E-04    1.06      26.2  T
  11    -30.2937119 -0.111423E-08  0.294E-04    1.06      78.0  T
  12    -30.2937119 -0.129571E-09  0.114E-04    1.06     200.8  T
  13    -30.2937119 -0.357296E-10  0.445E-05    1.06     515.1  T

   *** convergence criteria satisfied after 13 iterations ***

         #    Occupation            Energy/Eh            Energy/eV
      -------------------------------------------------------------
         1        2.0000           -0.7555678             -20.5600
       ...           ...                  ...                  ...
        21        2.0000           -0.4632194             -12.6048
        22        2.0000           -0.4589263             -12.4880
        23        2.0000           -0.4428512             -12.0506
        24        2.0000           -0.4308761             -11.7247
        25        2.0000           -0.4057174             -11.0401
        26        2.0000           -0.3871384             -10.5346
        27        1.0000           -0.2959388              -8.0529 (HOMO)
        28                         -0.2570205              -6.9939 (LUMO)
        29                         -0.1983964              -5.3986
        30                         -0.1323506              -3.6014
        31                         -0.0162349              -0.4418
        32                         -0.0022739              -0.0619
       ...                                ...                  ...
        51                          0.5577256              15.1765
      -------------------------------------------------------------
                  HL-Gap            0.0389183 Eh            1.0590 eV
             Fermi-level           -0.3090091 Eh           -8.4086 eV

 SCC (total)                   0 d,  0 h,  0 min,  0.022 sec
 SCC setup                      ...        0 min,  0.000 sec (  1.716%)
 Dispersion                     ...        0 min,  0.000 sec (  0.878%)
 classical contributions        ...        0 min,  0.000 sec (  0.573%)
 integral evaluation            ...        0 min,  0.007 sec ( 32.655%)
 iterations                     ...        0 min,  0.010 sec ( 45.359%)
 molecular gradient             ...        0 min,  0.004 sec ( 17.537%)
 printout                       ...        0 min,  0.000 sec (  1.102%)

         :::::::::::::::::::::::::::::::::::::::::::::::::::::
         ::                     SUMMARY                     ::
         :::::::::::::::::::::::::::::::::::::::::::::::::::::
         :: total energy             -30.016865689606 Eh    ::
         :: gradient norm              0.056212460139 Eh/a0 ::
         :: HOMO-LUMO gap              1.059021407345 eV    ::
         ::.................................................::
         :: SCC energy               -30.293707180598 Eh    ::
         :: -> isotropic ES            0.060001244658 Eh    ::
         :: -> anisotropic ES          0.003491172392 Eh    ::
         :: -> anisotropic XC          0.013231438311 Eh    ::
         :: -> dispersion             -0.013982600507 Eh    ::
         :: repulsion energy           0.276841490991 Eh    ::
         :: add. restraining           0.000000000000 Eh    ::
         :: total charge               0.000000000000 e     ::
         :::::::::::::::::::::::::::::::::::::::::::::::::::::


Property printout bound to 'properties.out'

           -------------------------------------------------
          | TOTAL ENERGY              -30.016865689606 Eh   |
          | GRADIENT NORM               0.056212460139 Eh/α |
          | HOMO-LUMO GAP               1.059021407345 eV   |
           -------------------------------------------------

------------------------------------------------------------------------
 * finished run on 2025/08/09 at 14:46:41.176     
------------------------------------------------------------------------
 total:
 * wall-time:     0 d,  0 h,  0 min,  0.040 sec
 *  cpu-time:     0 d,  0 h,  0 min,  0.039 sec
 * ratio c/w:     0.965 speedup
 SCF:
 * wall-time:     0 d,  0 h,  0 min,  0.022 sec
 *  cpu-time:     0 d,  0 h,  0 min,  0.021 sec
 * ratio c/w:     0.944 speedup


-------------------------   --------------------
FINAL SINGLE POINT ENERGY       -30.016865689610
-------------------------   --------------------


-------------
DIPOLE MOMENT
-------------
                                X             Y             Z
Total Dipole Moment    :     -0.50500       0.24000      -0.40600
                        -----------------------------------------
Magnitude (a.u.)       :      0.69099
Magnitude (Debye)      :      1.75635


------------------
CARTESIAN GRADIENT
------------------

   1   C   :    0.001151501   -0.006550428    0.013860748
   2   C   :   -0.012308628   -0.004355504   -0.008005542
   3   C   :   -0.009627119    0.002409043   -0.001627057
   4   C   :   -0.004115079   -0.005098788    0.008049140
   5   S   :    0.004676674    0.011523725    0.003118534
   6   C   :    0.001323112    0.002619044    0.000987118
   7   N   :   -0.000416249   -0.005345763   -0.011497219
   8   O   :   -0.018960097    0.006203614   -0.004275346
   9   O   :    0.029885085    0.010315207    0.010783688
  10   H   :    0.010316335   -0.000495625    0.002219054
  11   H   :   -0.003429724    0.005966836    0.004355817
  12   H   :   -0.003897944   -0.000573894    0.002132825
  13   H   :    0.005634123   -0.000265355   -0.001242891
  14   H   :    0.005168539   -0.001518464    0.000131424
  15   H   :    0.001937668   -0.000527167   -0.003378131
  16   H   :    0.001564836   -0.001172385   -0.003938519
  17   H   :    0.001038381   -0.006249659   -0.008393955
  18   H   :   -0.006485154   -0.009322851    0.003608012
  19   H   :   -0.003456259    0.002438415   -0.006887701

Difference to translation invariance:
           :    0.0000000000    0.0000000000   -0.0000000000

Difference to rotation invariance:
           :   -0.0000001125   -0.0000000142   -0.0000000304

Norm of the Cartesian gradient     ...    0.0562124601
RMS gradient                       ...    0.0074455222
MAX gradient                       ...    0.0298850850
------------------------------------------------------------------------------
                         ORCA GEOMETRY RELAXATION STEP
------------------------------------------------------------------------------

Reading the OPT-File                    .... done
Getting information on internals        .... done
Copying old internal coords+grads       .... done
Making the new internal coordinates     .... (2022 redundants) done
Validating the new internal coordinates .... (2022 redundants) done
Calculating the B-matrix                .... done
Calculating the G,G- and P matrices     .... done
Transforming gradient to internals      .... done
Projecting the internal gradient        .... done
Number of atoms                         ....  19
Number of internal coordinates          ....  77
Current Energy                          ....   -30.016865690 Eh
Current gradient norm                   ....     0.056212460 Eh/bohr
Maximum allowed component of the step   ....  0.300
Current trust radius                    ....  0.300
Evaluating the initial hessian          ....  (Almloef) done
Projecting the Hessian                  .... done
Forming the augmented Hessian           .... done
Diagonalizing the augmented Hessian     .... done
Last element of RFO vector              ....  0.985605440
Lowest eigenvalues of augmented Hessian:
 -0.006498057  0.010000000  0.010000000  0.010035891  0.010111780
Length of the computed step             ....  0.171530986
The final length of the internal step   ....  0.171530986
Converting the step to Cartesian space:
 Initial RMS(Int)=    0.0195477700
Transforming coordinates:
 Iter   0:  RMS(Cart)=    0.0643099056 RMS(Int)=    0.7155781891
done
Storing new coordinates                 .... done

                                .--------------------.
          ----------------------|Geometry convergence|-------------------------
          Item                value                   Tolerance       Converged
          ---------------------------------------------------------------------
          RMS gradient        0.0061409997            0.0001000000      NO
          MAX gradient        0.0326663216            0.0003000000      NO
          RMS step            0.0195477700            0.0020000000      NO
          MAX step            0.0560418957            0.0040000000      NO
          -------------------------------------------------------------------------
          ........................................................
          Max(Bonds)      0.0213      Max(Angles)    2.36
          Max(Dihed)        3.21      Max(Improp)    0.00
          ---------------------------------------------------------------------

    ---------------------------------------------------------------------------
                         Redundant Internal Coordinates
                            (Angstroem and degrees)

        Definition                    Value    dE/dq     Step     New-Value
    ----------------------------------------------------------------------------
     1. B(C   1,C   0)                1.5383  0.014543 -0.0213    1.5171   
     2. B(C   2,C   0)                1.5347  0.006919 -0.0098    1.5249   
     3. B(C   3,C   2)                1.5286  0.007388 -0.0102    1.5184   
     4. B(S   4,C   3)                1.8217 -0.000352  0.0005    1.8222   
     5. B(C   5,S   4)                1.7227  0.014086 -0.0148    1.7078   
     6. B(N   6,C   0)                1.4817  0.008855 -0.0118    1.4699   
     7. B(O   7,C   1)                1.3559  0.009832 -0.0081    1.3477   
     8. B(O   8,C   1)                1.2207  0.032666 -0.0165    1.2042   
     9. B(H   9,O   7)                0.9802  0.006500 -0.0070    0.9732   
    10. B(H  10,N   6)                1.0254  0.007287 -0.0092    1.0162   
    11. B(H  10,O   7)                2.1830  0.000045  0.0085    2.1915   
    12. B(H  11,N   6)                1.0202  0.003565 -0.0045    1.0157   
    13. B(H  12,C   2)                1.0993  0.004015 -0.0060    1.0933   
    14. B(H  13,C   2)                1.0989  0.003604 -0.0054    1.0935   
    15. B(H  14,C   3)                1.0953  0.002415 -0.0036    1.0918   
    16. B(H  15,C   3)                1.0947  0.002185 -0.0032    1.0914   
    17. B(H  16,C   5)                1.0838  0.009941 -0.0140    1.0698   
    18. B(H  17,C   5)                1.0847  0.011210 -0.0159    1.0688   
    19. B(H  18,C   0)                1.0956 -0.004642  0.0068    1.1025   
    20. A(C   2,C   0,H  18)          111.16  0.002662   -0.90    110.26   
    21. A(C   1,C   0,N   6)          109.91 -0.001396    0.31    110.22   
    22. A(C   1,C   0,C   2)          109.89  0.000546   -0.44    109.45   
    23. A(N   6,C   0,H  18)          108.99 -0.004589    1.61    110.60   
    24. A(C   2,C   0,N   6)          110.83  0.001356   -0.19    110.64   
    25. A(C   1,C   0,H  18)          105.94  0.001333   -0.36    105.57   
    26. A(O   7,C   1,O   8)          119.89 -0.007028    0.93    120.83   
    27. A(C   0,C   1,O   8)          127.25  0.008590   -1.04    126.22   
    28. A(C   0,C   1,O   7)          112.75 -0.001542    0.22    112.97   
    29. A(C   3,C   2,H  12)          107.79 -0.003063    0.48    108.27   
    30. A(C   0,C   2,H  12)          109.05 -0.001803    0.00    109.05   
    31. A(H  12,C   2,H  13)          105.21 -0.002624    1.47    106.67   
    32. A(C   3,C   2,H  13)          109.08 -0.002448    0.55    109.63   
    33. A(C   0,C   2,H  13)          109.11 -0.000816   -0.25    108.86   
    34. A(C   0,C   2,C   3)          116.05  0.009589   -1.91    114.15   
    35. A(C   2,C   3,S   4)          112.61  0.004589   -0.84    111.77   
    36. A(S   4,C   3,H  15)          109.23  0.003555   -0.61    108.62   
    37. A(C   2,C   3,H  15)          110.73 -0.001300    0.01    110.74   
    38. A(S   4,C   3,H  14)          108.29  0.000355   -0.14    108.15   
    39. A(C   2,C   3,H  14)          108.60 -0.003555    0.63    109.23   
    40. A(H  14,C   3,H  15)          107.21 -0.004105    1.06    108.26   
    41. A(C   3,S   4,C   5)          100.40  0.001575   -0.21    100.19   
    42. A(H  16,C   5,H  17)          119.04 -0.005092    0.89    119.93   
    43. A(S   4,C   5,H  17)          119.40  0.003183   -0.57    118.83   
    44. A(S   4,C   5,H  16)          121.55  0.001926   -0.37    121.17   
    45. A(H  10,N   6,H  11)          105.56 -0.000396    0.91    106.47   
    46. A(C   0,N   6,H  11)          108.47 -0.000436    0.39    108.86   
    47. A(C   0,N   6,H  10)          107.12 -0.005267    1.14    108.25   
    48. A(C   1,O   7,H   9)          103.32 -0.015398    2.36    105.69   
    49. D(O   7,C   1,C   0,H  18)    -82.69  0.003385   -0.83    -83.52   
    50. D(O   8,C   1,C   0,N   6)   -148.74 -0.001927    3.21   -145.53   
    51. D(O   8,C   1,C   0,C   2)    -26.51 -0.000790    2.88    -23.63   
    52. D(O   7,C   1,C   0,N   6)     34.91 -0.002002    1.02     35.93   
    53. D(O   7,C   1,C   0,C   2)    157.14 -0.000865    0.70    157.84   
    54. D(C   3,C   2,C   0,N   6)    -56.18  0.000417   -0.84    -57.01   
    55. D(C   3,C   2,C   0,C   1)   -177.86  0.000911   -0.80   -178.66   
    56. D(H  12,C   2,C   0,N   6)     65.74  0.001766   -1.56     64.18   
    57. D(H  12,C   2,C   0,C   1)    -55.94  0.002260   -1.52    -57.47   
    58. D(H  12,C   2,C   0,H  18)   -172.89 -0.001322   -0.26   -173.15   
    59. D(C   3,C   2,C   0,H  18)     65.19 -0.002670    0.47     65.66   
    60. D(S   4,C   3,C   2,H  13)     62.58  0.003561   -0.65     61.93   
    61. D(S   4,C   3,C   2,H  12)    176.32 -0.002333    1.59    177.91   
    62. D(H  14,C   3,C   2,C   0)    178.97 -0.001384    0.92    179.90   
    63. D(S   4,C   3,C   2,C   0)    -61.10 -0.000455    0.65    -60.46   
    64. D(H  14,C   3,C   2,H  13)    -57.34  0.002632   -0.37    -57.72   
    65. D(H  14,C   3,C   2,H  12)     56.39 -0.003262    1.87     58.26   
    66. D(C   5,S   4,C   3,H  15)     59.84 -0.002217    0.38     60.22   
    67. D(C   5,S   4,C   3,H  14)    -56.60  0.000542   -0.47    -57.07   
    68. D(C   5,S   4,C   3,C   2)   -176.70  0.001886   -0.64   -177.34   
    69. D(H  17,C   5,S   4,C   3)   -178.54  0.000369   -1.25   -179.79   
    70. D(H  16,C   5,S   4,C   3)      2.76 -0.000443    1.51      4.26   
    71. D(H  11,N   6,C   0,C   1)   -155.83  0.002629   -1.36   -157.19   
    72. D(H  10,N   6,C   0,H  18)     73.37 -0.002445    1.09     74.46   
    73. D(H  10,N   6,C   0,C   2)   -163.99 -0.001310    0.92   -163.07   
    74. D(H  11,N   6,C   0,C   2)     82.50  0.001984   -0.88     81.62   
    75. D(H  10,N   6,C   0,C   1)    -42.32 -0.000664    0.44    -41.87   
    76. D(H   9,O   7,C   1,O   8)      3.21  0.000108   -1.62      1.59   
    77. D(H   9,O   7,C   1,C   0)    179.86  0.000796    0.30    180.16   
    ----------------------------------------------------------------------------

Geometry step timings:
Preparation and reading OPT file:      0.000 s ( 0.958 %)
Internal coordinates            :      0.000 s ( 1.278 %)
B/P matrices and projection     :      0.001 s (30.534 %)
Hessian update/contruction      :      0.000 s (10.269 %)
Making the step                 :      0.001 s (27.978 %)
Converting the step to Cartesian:      0.000 s ( 3.514 %)
Storing new data                :      0.000 s ( 1.506 %)
Checking convergence            :      0.000 s ( 1.643 %)
Final printing                  :      0.000 s (22.273 %)
Total time                      :      0.002 s

Time for energy+gradient        :      0.046 s
Time for complete geometry iter :      0.049 s

         *************************************************************
         *                GEOMETRY OPTIMIZATION CYCLE   2            *
         *************************************************************
---------------------------------
CARTESIAN COORDINATES (ANGSTROEM)
---------------------------------
  C    -0.997865    0.086461    0.172965
  C    -0.245385    1.389831    0.364109
  C    -0.006906   -1.032041   -0.130626
  C    -0.652553   -2.384666   -0.373649
  S    -1.596303   -2.953440    1.077671
  C    -2.110500   -4.484524    0.522617
  N    -1.977471    0.220230   -0.914711
  O    -1.016943    2.476625    0.164162
  O     0.909299    1.503833    0.686362
  H    -0.434850    3.242912    0.309363
  H    -2.430406    1.125542   -0.825486
  H    -2.704023   -0.478484   -0.789843
  H     0.572195   -0.764417   -1.018528
  H     0.704396   -1.107999    0.696463
  H     0.125016   -3.121629   -0.583937
  H    -1.325309   -2.342920   -1.232085
  H    -1.789739   -4.866509   -0.423781
  H    -2.710583   -5.090979    1.166368
  H    -1.506858   -0.104503    1.132083

----------------------------
CARTESIAN COORDINATES (A.U.)
----------------------------
  NO LB    ZA    FRAG    MASS        X           Y           Z
   0 C   6.0000    1    12.011   -1.885692    0.163388    0.326857
   1 C   6.0000    1    12.011   -0.463710    2.626401    0.688066
   2 C   6.0000    1    12.011   -0.013050   -1.950275   -0.246847
   3 C   6.0000    1    12.011   -1.233146   -4.506365   -0.706093
   4 S  16.0000    1    32.060   -3.016576   -5.581193    2.036503
   5 C   6.0000    1    12.011   -3.988266   -8.474523    0.987603
   6 N   7.0000    1    14.007   -3.736878    0.416175   -1.728553
   7 O   8.0000    1    15.999   -1.921744    4.680142    0.310220
   8 O   8.0000    1    15.999    1.718325    2.841833    1.297037
   9 H   1.0000    1     1.008   -0.821748    6.128215    0.584611
  10 H   1.0000    1     1.008   -4.592802    2.126967   -1.559943
  11 H   1.0000    1     1.008   -5.109862   -0.904204   -1.492587
  12 H   1.0000    1     1.008    1.081293   -1.444538   -1.924739
  13 H   1.0000    1     1.008    1.331115   -2.093815    1.316124
  14 H   1.0000    1     1.008    0.236246   -5.899023   -1.103482
  15 H   1.0000    1     1.008   -2.504471   -4.427478   -2.328302
  16 H   1.0000    1     1.008   -3.382117   -9.196369   -0.800829
  17 H   1.0000    1     1.008   -5.122260   -9.620557    2.204115
  18 H   1.0000    1     1.008   -2.847548   -0.197481    2.139326

      -----------------------------------------------------------      
     |                   =====================                   |     
     |                           x T B                           |     
     |                   =====================                   |     
     |                         S. Grimme                         |     
     |          Mulliken Center for Theoretical Chemistry        |     
     |                    University of Bonn                     |     
      -----------------------------------------------------------      

   * xtb version 6.7.1 (edcfbbe) compiled by 'albert@albert-system' on 2024-07-22

   xtb is free software: you can redistribute it and/or modify it under
   the terms of the GNU Lesser General Public License as published by
   the Free Software Foundation, either version 3 of the License, or
   (at your option) any later version.
   
   xtb is distributed in the hope that it will be useful,
   but WITHOUT ANY WARRANTY; without even the implied warranty of
   MERCHANTABILITY or FITNESS FOR A PARTICULAR PURPOSE.  See the
   GNU Lesser General Public License for more details.
   
   Cite this work as:
   * C. Bannwarth, E. Caldeweyher, S. Ehlert, A. Hansen, P. Pracht,
     J. Seibert, S. Spicher, S. Grimme, WIREs Comput. Mol. Sci., 2020, 11,
     e01493. DOI: 10.1002/wcms.1493
   
   for GFN2-xTB:
   * C. Bannwarth, S. Ehlert and S. Grimme., J. Chem. Theory Comput., 2019,
     15, 1652-1671. DOI: 10.1021/acs.jctc.8b01176
   for GFN1-xTB:
   * S. Grimme, C. Bannwarth, P. Shushkov, J. Chem. Theory Comput., 2017,
     13, 1989-2009. DOI: 10.1021/acs.jctc.7b00118
   for GFN0-xTB:
   * P. Pracht, E. Caldeweyher, S. Ehlert, S. Grimme, ChemRxiv, 2019, preprint.
     DOI: 10.26434/chemrxiv.8326202.v1
   for GFN-FF:
   * S. Spicher and S. Grimme, Angew. Chem. Int. Ed., 2020, 59, 15665-15673.
     DOI: 10.1002/anie.202004239
   
   for ALPB and GBSA implicit solvation:
   * S. Ehlert, M. Stahn, S. Spicher, S. Grimme, J. Chem. Theory Comput.,
     2021, 17, 4250-4261. DOI: 10.1021/acs.jctc.1c00471
   
   for ddCOSMO and CPCM-X implicit solvation:
   * M. Stahn, S. Ehlert, S. Grimme, J. Phys. Chem. A,
     2023, XX, XXXX-XXXX. DOI: 10.1021/acs.jpca.3c04382
   
   for DFT-D4:
   * E. Caldeweyher, C. Bannwarth and S. Grimme, J. Chem. Phys., 2017,
     147, 034112. DOI: 10.1063/1.4993215
   * E. Caldeweyher, S. Ehlert, A. Hansen, H. Neugebauer, S. Spicher,
     C. Bannwarth and S. Grimme, J. Chem. Phys., 2019, 150, 154122.
     DOI: 10.1063/1.5090222
   * E. Caldeweyher, J.-M. Mewes, S. Ehlert and S. Grimme, Phys. Chem. Chem. Phys.
     2020, 22, 8499-8512. DOI: 10.1039/D0CP00502A
   
   for sTDA-xTB:
   * S. Grimme and C. Bannwarth, J. Chem. Phys., 2016, 145, 054103.
     DOI: 10.1063/1.4959605
   
   in the mass-spec context:
   * V. Asgeirsson, C. Bauer and S. Grimme, Chem. Sci., 2017, 8, 4879.
     DOI: 10.1039/c7sc00601b
   * J. Koopman and S. Grimme, ACS Omega 2019, 4, 12, 15120-15133.
     DOI: 10.1021/acsomega.9b02011
   
   for metadynamics refer to:
   * S. Grimme, J. Chem. Theory Comput., 2019, 155, 2847-2862
     DOI: 10.1021/acs.jctc.9b00143
   
   for SPH calculations refer to:
   * S. Spicher and S. Grimme, J. Chem. Theory Comput., 2021, 17, 1701-1714
     DOI: 10.1021/acs.jctc.0c01306
   
   for ONIOM refer to:
   * C. Plett, A. Katbashev, S. Ehlert, S. Grimme, M. Bursch,
     Phys. Chem. Chem. Phys., 2023, 25, 17860-17868. DOI: 10.1039/D3CP02178E
   
   for DIPRO refer to:
   * J. Kohn, N. Gildemeister, S. Grimme, D. Fazzi, A. Hansen,
     J. Chem. Phys., 2023, just accepted.
   
   for PTB refer to:
   * S. Grimme, M. Mueller, A. Hansen, J. Chem. Phys., 2023, 158, 124111.
     DOI: 10.1063/5.0137838
   
   with help from (in alphabetical order)
   P. Atkinson, C. Bannwarth, F. Bohle, G. Brandenburg, E. Caldeweyher
   M. Checinski, S. Dohm, S. Ehlert, S. Ehrlich, I. Gerasimov, C. Hölzer
   A. Katbashev, J. Kohn, J. Koopman, C. Lavigne, S. Lehtola, F. März, M. Müller,
   F. Musil, H. Neugebauer, J. Pisarek, C. Plett, P. Pracht, F. Pultar,
   J. Seibert, P. Shushkov, S. Spicher, M. Stahn, M. Steiner, T. Strunk,
   J. Stückrath, T. Rose, and J. Unsleber
   
 * started run on 2025/08/09 at 14:46:41.183     
   ID    Z sym.   atoms
    1    6 C      1-4, 6
    2   16 S      5
    3    7 N      7
    4    8 O      8, 9
    5    1 H      10-19

           -------------------------------------------------
          |                Calculation Setup                |
           -------------------------------------------------

          program call               : /home/test/orca/orca_6_1_0_linux_x86-64_shared_openmpi418/otool_xtb m_XTB.xyz --grad -c 0 -u 0 -P 1 --namespace m --input m_XTB.input.tmp --acc 0.200000
          calculation namespace      : m
          coordinate file            : m_XTB.xyz
          omp threads                :                     1


           -------------------------------------------------
          |                 G F N 2 - x T B                 |
           -------------------------------------------------

        Reference                      10.1021/acs.jctc.8b01176
      * Hamiltonian:
        H0-scaling (s, p, d)           1.850000    2.230000    2.230000
        zeta-weighting                 0.500000
      * Dispersion:
        s8                             2.700000
        a1                             0.520000
        a2                             5.000000
        s9                             5.000000
      * Repulsion:
        kExp                           1.500000    1.000000
        rExp                           1.000000
      * Coulomb:
        alpha                          2.000000
        third order                    shell-resolved
        anisotropic                    true
        a3                             3.000000
        a5                             4.000000
        cn-shift                       1.200000
        cn-exp                         4.000000
        max-rad                        5.000000

q/qsh data taken from xtbrestart
CAMM data taken from xtbrestart

          ...................................................
          :                      SETUP                      :
          :.................................................:
          :  # basis functions                  52          :
          :  # atomic orbitals                  51          :
          :  # shells                           29          :
          :  # electrons                        53          :
          :  max. iterations                   250          :
          :  Hamiltonian                  GFN2-xTB          :
          :  restarted?                       true          :
          :  GBSA solvation                  false          :
          :  PC potential                    false          :
          :  electronic temp.          300.0000000     K    :
          :  accuracy                    0.2000000          :
          :  -> integral cutoff          0.3198970E+02      :
          :  -> integral neglect         0.2000000E-08      :
          :  -> SCF convergence          0.2000000E-06 Eh   :
          :  -> wf. convergence          0.2000000E-04 e    :
          :  Broyden damping             0.4000000          :
          :  net charge                          0          :
          :  unpaired electrons                  0          :
          ...................................................

 iter      E             dE          RMSdq      gap      omega  full diag
   1    -30.3180706 -0.303181E+02  0.196E-01    1.28       0.0  T
   2    -30.3181331 -0.624792E-04  0.117E-01    1.22       1.0  T
   3    -30.3181294  0.366784E-05  0.516E-02    1.25       1.0  T
   4    -30.3181445 -0.151140E-04  0.678E-03    1.23       3.4  T
   5    -30.3181446 -0.575040E-07  0.408E-03    1.23       5.6  T
   6    -30.3181446 -0.211212E-07  0.190E-03    1.23      12.0  T
   7    -30.3181446 -0.129169E-07  0.654E-04    1.23      35.1  T
   8    -30.3181446 -0.261700E-09  0.260E-04    1.23      88.4  T
   9    -30.3181446 -0.196543E-09  0.987E-05    1.23     232.5  T
  10    -30.3181446 -0.731504E-11  0.227E-05    1.23    1012.5  T

   *** convergence criteria satisfied after 10 iterations ***

         #    Occupation            Energy/Eh            Energy/eV
      -------------------------------------------------------------
         1        2.0000           -0.7564049             -20.5828
       ...           ...                  ...                  ...
        21        2.0000           -0.4634559             -12.6113
        22        2.0000           -0.4586815             -12.4814
        23        2.0000           -0.4422639             -12.0346
        24        2.0000           -0.4291308             -11.6772
        25        2.0000           -0.4069785             -11.0744
        26        2.0000           -0.3854539             -10.4887
        27        1.0000           -0.2946177              -8.0170 (HOMO)
        28                         -0.2493011              -6.7838 (LUMO)
        29                         -0.1975648              -5.3760
        30                         -0.1273684              -3.4659
        31                         -0.0108962              -0.2965
        32                         -0.0018008              -0.0490
       ...                                ...                  ...
        51                          0.6154993              16.7486
      -------------------------------------------------------------
                  HL-Gap            0.0453167 Eh            1.2331 eV
             Fermi-level           -0.3059976 Eh           -8.3266 eV

 SCC (total)                   0 d,  0 h,  0 min,  0.015 sec
 SCC setup                      ...        0 min,  0.000 sec (  1.420%)
 Dispersion                     ...        0 min,  0.000 sec (  0.837%)
 classical contributions        ...        0 min,  0.000 sec (  0.174%)
 integral evaluation            ...        0 min,  0.007 sec ( 50.077%)
 iterations                     ...        0 min,  0.004 sec ( 27.378%)
 molecular gradient             ...        0 min,  0.003 sec ( 19.382%)
 printout                       ...        0 min,  0.000 sec (  0.630%)

         :::::::::::::::::::::::::::::::::::::::::::::::::::::
         ::                     SUMMARY                     ::
         :::::::::::::::::::::::::::::::::::::::::::::::::::::
         :: total energy             -30.021186195595 Eh    ::
         :: gradient norm              0.023627608164 Eh/a0 ::
         :: HOMO-LUMO gap              1.233129350458 eV    ::
         ::.................................................::
         :: SCC energy               -30.318137833253 Eh    ::
         :: -> isotropic ES            0.059962176995 Eh    ::
         :: -> anisotropic ES          0.002908363976 Eh    ::
         :: -> anisotropic XC          0.012507615312 Eh    ::
         :: -> dispersion             -0.014181513275 Eh    ::
         :: repulsion energy           0.296951637658 Eh    ::
         :: add. restraining           0.000000000000 Eh    ::
         :: total charge               0.000000000000 e     ::
         :::::::::::::::::::::::::::::::::::::::::::::::::::::


Property printout bound to 'properties.out'

           -------------------------------------------------
          | TOTAL ENERGY              -30.021186195595 Eh   |
          | GRADIENT NORM               0.023627608164 Eh/α |
          | HOMO-LUMO GAP               1.233129350458 eV   |
           -------------------------------------------------

------------------------------------------------------------------------
 * finished run on 2025/08/09 at 14:46:41.207     
------------------------------------------------------------------------
 total:
 * wall-time:     0 d,  0 h,  0 min,  0.023 sec
 *  cpu-time:     0 d,  0 h,  0 min,  0.017 sec
 * ratio c/w:     0.744 speedup
 SCF:
 * wall-time:     0 d,  0 h,  0 min,  0.015 sec
 *  cpu-time:     0 d,  0 h,  0 min,  0.010 sec
 * ratio c/w:     0.664 speedup


-------------------------   --------------------
FINAL SINGLE POINT ENERGY       -30.021186195590
-------------------------   --------------------


-------------
DIPOLE MOMENT
-------------
                                X             Y             Z
Total Dipole Moment    :     -0.51900       0.24900      -0.39900
                        -----------------------------------------
Magnitude (a.u.)       :      0.70040
Magnitude (Debye)      :      1.78028


------------------
CARTESIAN GRADIENT
------------------

   1   C   :    0.006371200   -0.003466631    0.007424408
   2   C   :   -0.001403845   -0.004912262   -0.000040588
   3   C   :   -0.007418313    0.003333235   -0.001357755
   4   C   :   -0.002434003   -0.001509658    0.005350488
   5   S   :    0.002511780    0.005330150    0.000084966
   6   C   :    0.000462972   -0.000219661    0.000658921
   7   N   :   -0.000887696   -0.001055091   -0.006857985
   8   O   :   -0.008481366    0.002922291   -0.002756294
   9   O   :    0.005495053    0.004156214    0.001287093
  10   H   :    0.005161378   -0.002253792    0.001066658
  11   H   :   -0.000701790    0.000611430    0.002685550
  12   H   :   -0.000968343    0.000433547    0.001491996
  13   H   :    0.002340103   -0.000687539    0.000455462
  14   H   :    0.001777399   -0.000734188   -0.000577058
  15   H   :    0.000952531    0.000865862   -0.002005148
  16   H   :    0.001170751   -0.000265294   -0.001621546
  17   H   :   -0.001325372   -0.002178058   -0.000369555
  18   H   :   -0.000459445   -0.002306989   -0.001705947
  19   H   :   -0.002162994    0.001936433   -0.003213665

Difference to translation invariance:
           :    0.0000000000   -0.0000000000    0.0000000000

Difference to rotation invariance:
           :   -0.0000001041   -0.0000000430   -0.0000000027

Norm of the Cartesian gradient     ...    0.0236276082
RMS gradient                       ...    0.0031295532
MAX gradient                       ...    0.0084813661
------------------------------------------------------------------------------
                         ORCA GEOMETRY RELAXATION STEP
------------------------------------------------------------------------------

Reading the OPT-File                    .... done
Getting information on internals        .... done
Copying old internal coords+grads       .... done
Making the new internal coordinates     .... (2022 redundants) done
Validating the new internal coordinates .... (2022 redundants) done
Calculating the B-matrix                .... done
Calculating the G,G- and P matrices     .... done
Transforming gradient to internals      .... done
Projecting the internal gradient        .... done
Number of atoms                         ....  19
Number of internal coordinates          ....  77
Current Energy                          ....   -30.021186196 Eh
Current gradient norm                   ....     0.023627608 Eh/bohr
Maximum allowed component of the step   ....  0.300
Current trust radius                    ....  0.300
Updating the Hessian (BFGS)             .... done
Forming the augmented Hessian           .... done
Diagonalizing the augmented Hessian     .... done
Last element of RFO vector              ....  0.980231526
Lowest eigenvalues of augmented Hessian:
 -0.002189384  0.010000000  0.010001234  0.010009633  0.010091247
Length of the computed step             ....  0.201844024
The final length of the internal step   ....  0.201844024
Converting the step to Cartesian space:
 Initial RMS(Int)=    0.0230022613
Transforming coordinates:
 Iter   0:  RMS(Cart)=    0.0685236683 RMS(Int)=    1.4248382694
 Iter   5:  RMS(Cart)=    0.0000000896 RMS(Int)=    0.0000000689
done
Storing new coordinates                 .... done
The predicted energy change is          ....    -0.001139291
Previously predicted energy change      ....    -0.003344624
Actually observed energy change         ....    -0.004320506
Ratio of predicted to observed change   ....     1.291776209
New trust radius                        ....     0.300000000

                                .--------------------.
          ----------------------|Geometry convergence|-------------------------
          Item                value                   Tolerance       Converged
          ---------------------------------------------------------------------
          Energy change      -0.0043205060            0.0000050000      NO
          RMS gradient        0.0021420848            0.0001000000      NO
          MAX gradient        0.0101784406            0.0003000000      NO
          RMS step            0.0230022613            0.0020000000      NO
          MAX step            0.0817059322            0.0040000000      NO
          -------------------------------------------------------------------------
          ........................................................
          Max(Bonds)      0.0244      Max(Angles)    2.73
          Max(Dihed)        4.68      Max(Improp)    0.00
          ---------------------------------------------------------------------

    ---------------------------------------------------------------------------
                         Redundant Internal Coordinates
                            (Angstroem and degrees)

        Definition                    Value    dE/dq     Step     New-Value
    ----------------------------------------------------------------------------
     1. B(C   1,C   0)                1.5171  0.000652 -0.0051    1.5120   
     2. B(C   2,C   0)                1.5249 -0.002551  0.0036    1.5284   
     3. B(C   3,C   2)                1.5184 -0.000184 -0.0015    1.5169   
     4. B(S   4,C   3)                1.8222 -0.001872  0.0042    1.8265   
     5. B(C   5,S   4)                1.7078  0.005076 -0.0105    1.6973   
     6. B(N   6,C   0)                1.4699  0.004000 -0.0097    1.4601   
     7. B(O   7,C   1)                1.3477  0.002717 -0.0048    1.3430   
     8. B(O   8,C   1)                1.2042  0.006007 -0.0075    1.1967   
     9. B(H   9,O   7)                0.9732  0.001472 -0.0036    0.9696   
    10. B(H  10,N   6)                1.0162  0.000960 -0.0035    1.0127   
    11. B(H  10,O   7)                2.1915 -0.000442  0.0244    2.2159   
    12. B(H  11,N   6)                1.0157  0.000578 -0.0019    1.0138   
    13. B(H  12,C   2)                1.0933  0.000701 -0.0026    1.0907   
    14. B(H  13,C   2)                1.0935  0.000771 -0.0027    1.0909   
    15. B(H  14,C   3)                1.0918  0.000480 -0.0017    1.0901   
    16. B(H  15,C   3)                1.0914  0.000544 -0.0018    1.0897   
    17. B(H  16,C   5)                1.0698  0.000707 -0.0040    1.0658   
    18. B(H  17,C   5)                1.0688  0.000539 -0.0040    1.0648   
    19. B(H  18,C   0)                1.1025 -0.002133  0.0059    1.1083   
    20. A(C   2,C   0,H  18)          110.25  0.002392   -1.36    108.89   
    21. A(C   1,C   0,N   6)          110.22 -0.000070    0.40    110.62   
    22. A(C   1,C   0,C   2)          109.45 -0.000383   -0.12    109.32   
    23. A(N   6,C   0,H  18)          110.60 -0.002544    1.41    112.01   
    24. A(C   2,C   0,N   6)          110.64 -0.000015    0.11    110.76   
    25. A(C   1,C   0,H  18)          105.56  0.000667   -0.45    105.10   
    26. A(O   7,C   1,O   8)          120.82 -0.004319    0.88    121.69   
    27. A(C   0,C   1,O   8)          126.20  0.003875   -0.99    125.21   
    28. A(C   0,C   1,O   7)          112.96  0.000475   -0.10    112.87   
    29. A(C   3,C   2,H  12)          108.26 -0.001310    0.41    108.67   
    30. A(C   0,C   2,H  12)          109.05 -0.000150   -0.19    108.86   
    31. A(H  12,C   2,H  13)          106.66 -0.001208    1.23    107.90   
    32. A(C   3,C   2,H  13)          109.62 -0.001049    0.46    110.08   
    33. A(C   0,C   2,H  13)          108.85  0.000080   -0.31    108.53   
    34. A(C   0,C   2,C   3)          114.14  0.003339   -1.37    112.77   
    35. A(C   2,C   3,S   4)          111.77  0.001501   -0.56    111.20   
    36. A(S   4,C   3,H  15)          108.61  0.002338   -0.69    107.92   
    37. A(C   2,C   3,H  15)          110.73 -0.000660    0.08    110.80   
    38. A(S   4,C   3,H  14)          108.15  0.001088   -0.42    107.73   
    39. A(C   2,C   3,H  14)          109.23 -0.002408    0.79    110.01   
    40. A(H  14,C   3,H  15)          108.26 -0.001911    0.87    109.13   
    41. A(C   3,S   4,C   5)          100.19 -0.000411    0.04    100.23   
    42. A(H  16,C   5,H  17)          119.91 -0.003561    1.04    120.95   
    43. A(S   4,C   5,H  17)          118.82  0.002212   -0.72    118.10   
    44. A(S   4,C   5,H  16)          121.15  0.001422   -0.50    120.66   
    45. A(H  10,N   6,H  11)          106.45 -0.000056    1.00    107.46   
    46. A(C   0,N   6,H  11)          108.85 -0.001254    0.69    109.55   
    47. A(C   0,N   6,H  10)          108.25 -0.002960    1.29    109.54   
    48. A(C   1,O   7,H   9)          105.69 -0.010178    2.73    108.41   
    49. D(O   7,C   1,C   0,H  18)    -83.51  0.001479    1.58    -81.93   
    50. D(O   8,C   1,C   0,N   6)   -145.54  0.000148   -0.27   -145.81   
    51. D(O   8,C   1,C   0,C   2)    -23.64 -0.000166    0.06    -23.58   
    52. D(O   7,C   1,C   0,N   6)     35.94 -0.001196    3.20     39.14   
    53. D(O   7,C   1,C   0,C   2)    157.84 -0.001510    3.52    161.36   
    54. D(C   3,C   2,C   0,N   6)    -57.01  0.000408   -1.23    -58.25   
    55. D(C   3,C   2,C   0,C   1)   -178.66  0.000757   -1.73   -180.39   
    56. D(H  12,C   2,C   0,N   6)     64.18  0.000865   -1.79     62.39   
    57. D(H  12,C   2,C   0,C   1)    -57.47  0.001214   -2.29    -59.76   
    58. D(H  12,C   2,C   0,H  18)   -173.15 -0.000731   -0.85   -174.01   
    59. D(C   3,C   2,C   0,H  18)     65.65 -0.001188   -0.29     65.36   
    60. D(S   4,C   3,C   2,H  13)     61.93  0.001606    0.16     62.09   
    61. D(S   4,C   3,C   2,H  12)    177.91 -0.001131    2.07    179.98   
    62. D(H  14,C   3,C   2,C   0)    179.90 -0.000779    1.57    181.47   
    63. D(S   4,C   3,C   2,C   0)    -60.46 -0.000064    1.21    -59.25   
    64. D(H  14,C   3,C   2,H  13)    -57.72  0.000891    0.52    -57.20   
    65. D(H  14,C   3,C   2,H  12)     58.27 -0.001846    2.43     60.70   
    66. D(C   5,S   4,C   3,H  15)     60.21 -0.000634   -0.17     60.05   
    67. D(C   5,S   4,C   3,H  14)    -57.07 -0.000231   -0.59    -57.66   
    68. D(C   5,S   4,C   3,C   2)   -177.34  0.001122   -0.94   -178.28   
    69. D(H  17,C   5,S   4,C   3)   -179.79  0.000340   -2.17   -181.95   
    70. D(H  16,C   5,S   4,C   3)      4.26 -0.000711    4.68      8.94   
    71. D(H  11,N   6,C   0,C   1)   -157.20  0.001175   -0.60   -157.80   
    72. D(H  10,N   6,C   0,H  18)     74.47 -0.001877    2.05     76.52   
    73. D(H  10,N   6,C   0,C   2)   -163.06 -0.000596    1.37   -161.69   
    74. D(H  11,N   6,C   0,C   2)     81.61  0.001711   -0.79     80.82   
    75. D(H  10,N   6,C   0,C   1)    -41.87 -0.001132    1.56    -40.31   
    76. D(H   9,O   7,C   1,O   8)      1.57 -0.000480    1.03      2.60   
    77. D(H   9,O   7,C   1,C   0)   -179.82  0.000914   -2.19   -182.01   
    ----------------------------------------------------------------------------

Geometry step timings:
Preparation and reading OPT file:      0.000 s ( 0.980 %)
Internal coordinates            :      0.000 s ( 1.508 %)
B/P matrices and projection     :      0.000 s (34.540 %)
Hessian update/contruction      :      0.000 s (10.256 %)
Making the step                 :      0.000 s (24.962 %)
Converting the step to Cartesian:      0.000 s ( 3.544 %)
Storing new data                :      0.000 s ( 1.508 %)
Checking convergence            :      0.000 s ( 2.112 %)
Final printing                  :      0.000 s (20.588 %)
Total time                      :      0.001 s

Time for energy+gradient        :      0.028 s
Time for complete geometry iter :      0.030 s

         *************************************************************
         *                GEOMETRY OPTIMIZATION CYCLE   3            *
         *************************************************************
---------------------------------
CARTESIAN COORDINATES (ANGSTROEM)
---------------------------------
  C    -0.987487    0.070301    0.142475
  C    -0.250408    1.371645    0.362595
  C     0.020120   -1.035697   -0.169886
  C    -0.638995   -2.382999   -0.396602
  S    -1.590483   -2.908088    1.071374
  C    -2.147489   -4.422132    0.543931
  N    -1.958162    0.207544   -0.939355
  O    -1.046042    2.447242    0.246204
  O     0.894834    1.468972    0.695896
  H    -0.518689    3.239674    0.430676
  H    -2.414582    1.109106   -0.870947
  H    -2.674693   -0.503345   -0.843974
  H     0.575166   -0.763333   -1.068426
  H     0.730353   -1.100767    0.655539
  H     0.119665   -3.141632   -0.589461
  H    -1.324462   -2.340654   -1.242638
  H    -1.781159   -4.846655   -0.362444
  H    -2.727028   -5.003578    1.222061
  H    -1.475247   -0.152279    1.112498

----------------------------
CARTESIAN COORDINATES (A.U.)
----------------------------
  NO LB    ZA    FRAG    MASS        X           Y           Z
   0 C   6.0000    1    12.011   -1.866080    0.132849    0.269238
   1 C   6.0000    1    12.011   -0.473203    2.592033    0.685205
   2 C   6.0000    1    12.011    0.038022   -1.957184   -0.321037
   3 C   6.0000    1    12.011   -1.207525   -4.503215   -0.749469
   4 S  16.0000    1    32.060   -3.005577   -5.495489    2.024604
   5 C   6.0000    1    12.011   -4.058166   -8.356619    1.027880
   6 N   7.0000    1    14.007   -3.700389    0.392201   -1.775124
   7 O   8.0000    1    15.999   -1.976733    4.624617    0.465258
   8 O   8.0000    1    15.999    1.690991    2.775954    1.315052
   9 H   1.0000    1     1.008   -0.980180    6.122096    0.813860
  10 H   1.0000    1     1.008   -4.562898    2.095906   -1.645852
  11 H   1.0000    1     1.008   -5.054437   -0.951184   -1.594879
  12 H   1.0000    1     1.008    1.086906   -1.442491   -2.019032
  13 H   1.0000    1     1.008    1.380168   -2.080148    1.238789
  14 H   1.0000    1     1.008    0.226135   -5.936824   -1.113919
  15 H   1.0000    1     1.008   -2.502870   -4.423194   -2.348245
  16 H   1.0000    1     1.008   -3.365904   -9.158851   -0.684920
  17 H   1.0000    1     1.008   -5.153336   -9.455393    2.309361
  18 H   1.0000    1     1.008   -2.787813   -0.287766    2.102317

      -----------------------------------------------------------      
     |                   =====================                   |     
     |                           x T B                           |     
     |                   =====================                   |     
     |                         S. Grimme                         |     
     |          Mulliken Center for Theoretical Chemistry        |     
     |                    University of Bonn                     |     
      -----------------------------------------------------------      

   * xtb version 6.7.1 (edcfbbe) compiled by 'albert@albert-system' on 2024-07-22

   xtb is free software: you can redistribute it and/or modify it under
   the terms of the GNU Lesser General Public License as published by
   the Free Software Foundation, either version 3 of the License, or
   (at your option) any later version.
   
   xtb is distributed in the hope that it will be useful,
   but WITHOUT ANY WARRANTY; without even the implied warranty of
   MERCHANTABILITY or FITNESS FOR A PARTICULAR PURPOSE.  See the
   GNU Lesser General Public License for more details.
   
   Cite this work as:
   * C. Bannwarth, E. Caldeweyher, S. Ehlert, A. Hansen, P. Pracht,
     J. Seibert, S. Spicher, S. Grimme, WIREs Comput. Mol. Sci., 2020, 11,
     e01493. DOI: 10.1002/wcms.1493
   
   for GFN2-xTB:
   * C. Bannwarth, S. Ehlert and S. Grimme., J. Chem. Theory Comput., 2019,
     15, 1652-1671. DOI: 10.1021/acs.jctc.8b01176
   for GFN1-xTB:
   * S. Grimme, C. Bannwarth, P. Shushkov, J. Chem. Theory Comput., 2017,
     13, 1989-2009. DOI: 10.1021/acs.jctc.7b00118
   for GFN0-xTB:
   * P. Pracht, E. Caldeweyher, S. Ehlert, S. Grimme, ChemRxiv, 2019, preprint.
     DOI: 10.26434/chemrxiv.8326202.v1
   for GFN-FF:
   * S. Spicher and S. Grimme, Angew. Chem. Int. Ed., 2020, 59, 15665-15673.
     DOI: 10.1002/anie.202004239
   
   for ALPB and GBSA implicit solvation:
   * S. Ehlert, M. Stahn, S. Spicher, S. Grimme, J. Chem. Theory Comput.,
     2021, 17, 4250-4261. DOI: 10.1021/acs.jctc.1c00471
   
   for ddCOSMO and CPCM-X implicit solvation:
   * M. Stahn, S. Ehlert, S. Grimme, J. Phys. Chem. A,
     2023, XX, XXXX-XXXX. DOI: 10.1021/acs.jpca.3c04382
   
   for DFT-D4:
   * E. Caldeweyher, C. Bannwarth and S. Grimme, J. Chem. Phys., 2017,
     147, 034112. DOI: 10.1063/1.4993215
   * E. Caldeweyher, S. Ehlert, A. Hansen, H. Neugebauer, S. Spicher,
     C. Bannwarth and S. Grimme, J. Chem. Phys., 2019, 150, 154122.
     DOI: 10.1063/1.5090222
   * E. Caldeweyher, J.-M. Mewes, S. Ehlert and S. Grimme, Phys. Chem. Chem. Phys.
     2020, 22, 8499-8512. DOI: 10.1039/D0CP00502A
   
   for sTDA-xTB:
   * S. Grimme and C. Bannwarth, J. Chem. Phys., 2016, 145, 054103.
     DOI: 10.1063/1.4959605
   
   in the mass-spec context:
   * V. Asgeirsson, C. Bauer and S. Grimme, Chem. Sci., 2017, 8, 4879.
     DOI: 10.1039/c7sc00601b
[...]
                        -----------------------------------------
Magnitude (a.u.)       :      0.71775
Magnitude (Debye)      :      1.82438

                                *** OPTIMIZATION RUN DONE ***

		     ------------------------------
			                   _   
			                  | |  
			  __ _  ___   __ _| |_ 
			 / _` |/ _ \ / _` | __|
			| (_| | (_) | (_| | |_ 
			 \__, |\___/ \__,_|\__|
			 __/ |                
			|___/                 

		      A Global Optimizer Algorithm
		     ------------------------------

Global parameters
-----------------
  GOAT version                               ... default
  Minimum global steps                       ... 3
  Number of base workers                     ... 4
  Split workers by                           ... 2
  Final number of workers                    ... 8
  Number of available CPUs                   ... 1
  Parameter list (worker : temperature)      ...  0 : 2903.97,  1 : 1451.98, 
                                                  2 :  725.99,  3 :  363.00, 
                                                  4 : 2903.97,  5 : 1451.98, 
                                                  6 :  725.99,  7 :  363.00 
  GradComp (mean : sigma)                    ... 1.00 : 0.50
  Number of fragments                        ... 1
  Number of atoms                            ... 19
  Flexibility parameter                      ... 0.86
  Optimizations per global step              ... 280
  Optimizations per worker                   ... 35

Filtering criteria
------------------
  RMSD                                       ... 0.125 Angs (atom. pos.)
  EnDiff                                     ... 0.100 kcal/mol
  RotConst                                   ... 1.00-2.50 %
  Maximum Conf. Energy                       ... 6.000 kcal/mol

Thermodynamics
--------------
  Ensemble temperature                       ... 298.15 K
  Degeneracy of conformers                   ... 1
  *No rotamers will be included in Gconf

------------------------------------------------------------------------------
   Iter  MinTemp     MaxEn       GradComp    NOpt   NProcs    Output
------------------------------------------------------------------------------
   0     2903.97     57.00    1.00 : 0.50      35        1    m.goat.0.0.out
   1     1451.98     57.00    1.00 : 0.50      35        1    m.goat.0.1.out
   2      725.99     57.00    1.00 : 0.50      35        1    m.goat.0.2.out
   3      363.00     57.00    1.00 : 0.50      35        1    m.goat.0.3.out
   4     2903.97     57.00    1.00 : 0.50      35        1    m.goat.0.4.out
   5     1451.98     57.00    1.00 : 0.50      35        1    m.goat.0.5.out
   6      725.99     57.00    1.00 : 0.50      35        1    m.goat.0.6.out
   7      363.00     57.00    1.00 : 0.50      35        1    m.goat.0.7.out

			     GOAT Global Iter 1
		Iter    Min En       Sconf       Gconf   
		        Hartree      cal/(molK)  kcal/mol
		=========================================

		   1    -30.030962   6.909       -1.028

   0     2903.97     57.00    1.00 : 0.50      35        1    m.goat.1.0.out
   1     1451.98     57.00    1.00 : 0.50      35        1    m.goat.1.1.out
   2      725.99     57.00    1.00 : 0.50      35        1    m.goat.1.2.out
   3      363.00     57.00    1.00 : 0.50      35        1    m.goat.1.3.out
   4     2903.97     57.00    1.00 : 0.50      35        1    m.goat.1.4.out
   5     1451.98     57.00    1.00 : 0.50      35        1    m.goat.1.5.out
   6      725.99     57.00    1.00 : 0.50      35        1    m.goat.1.6.out
   7      363.00     57.00    1.00 : 0.50      35        1    m.goat.1.7.out

			     GOAT Global Iter 2
		Iter    Min En       Sconf       Gconf   
		        Hartree      cal/(molK)  kcal/mol
		=========================================

		   1    -30.030962   6.909       -1.028
		   2    -30.030962   7.617       -1.146

   0     2903.97     57.00    1.00 : 0.50      35        1    m.goat.2.0.out
   1     1451.98     57.00    1.00 : 0.50      35        1    m.goat.2.1.out
   2      725.99     57.00    1.00 : 0.50      35        1    m.goat.2.2.out
   3      363.00     57.00    1.00 : 0.50      35        1    m.goat.2.3.out
   4     2903.97     57.00    1.00 : 0.50      35        1    m.goat.2.4.out
   5     1451.98     57.00    1.00 : 0.50      35        1    m.goat.2.5.out
   6      725.99     57.00    1.00 : 0.50      35        1    m.goat.2.6.out
   7      363.00     57.00    1.00 : 0.50      35        1    m.goat.2.7.out

			     GOAT Global Iter 3
		Iter    Min En       Sconf       Gconf   
		        Hartree      cal/(molK)  kcal/mol
		=========================================

		   1    -30.030962   6.909       -1.028
		   2    -30.030962   7.617       -1.146
		   3    -30.030962   7.785       -1.163

		Global minimum found!
		Writing structure to m.globalminimum.xyz

		# Final ensemble info #
		Conformer     Energy     Degen.   % total   % cumul.  
		              (kcal/mol)
		------------------------------------------------------
		        0     0.000	     1      14.04      14.04
		        1     0.346	     1       7.83      21.87
		        2     0.461	     1       6.45      28.32
		        3     0.718	     1       4.18      32.51
		        4     0.805	     1       3.61      36.11
		        5     0.884	     1       3.16      39.27
		        6     0.953	     1       2.81      42.08
		        7     0.957	     1       2.79      44.88
		        8     0.969	     1       2.73      47.61
		        9     0.995	     1       2.62      50.23
		       10     1.014	     1       2.54      52.76
		       11     1.180	     1       1.92      54.68
		       12     1.184	     1       1.90      56.58
		       13     1.191	     1       1.88      58.46
		       14     1.256	     1       1.68      60.15
		       15     1.289	     1       1.60      61.74
		       16     1.290	     1       1.59      63.34
		       17     1.350	     1       1.44      64.77
		       18     1.385	     1       1.36      66.13
		       19     1.426	     1       1.27      67.39
		       20     1.439	     1       1.24      68.63
		       21     1.444	     1       1.23      69.86
		       22     1.497	     1       1.12      70.98
		       23     1.541	     1       1.04      72.02
		       24     1.575	     1       0.98      73.01
		       25     1.584	     1       0.97      73.98
		       26     1.679	     1       0.83      74.80
		       27     1.693	     1       0.81      75.61
		       28     1.714	     1       0.78      76.39
		       29     1.757	     1       0.72      77.11
		       30     1.791	     1       0.68      77.79
		       31     1.817	     1       0.65      78.45
		       32     1.832	     1       0.64      79.09
		       33     1.843	     1       0.63      79.71
		       34     1.854	     1       0.61      80.33
		       35     1.873	     1       0.59      80.92
		       36     1.878	     1       0.59      81.51
		       37     1.892	     1       0.58      82.09
		       38     1.923	     1       0.55      82.63
		       39     1.931	     1       0.54      83.17
		       40     1.948	     1       0.52      83.70
		       41     1.982	     1       0.50      84.19
		       42     2.025	     1       0.46      84.65
		       43     2.027	     1       0.46      85.11
		       44     2.073	     1       0.42      85.54
		       45     2.082	     1       0.42      85.96
		       46     2.140	     1       0.38      86.33
		       47     2.149	     1       0.37      86.71
		       48     2.154	     1       0.37      87.08
		       49     2.166	     1       0.36      87.44
		       50     2.168	     1       0.36      87.80
		       51     2.183	     1       0.35      88.16
		       52     2.207	     1       0.34      88.49
		       53     2.209	     1       0.34      88.83
		       54     2.212	     1       0.34      89.17
		       55     2.254	     1       0.31      89.48
		       56     2.268	     1       0.31      89.79
		       57     2.344	     1       0.27      90.05
		       58     2.344	     1       0.27      90.32
		       59     2.345	     1       0.27      90.59
		       60     2.375	     1       0.26      90.85
		       61     2.395	     1       0.25      91.09
		       62     2.445	     1       0.23      91.32
		       63     2.456	     1       0.22      91.54
		       64     2.457	     1       0.22      91.76
		       65     2.458	     1       0.22      91.98
		       66     2.458	     1       0.22      92.21
		       67     2.464	     1       0.22      92.43
		       68     2.478	     1       0.21      92.64
		       69     2.485	     1       0.21      92.85
		       70     2.502	     1       0.21      93.06
		       71     2.511	     1       0.20      93.26
		       72     2.516	     1       0.20      93.46
		       73     2.517	     1       0.20      93.66
		       74     2.525	     1       0.20      93.86
		       75     2.575	     1       0.18      94.04
		       76     2.626	     1       0.17      94.21
		       77     2.636	     1       0.16      94.37
		       78     2.665	     1       0.16      94.53
		       79     2.683	     1       0.15      94.68
		       80     2.690	     1       0.15      94.83
		       81     2.715	     1       0.14      94.98
		       82     2.716	     1       0.14      95.12
		       83     2.731	     1       0.14      95.26
		       84     2.753	     1       0.13      95.39
		       85     2.773	     1       0.13      95.52
		       86     2.776	     1       0.13      95.65
		       87     2.823	     1       0.12      95.77
		       88     2.863	     1       0.11      95.88
		       89     2.866	     1       0.11      96.00
		       90     2.867	     1       0.11      96.11
		       91     2.871	     1       0.11      96.22
		       92     2.881	     1       0.11      96.33
		       93     2.902	     1       0.10      96.43
		       94     2.932	     1       0.10      96.53
		       95     2.938	     1       0.10      96.63
		       96     2.944	     1       0.10      96.73
		       97     2.986	     1       0.09      96.82
		       98     2.987	     1       0.09      96.91
		       99     3.007	     1       0.09      97.00
		      100     3.013	     1       0.09      97.08
		      101     3.014	     1       0.09      97.17
		      102     3.027	     1       0.08      97.26
		      103     3.054	     1       0.08      97.34
		      104     3.066	     1       0.08      97.42
		      105     3.067	     1       0.08      97.49
		      106     3.137	     1       0.07      97.57
		      107     3.152	     1       0.07      97.63
		      108     3.176	     1       0.07      97.70
		      109     3.178	     1       0.07      97.77
		      110     3.194	     1       0.06      97.83
		      111     3.199	     1       0.06      97.89
		      112     3.207	     1       0.06      97.96
		      113     3.215	     1       0.06      98.02
		      114     3.224	     1       0.06      98.08
		      115     3.234	     1       0.06      98.14
		      116     3.251	     1       0.06      98.20
		      117     3.271	     1       0.06      98.25
		      118     3.292	     1       0.05      98.31
		      119     3.311	     1       0.05      98.36
		      120     3.327	     1       0.05      98.41
		      121     3.355	     1       0.05      98.46
		      122     3.371	     1       0.05      98.51
		      123     3.375	     1       0.05      98.55
		      124     3.377	     1       0.05      98.60
		      125     3.383	     1       0.05      98.65
		      126     3.411	     1       0.04      98.69
		      127     3.413	     1       0.04      98.74
		      128     3.420	     1       0.04      98.78
		      129     3.457	     1       0.04      98.82
		      130     3.478	     1       0.04      98.86
		      131     3.486	     1       0.04      98.90
		      132     3.488	     1       0.04      98.94
		      133     3.501	     1       0.04      98.98
		      134     3.513	     1       0.04      99.01
		      135     3.540	     1       0.04      99.05
		      136     3.557	     1       0.03      99.08
		      137     3.568	     1       0.03      99.12
		      138     3.574	     1       0.03      99.15
		      139     3.617	     1       0.03      99.18
		      140     3.621	     1       0.03      99.21
		      141     3.622	     1       0.03      99.25
		      142     3.634	     1       0.03      99.28
		      143     3.641	     1       0.03      99.31
		      144     3.678	     1       0.03      99.33
		      145     3.691	     1       0.03      99.36
		      146     3.691	     1       0.03      99.39
		      147     3.694	     1       0.03      99.42
		      148     3.708	     1       0.03      99.44
		      149     3.728	     1       0.03      99.47
		      150     3.734	     1       0.03      99.50
		      151     3.775	     1       0.02      99.52
		      152     3.780	     1       0.02      99.54
		      153     3.816	     1       0.02      99.57
		      154     3.905	     1       0.02      99.59
		      155     3.955	     1       0.02      99.60
		      156     3.993	     1       0.02      99.62
		      157     4.034	     1       0.02      99.64
		      158     4.045	     1       0.02      99.65
		      159     4.049	     1       0.02      99.67
		      160     4.071	     1       0.01      99.68
		      161     4.080	     1       0.01      99.69
		      162     4.106	     1       0.01      99.71
		      163     4.121	     1       0.01      99.72
		      164     4.123	     1       0.01      99.74
		      165     4.125	     1       0.01      99.75
		      166     4.139	     1       0.01      99.76
		      167     4.155	     1       0.01      99.77
		      168     4.159	     1       0.01      99.79
		      169     4.175	     1       0.01      99.80
		      170     4.178	     1       0.01      99.81
		      171     4.234	     1       0.01      99.82
		      172     4.235	     1       0.01      99.83
		      173     4.237	     1       0.01      99.84
		      174     4.246	     1       0.01      99.85
		      175     4.300	     1       0.01      99.86
		      176     4.320	     1       0.01      99.87
		      177     4.383	     1       0.01      99.88
		      178     4.396	     1       0.01      99.89
		      179     4.401	     1       0.01      99.90
		      180     4.437	     1       0.01      99.91
		      181     4.482	     1       0.01      99.91
		      182     4.534	     1       0.01      99.92
		      183     4.555	     1       0.01      99.93
		      184     4.577	     1       0.01      99.93
		      185     4.578	     1       0.01      99.94
		      186     4.596	     1       0.01      99.95
		      187     4.629	     1       0.01      99.95
		      188     4.678	     1       0.01      99.96
		      189     4.781	     1       0.00      99.96
		      190     4.809	     1       0.00      99.97
		      191     4.840	     1       0.00      99.97
		      192     4.863	     1       0.00      99.97
		      193     4.882	     1       0.00      99.98
		      194     4.911	     1       0.00      99.98
		      195     4.993	     1       0.00      99.98
		      196     5.100	     1       0.00      99.99
		      197     5.175	     1       0.00      99.99
		      198     5.222	     1       0.00      99.99
		      199     5.224	     1       0.00      99.99
		      200     5.378	     1       0.00      99.99
		      201     5.592	     1       0.00     100.00
		      202     5.639	     1       0.00     100.00
		      203     5.644	     1       0.00     100.00
		      204     5.660	     1       0.00     100.00
		      205     5.889	     1       0.00     100.00
		      206     5.966	     1       0.00     100.00

		Conformers below 3 kcal/mol: 99
		Lowest energy conformer    : -30.030962 Eh
		Sconf at 298.15 K          :  7.79 cal/(molK)
		Gconf at 298.15 K          : -1.16 kcal/mol

		Writing final ensemble to m.finalensemble.xyz

--------------------------------
SUGGESTED CITATIONS FOR THIS RUN
--------------------------------

Below you find a list of papers that are relevant to this ORCA run
We neither can nor want to force you to cite these papers, but we appreciate if you do
You receive ORCA, which is the product of decades of hard work by many enthusiastic individuals, for free
The only thing we kindly ask in return is that you cite our papers,
We deeply appreciate it, if you show your appreciation for ORCA by not just citing the generic ORCA reference.

Please note that relegating all ORCA citations to the supporting information does *not* help us.
SI sections are not indexed - citations you put there will not count into any citation statistics
But we need these citations in order to attract the funding resources that allow us to do what we are doing

Therefore, if you are a happy ORCA user, please consider citing a few of the papers listed below in the main body of your paper

In addition to the list printed below, the program has created the file m.bibtex that contains the list in bibtex format
You can import this file easily into all common literature databanks and citation aid programs


List of essential papers. We consider these as the minimum necessary citations

  1. Bannwarth, C.; Ehlert, S.; Grimme, S.
     GFN2-xTB—An Accurate and Broadly Parametrized Self-Consistent Tight-Binding Quantum Chemical Method with Multipole Electrostatics and Density-Dependent Dispersion Contributions
     J. Chem. Theory Comput. 2019 15(3), 1652-1671
     doi.org/10.1021/acs.jctc.8b01176
  2. Neese, F.
     Software update: the ORCA program system, version 6.0
     WIRES Comput. Molec. Sci. 2025 15(1), e70019
     doi.org/10.1002/wcms.7019
  3. de Souza, B.
     GOAT: A Global Optimization Algorithm for Molecules and Atomic Clusters
     Angewandte Chemie 2025 64(18), e202500393
     doi.org/10.1002/anie.202500393

List of papers to cite with high priority. The work reported in these papers was absolutely
necessary for this run to complete.
Our perspective: the developers of density functionals and basis sets usually get cited in chemistry papers
Good! But without the algorithms to do something with them, the functionals or basis sets would not do anything.
Hence, in our opinion, the algorithm design and method developments papers are equally worthy of getting cited

  1. Bannwarth, C.; Caldeweyher, E.; Ehlert, S.; Hansen, A.; Pracht, P.; Seibert, J.; Spicher, S.; Grimme, S.
     Extended tight-binding quantum chemistry methods
     WIRES Comput. Molec. Sci. 2020 11(2), e1493
     doi.org/10.1002/wcms.1493

List of suggested additional citations. These are papers that are important in the 'surrounding' of 
of this run, or papers that preceded the highly important papers. If you like your results we are grateful for a citation.

  1. Neese, F.
     The ORCA program system
     WIRES Comput. Molec. Sci. 2012 2(1), 73-78
     doi.org/10.1002/wcms.81
  2. Neese, F.
     Software update: the ORCA program system, version 4.0
     WIRES Comput. Molec. Sci. 2018 8(1), 1-6
     doi.org/10.1002/wcms.1327
  3. Neese, F.; Wennmohs, F.; Becker, U.; Riplinger, C.
     The ORCA quantum chemistry program package
     J. Chem. Phys. 2020 152(22), 224108
     doi.org/10.1063/5.0004608
  4. Neese, F.
     Software update: The ORCA program system—Version 5.0
     WIRES Comput. Molec. Sci. 2022 12(1), e1606
     doi.org/10.1002/wcms.1606

List of optional additional citations

  1. Neese, F.
     Approximate second-order SCF convergence for spin unrestricted wavefunctions
     Chem. Phys. Lett. 2000 325(1-3), 93-98
     doi.org/10.1016/s0009-2614(00)00662-x

Timings for individual modules:

Sum of individual times          ...      771.383 sec (=  12.856 min)
Geometry relaxation              ...        0.023 sec (=   0.000 min)   0.0 %
GOAT                             ...      771.059 sec (=  12.851 min) 100.0 %
XTB module                       ...        0.301 sec (=   0.005 min)   0.0 %
                             ****ORCA TERMINATED NORMALLY****
TOTAL RUN TIME: 0 days 0 hours 12 minutes 51 seconds 449 msec
