
                                 *****************
                                 * O   R   C   A *
                                 *****************

                                            #,                                       
                                            ###                                      
                                            ####                                     
                                            #####                                    
                                            ######                                   
                                           ########,                                 
                                     ,,################,,,,,                         
                               ,,#################################,,                 
                          ,,##########################################,,             
                       ,#########################################, ''#####,          
                    ,#############################################,,   '####,        
                  ,##################################################,,,,####,       
                ,###########''''           ''''###############################       
              ,#####''   ,,,,##########,,,,          '''####'''          '####       
            ,##' ,,,,###########################,,,                        '##       
           ' ,,###''''                  '''############,,,                           
         ,,##''                                '''############,,,,        ,,,,,,###''
      ,#''                                            '''#######################'''  
     '                                                          ''''####''''         
             ,#######,   #######,   ,#######,      ##                                
            ,#'     '#,  ##    ##  ,#'     '#,    #''#        ,####,    ,#,          
            ##       ##  ##   ,#'  ##            #'  '#       #'       ,# #          
            ##       ##  #######   ##           ,######,      #####,      #          
            '#,     ,#'  ##    ##  '#,     ,#' ,#      #,     #,   #      #          
             '#######'   ##     ##  '#######'  #'      '#     '####' #    #          



                #########################################################
                #                        -***-                          #
                #          Department of theory and spectroscopy        #
                #                                                       #
                #                      Frank Neese                      #
                #                                                       #
                #     Directorship, Architecture, Infrastructure        #
                #                    SHARK, DRIVERS                     #
                #        Core code/Algorithms in most modules           #
                #                                                       #
                #        Max Planck Institute fuer Kohlenforschung      #
                #                Kaiser Wilhelm Platz 1                 #
                #                 D-45470 Muelheim/Ruhr                 #
                #                      Germany                          #
                #                                                       #
                #                  All rights reserved                  #
                #                        -***-                          #
                #########################################################


                         Program Version 6.1.0  -  RELEASE   -
                                (GIT: $679e74b$)
                          ($2025-06-10 18:02:51 +0200$)


 With contributions from (in alphabetic order):
[Max-Planck-Institut fuer Kohlenforschung]                               
  Daniel Aravena         : Magnetic Suceptibility                        
  Michael Atanasov       : Ab Initio Ligand Field Theory (pilot matlab implementation)
  Alexander A. Auer      : GIAO ZORA, VPT2 properties, NMR spectrum      
  Ute Becker             : All parallelization in ORCA, NUMFREQ, NUMCALC 
  Giovanni Bistoni       : ED, misc. LED, open-shell LED, HFLD           
  Dmytro Bykov           : pre 5.0 version of the SCF Hessian            
  Marcos Casanova-Páez   : Triplet and SCS-CIS(D). UHF-(DLPNO)-IP/EA/STEOM-CCSD. UHF-CVS-IP/STEOM-CCSD   
  Vijay G. Chilkuri      : MRCI spin determinant printing, contributions to CSF-ICE 
  Pauline Colinet        : FMM embedding                                 
  Dipayan Datta          : RHF DLPNO-CCSD density                        
  Achintya Kumar Dutta   : EOM-CC, STEOM-CC                              
  Nicolas Foglia         : Exact transition moments, OPA infrastructure, MCD improvements    
  Dmitry Ganyushin       : Spin-Orbit,Spin-Spin,Magnetic field MRCI      
  Miquel Garcia-Rates    : C-PCM and meta-GGA Hessian, CCSD/C-PCM, Gaussian charge scheme 
  Tiago L. C. Gouveia    : GS-ROHF, GS-ROCIS                             
  Yang Guo               : DLPNO-NEVPT2, F12-NEVPT2, CIM, IAO-localization        
  Andreas Hansen         : Spin unrestricted coupled pair/coupled cluster methods 
  Ingolf Harden          : AUTO-CI MPn and infrastructure                
  Benjamin Helmich-Paris : MC-RPA, TRAH-(SCF,CASSCF), AVAS, COSX integrals, SCF dyn. polar., MC-PDFT, srDFT 
  Lee Huntington         : MR-EOM, pCC                                   
  Robert Izsak           : Overlap fitted RIJCOSX, COSX-SCS-MP3, EOM     
  Riya Kayal             : Wick's Theorem for AUTO-CI, AUTO-CI UHF-CCSDT 
  Emily Kempfer          : AUTO-CI RHF CISDT and CCSDT, approximate NEVPT4
  Christian Kollmar      : KDIIS, OOCD, Brueckner-CCSD(T), CCSD density, CASPT2, CASPT2-K, improved NEVPT2 
  Axel Koslowski         : Symmetry handling                             
  Simone Kossmann        : meta-GGA functionals, TD-DFT gradient, OOMP2, (MP2 Hessian; deprecated post 5.0) 
  Lucas Lang             : DCDCAS, Hyperfine gauge corrections, ICE-SOC+SSC
  Marvin Lechner         : AUTO-CI (C++ implementation), FIC-MRCC        
  Spencer Leger          : CASSCF response                               
  Dagmar Lenk            : GEPOL surface, SMD, ORCA-2-JSON               
  Dimitrios Liakos       : Extrapolation schemes; Compound Job, Property file
  Dimitrios Manganas     : Further ROCIS development; embedding schemes. LFT, Crystal Embedding 
  Dimitrios Pantazis     : SARC Basis sets                               
  Anastasios Papadopoulos: AUTO-CI, single reference methods and gradients 
  Taras Petrenko         : pre 6.0 DFT Hessian and TD-DFT gradient,  ECA, NRVS 
  Petra Pikulova         : Analytic Raman intensities                    
  Peter Pinski           : DLPNO-MP2, DLPNO-MP2 Gradient                 
  Shashank Vittal Rao    : ES-AILFT, MagRelax                            
  Christoph Reimann      : Effective Core Potentials                     
  Marius Retegan         : Local ZFS, SOC                                
  Christoph Riplinger    : Optimizer, TS searches, QM/MM, DLPNO-CCSD(T), (RO)-DLPNO pert. Triples 
  Michael Roemelt        : Original ROCIS implementation, recursive CI coupling coefficients
  Masaaki Saitow         : Open-shell DLPNO-CCSD energy and density      
  Barbara Sandhoefer     : DKH picture change effects                    
  Yorick L. A. Schmerwitz: GMF and freeze-and-release deltaSCF, NEB S-IDPP initial path                    
  Kantharuban Sivalingam : CASSCF convergence/infrastructure, NEVPT2, NEVPT3, NEVPT4(SD), FIC-MRCI and CEPA variants
  Bernardo de Souza      : ESD, SOC TD-DFT                               
  Georgi L. Stoychev     : AutoAux, RI-MP2 NMR, DLPNO-MP2 response, X2C  
  Van Anh Tran           : RI-MP2 g-tensors                              
  Willem Van den Heuvel  : Paramagnetic NMR                              
  Zikuan Wang            : NOTCH, Electric field optimization            
  Frank Wennmohs         : Technical directorship and infrastructure     
  Hang Xu                : AUTO-CI-Response properties                   
                                                                         
[FACCTs GmbH]                                                            
  Markus Bursch, Nicolas Foglia, Miquel Garcia-Rates, Ingolf Harden, Hagen Neugebauer, Anastasios Papadopoulos, 
  Christoph Riplinger, Bernardo de Souza, Georgi L. Stoychev                                                    
                                                                 
  APM, various basis sets, CI-OPT, improved COSX, DLPNO-Multilevel,           
  DOCKER, DRACO, updates on ESD, Fragmentator, GOAT, IRC, LR-CPCM, L-BFGS, MBIS, meta-GGA TD-DFT gradient, ML-optimized integration grids, 
  MM, NACMEs, nearIR, NEB, NEB-TS, NL-DFT gradient (VV10), 2- and 3-layer-ONIOM, interface openCOSMO-RS, QMMM,   
  Crystal-QMMM, RESP, rigid body optimization, SF, symmetry and pop. for TD-DFT, various functionals, SOLVATOR                                   
                                                                         
[Other institutions]                                                     
  V. Asgeirsson          : NEB                                           
  Christoph Bannwarth    : sTDA-DFT, sTD-DFT, PBEh-3c, B97-3c, D3        
  Giovanni Bistoni       : ETS/NOCV, ADLD/ADEX, COVALED                  
  Martin Brehm           : Molecular dynamics                            
  Ronald Cardenas        : ETS/NOCV                                      
  Martina Colucci        : COVALED                                       
  Sebastian Ehlert       : rSCAN, r2SCAN, r2SCAN-3c, D4, dhf basis sets  
  Marvin Friede          : D4 for Fr, Ra, Ac-Lr                          
  Lars Goerigk           : TD-DFT with DH, B97 family of functionals     
  Stefan Grimme          : VdW corrections, initial TS optimization, DFT functionals, gCP, sTDA/sTD-DF 
  Waldemar Hujo          : DFT-NL                                        
  H. Jonsson             : NEB                                           
  Holger Kruse           : gCP                                           
  Marcel Mueller         : wB97X-3c, vDZP basis set                      
  Hagen Neugebauer       : wr2SCAN, Native XTB                           
  Gianluca Regni         : ADLD/ADEX                                     
  Tobias Risthaus        : pre 6.0 range-separated hybrid DFT and stability analysis
  Lukas Wittmann         : regularized MP2, r2SCAN double-hybrids, wr2SCAN        
                                                                         
We gratefully acknowledge several colleagues who have allowed us to      
interface, adapt or use parts of their codes:                            
  Ed Valeev, F. Pavosevic, A. Kumar             : LibInt (2-el integral package), F12 methods 
  Garnet Chan, S. Sharma, J. Yang, R. Olivares  : DMRG                   
  Ulf Ekstrom                                   : XCFun DFT Library      
  Mihaly Kallay                                 : mrcc  (arbitrary order and MRCC methods)
  Frank Weinhold                                : gennbo (NPA and NBO analysis)           
  Simon Mueller                                 : openCOSMO-RS                            
  Christopher J. Cramer and Donald G. Truhlar   : smd solvation model                     
  S Lehtola, MJT Oliveira, MAL Marques          : LibXC Library                           
  Liviu Ungur et al                             : ANISO software                          


 Your calculation uses the libint2 library for the computation of 2-el integrals
 For citations please refer to: http://libint.valeyev.net

 Your ORCA version has been built with support for libXC version: 7.0.0
 For citations please refer to: https://libxc.gitlab.io

 This ORCA versions uses:
   CBLAS   interface :  Fast vector & matrix operations
   LAPACKE interface :  Fast linear algebra routines
   SCALAPACK package :  Parallel linear algebra routines
   Shared memory     :  Shared parallel matrices
   BLAS/LAPACK       :  OpenBLAS 0.3.29  USE64BITINT DYNAMIC_ARCH NO_AFFINITY Haswell SINGLE_THREADED
        Core in use  :  Haswell
   Copyright (c) 2011-2014, The OpenBLAS Project


  ***********************************
  * Starting time: Thu Aug 14 12:17:43 2025
  * Host name:     CHEMLAB02
  * Process ID:    1770313
  * Working dir.:  /home/vivek/mm-project/vivek/MP2/k/3
  ***********************************



***************************************
The coordinates will be read from file: /home/vivek/mm-project/vivek/xtb-goat/k/K_CONF/3.xyz
***************************************


================================================================================

----- Orbital basis set information -----
Your calculation utilizes the basis: 6-31G**
   H-He, Li-Ne : W. J. Hehre, R. Ditchfield and J.A. Pople, J. Chem. Phys. 56, 2257 (1972).
                 Note: He and Ne are unpublished basis sets taken from the Gaussian program.
                 Note: Li and B from J. D. Dill and J. A. Pople, J. Chem. Phys. 62, 2921 (1975).
   Na - Ar     : M. M. Francl, W. J. Pietro, W. J. Hehre, J. S. Binkley, M. S. Gordon, 
                 D. J. DeFrees and J. A. Pople, J. Chem. Phys. 77, 3654 (1982).
   K - Zn      : V. A. Rassolov, J. A. Pople, M. A. Ratner, and T. L. Windus, J. Chem. Phys. 109, 1223 (1998).

================================================================================
                                        WARNINGS
                       Please study these warnings very carefully!
================================================================================


WARNING: No MP2 level density has been requested!
         To calculate MP2 level properties use
         %mp2 Density relaxed end
         or
         %mp2 Density unrelaxed end

WARNING: Post HF methods need fully converged wavefunctions
  ===> : Setting SCFConvForced true
         You can overwrite this default with %scf ConvForced false 


================================================================================
                                       INPUT FILE
================================================================================
NAME = 3.inp
|  1> ! MP2 6-31G** 
|  2> 
|  3> * xyzfile 0 1 /home/vivek/mm-project/vivek/xtb-goat/k/K_CONF/3.xyz
|  4> 
|  5>                          ****END OF INPUT****
================================================================================

                       ****************************
                       * Single Point Calculation *
                       ****************************

---------------------------------
CARTESIAN COORDINATES (ANGSTROEM)
---------------------------------
  C    -14.040634    6.629333    0.526250
  C    -12.611153    6.314679    0.987139
  H    -15.021306    6.171635    2.251401
  H    -14.947894    4.932294    1.187277
  N    -15.080746    5.935721    1.265711
  C    -11.570825    7.059091    0.156865
  H    -12.504165    6.598505    2.037987
  H    -12.427836    5.242023    0.909857
  C    -10.131168    6.741866    0.562073
  H    -11.708060    6.814685   -0.898369
  H    -11.729484    8.134713    0.268836
  C     -9.680265    5.323643    0.169754
  H     -9.464559    7.451888    0.068822
  H    -10.018662    6.859196    1.642132
  C     -8.159147    5.256606    0.269396
  H     -6.580061    5.933770   -0.560222
  N    -10.314330    4.312333    0.992436
  O     -7.543810    5.993521   -0.661461
  H    -14.232218    7.702656    0.619245
  H    -14.153070    6.358719   -0.527412
  H    -10.018771    4.430732    1.957258
  O     -7.561468    4.612665    1.091206
  H     -9.953529    5.144727   -0.876608
  H    -10.009093    3.388376    0.703492

----------------------------
CARTESIAN COORDINATES (A.U.)
----------------------------
  NO LB      ZA    FRAG     MASS         X           Y           Z
   0 C     6.0000    0    12.011  -26.532952   12.527624    0.994469
   1 C     6.0000    0    12.011  -23.831625   11.933013    1.865422
   2 H     1.0000    0     1.008  -28.386155   11.662700    4.254531
   3 H     1.0000    0     1.008  -28.247425    9.320686    2.243629
   4 N     7.0000    0    14.007  -28.498480   11.216888    2.391847
   5 C     6.0000    0    12.011  -21.865690   13.339749    0.296432
   6 H     1.0000    0     1.008  -23.629447   12.469367    3.851237
   7 H     1.0000    0     1.008  -23.485207    9.905988    1.719381
   8 C     6.0000    0    12.011  -19.145134   12.740281    1.062165
   9 H     1.0000    0     1.008  -22.125026   12.877887   -1.697671
  10 H     1.0000    0     1.008  -22.165513   15.372380    0.508026
  11 C     6.0000    0    12.011  -18.293050   10.060228    0.320790
  12 H     1.0000    0     1.008  -17.885424   14.082028    0.130055
  13 H     1.0000    0     1.008  -18.932527   12.962003    3.103180
  14 C     6.0000    0    12.011  -15.418554    9.933546    0.509084
  15 H     1.0000    0     1.008  -12.434513   11.213200   -1.058666
  16 N     7.0000    0    14.007  -19.491259    8.149129    1.875433
  17 O     8.0000    0    15.999  -14.255735   11.326112   -1.249980
  18 H     1.0000    0     1.008  -26.894994   14.555910    1.170204
  19 H     1.0000    0     1.008  -26.745427   12.016238   -0.996664
  20 H     1.0000    0     1.008  -18.932734    8.372871    3.698682
  21 O     8.0000    0    15.999  -14.289104    8.716674    2.062080
  22 H     1.0000    0     1.008  -18.809444    9.722125   -1.656548
  23 H     1.0000    0     1.008  -18.914444    6.403103    1.329408

--------------------------------
INTERNAL COORDINATES (ANGSTROEM)
--------------------------------
 C      0   0   0     0.000000000000     0.00000000     0.00000000
 C      1   0   0     1.534549375138     0.00000000     0.00000000
 H      1   2   0     2.036504520987    98.51506760     0.00000000
 H      3   1   2     1.635149204855    66.26163861   266.33762933
 N      4   3   1     1.015217940538    36.36195713   320.34657122
 C      2   1   3     1.525052769986   111.82985523   203.12025770
 H      2   1   3     1.093748453501   109.05475944   324.05666405
 H      2   1   3     1.090948047367   109.68579208    81.97897345
 C      6   2   1     1.528867583527   113.37705581   181.55236488
 H      6   2   1     1.091826864165   109.33962648   303.59099486
 H      6   2   1     1.093011161404   108.99973705    60.86771327
 C      9   6   2     1.539020648723   113.54860442    71.30668221
 H      9   6   2     1.091694000195   108.68050065   191.23141376
 H      9   6   2     1.092222838352   109.68164987   309.46009698
 C     12   9   6     1.525851176307   108.41583838   164.69707269
 H     15  12   9     1.907965009521   141.35900724   291.84853188
 N     12   9   6     1.449686713741   111.71843107   288.09735962
 O     16  15  12     0.970892524271    41.03077801   359.07195551
 H      1   2   3     1.094246074890   109.79752855    97.05553071
 H      1   2   3     1.093653611461   109.53551124   215.31548963
 H     17  12   9     1.015999196615   109.29141277   296.15278594
 O     15  12   9     1.203017970266   124.29137151   111.45300913
 H     12   9   6     1.096155979579   108.70570455    47.91079340
 H     17  12   9     1.015064270647   109.99448601   179.21016137

---------------------------
INTERNAL COORDINATES (A.U.)
---------------------------
 C      0   0   0     0.000000000000     0.00000000     0.00000000
 C      1   0   0     2.899878057990     0.00000000     0.00000000
 H      1   2   0     3.848435815158    98.51506760     0.00000000
 H      3   1   2     3.089984185275    66.26163861   266.33762933
 N      4   3   1     1.918483873860    36.36195713   320.34657122
 C      2   1   3     2.881932075052   111.82985523   203.12025770
 H      2   1   3     2.066885036517   109.05475944   324.05666405
 H      2   1   3     2.061593035860   109.68579208    81.97897345
 C      6   2   1     2.889141027895   113.37705581   181.55236488
 H      6   2   1     2.063253758929   109.33962648   303.59099486
 H      6   2   1     2.065491756373   108.99973705    60.86771327
 C      9   6   2     2.908327540536   113.54860442    71.30668221
 H      9   6   2     2.063002682414   108.68050065   191.23141376
 H      9   6   2     2.064002041699   109.68164987   309.46009698
 C     12   9   6     2.883440844341   108.41583838   164.69707269
 H     15  12   9     3.605531341098   141.35900724   291.84853188
 N     12   9   6     2.739510868955   111.71843107   288.09735962
 O     16  15  12     1.834720976344    41.03077801   359.07195551
 H      1   2   3     2.067825404661   109.79752855    97.05553071
 H      1   2   3     2.066705811035   109.53551124   215.31548963
 H     17  12   9     1.919960233887   109.29141277   296.15278594
 O     15  12   9     2.273374497989   124.29137151   111.45300913
 H     12   9   6     2.071434601464   108.70570455    47.91079340
 H     17  12   9     1.918193479852   109.99448601   179.21016137

---------------------
BASIS SET INFORMATION
---------------------
There are 4 groups of distinct atoms

 Group   1 Type C   : 10s4p1d contracted to 3s2p1d pattern {631/31/1}
 Group   2 Type H   : 4s1p contracted to 2s1p pattern {31/1}
 Group   3 Type N   : 10s4p1d contracted to 3s2p1d pattern {631/31/1}
 Group   4 Type O   : 10s4p1d contracted to 3s2p1d pattern {631/31/1}

Atom   0C    basis set group =>   1
Atom   1C    basis set group =>   1
Atom   2H    basis set group =>   2
Atom   3H    basis set group =>   2
Atom   4N    basis set group =>   3
Atom   5C    basis set group =>   1
Atom   6H    basis set group =>   2
Atom   7H    basis set group =>   2
Atom   8C    basis set group =>   1
Atom   9H    basis set group =>   2
Atom  10H    basis set group =>   2
Atom  11C    basis set group =>   1
Atom  12H    basis set group =>   2
Atom  13H    basis set group =>   2
Atom  14C    basis set group =>   1
Atom  15H    basis set group =>   2
Atom  16N    basis set group =>   3
Atom  17O    basis set group =>   4
Atom  18H    basis set group =>   2
Atom  19H    basis set group =>   2
Atom  20H    basis set group =>   2
Atom  21O    basis set group =>   4
Atom  22H    basis set group =>   2
Atom  23H    basis set group =>   2
------------------------------------------------------------------------------
                             ORCA STARTUP CALCULATIONS
------------------------------------------------------------------------------
------------------------------------------------------------------------------
                   ___                                                        
                  /   \      - P O W E R E D   B Y -                         
                 /     \                                                     
                 |  |  |   _    _      __       _____    __    __             
                 |  |  |  | |  | |    /  \     |  _  \  |  |  /  |          
                  \  \/   | |  | |   /    \    | | | |  |  | /  /          
                 / \  \   | |__| |  /  /\  \   | |_| |  |  |/  /          
                |  |  |   |  __  | /  /__\  \  |    /   |      \           
                |  |  |   | |  | | |   __   |  |    \   |  |\   \          
                \     /   | |  | | |  |  |  |  | |\  \  |  | \   \       
                 \___/    |_|  |_| |__|  |__|  |_| \__\ |__|  \__/        
                                                                              
                      - O R C A' S   B I G   F R I E N D -                    
                                      &                                       
                       - I N T E G R A L  F E E D E R -                       
                                                                              
 v1 FN, 2020, v2 2021, v3 2022-2024                                           
------------------------------------------------------------------------------


----------------------
SHARK INTEGRAL PACKAGE
----------------------

Number of atoms                             ...     24
Number of basis functions                   ...    210
Number of shells                            ...    102
Maximum angular momentum                    ...      2
Integral batch strategy                     ... SHARK/LIBINT Hybrid
RI-J (if used) integral strategy            ... SPLIT-RIJ (Revised 2003 algorithm where possible)
Printlevel                                  ...      1
Contraction scheme used                     ... SEGMENTED contraction
Prescreening option                         ... SCHWARTZ
   Thresh                                   ... 1.000e-10
   Tcut                                     ... 1.000e-11
   Tpresel                                  ... 1.000e-11 
Coulomb Range Separation                    ... NOT USED
Exchange Range Separation                   ... NOT USED
Multipole approximations                    ... NOT USED
Finite Nucleus Model                        ... NOT USED
CABS basis                                  ... NOT available
Auxiliary Coulomb fitting basis             ... NOT available
Auxiliary J/K fitting basis                 ... NOT available
Auxiliary Correlation fitting basis         ... NOT available
Auxiliary 'external' fitting basis          ... NOT available

Checking pre-screening integrals            ... done (  0.0 sec) Dimension = 102
   => SHARK Basis and OBASIS are compatible. Storing Pre-screening
Shell pair information
Shell pair cut-off parameter TPreSel        ...   1.0e-11
Total number of shell pairs                 ...      5253
Shell pairs after pre-screening             ...      4311
Total number of primitive shell pairs       ...     24562
Primitive shell pairs kept                  ...     13133
          la=0 lb=0:   1433 shell pairs
          la=1 lb=0:   1620 shell pairs
          la=1 lb=1:    483 shell pairs
          la=2 lb=0:    465 shell pairs
          la=2 lb=1:    267 shell pairs
          la=2 lb=2:     43 shell pairs

Checking whether 4 symmetric matrices of dimension 210 fit in memory
:Max Core in MB      =   4096.00
 MB in use           =      6.92
 MB left             =   4089.08
 MB needed           =      0.68
 Data fit in memory  = YES
Calculating Nuclear repulsion               ... done (  0.0 sec) ENN=    554.619204621755 Eh

Diagonalization of the overlap matrix:
Smallest eigenvalue                        ... 2.758e-03
Time for diagonalization                   ...    0.002 sec
Threshold for overlap eigenvalues          ... 1.000e-07
Number of eigenvalues below threshold      ... 0
Time for construction of square roots      ...    0.001 sec
Total time needed                          ...    0.003 sec

-------------------
DFT GRID GENERATION
-------------------

General Integration Accuracy     IntAcc      ... 4.388
Radial Grid Type                 RadialGrid  ... OptM3 with GC (2021)
Angular Grid (max. ang.)         AngularGrid ... 4 (Lebedev-302)
Angular grid pruning method      GridPruning ... 4 (adaptive)
Weight generation scheme         WeightScheme... mBecke (2022)
Basis function cutoff            BFCut       ... 1.0000e-10
Integration weight cutoff        WCut        ... 1.0000e-14
Partially contracted basis set               ... off
Rotationally invariant grid construction     ... off
Angular grids for H and He will be reduced by one unit

Total number of grid points                  ...   104814
Total number of batches                      ...     1649
Average number of points per batch           ...       63
Average number of grid points per atom       ...     4367
Grids setup in   0.4 sec
Initializing property integral containers    ... done (  0.0 sec)

SHARK setup successfully completed in   0.5 seconds

Maximum memory used throughout the entire STARTUP-calculation: 41.8 MB
-------------------------------------------------------------------------------
                                 ORCA GUESS
                   Start orbitals & Density for SCF / CASSCF
-------------------------------------------------------------------------------

------------
SCF SETTINGS
------------
Hamiltonian:
 Ab initio Hamiltonian  Method          .... Hartree-Fock(GTOs)


General Settings:
 Integral files         IntName         .... 3
 Hartree-Fock type      HFTyp           .... RHF
 Total Charge           Charge          ....    0
 Multiplicity           Mult            ....    1
 Number of Electrons    NEL             ....   80
 Basis Dimension        Dim             ....  210
 Nuclear Repulsion      ENuc            ....    554.6192046218 Eh

Convergence Acceleration:
 AO-DIIS                CNVDIIS         .... on
   Start iteration      DIISMaxIt       ....    12
   Startup error        DIISStart       ....  0.200000
   # of expansion vecs  DIISMaxEq       ....     5
   Bias factor          DIISBfac        ....   1.050
   Max. coefficient     DIISMaxC        ....  10.000
 MO-DIIS                CNVKDIIS        .... off
 Trust-Rad. Augm. Hess. CNVTRAH         .... auto
   Auto Start mean grad. ratio tolernc. ....  1.125000
   Auto Start start iteration           ....    50
   Auto Start num. interpolation iter.  ....    10
   Max. Number of Micro iterations      ....    24
   Max. Number of Macro iterations      .... Maxiter - #DIIS iter
   Number of Davidson start vectors     ....     2
   Converg. threshold    (grad. norm)   ....   5.000e-05
   Grad. Scal. Fac. for Micro threshold ....   0.100
   Minimum threshold for Micro iter.    ....   1.000e-02
   NR start threshold (gradient norm)   ....   1.000e-04
   Initial trust radius                 ....   0.400
   Minimum AH scaling param. (alpha)    ....   1.000
   Maximum AH scaling param. (alpha)    .... 1000.000
   Quad. conv. algorithm                .... NR
   White noise on init. David. guess    .... on
   Maximum white noise                  ....   0.010
   Pseudo random numbers                .... off
   Inactive MOs                         .... canonical
   Orbital update algorithm             .... Taylor
   Preconditioner                       .... Diag
   Full preconditioner red. dimension   ....   250
 SOSCF                 CNVSOSCF           .... on
   Start iteration     SOSCFMaxIt         ....   150
   Startup grad/error  SOSCFStart         ....  0.003300
   Hessian update      SOSCFHessUp        .... L-BFGS
   Autom. constraints  SOSCFAutoConstrain .... off
 Level Shifting         CNVShift        .... on
   Level shift para.    LevelShift      ....    0.2500
   Turn off err/grad.   ShiftErr        ....    0.0010
 Zerner damping         CNVZerner       .... off
 Static damping         CNVDamp         .... on
   Fraction old density DampFac         ....    0.7000
   Max. Damping (<1)    DampMax         ....    0.9800
   Min. Damping (>=0)   DampMin         ....    0.0000
   Turn off err/grad.   DampErr         ....    0.1000

SCF Procedure:
 Maximum # iterations   MaxIter         ....   125
 SCF integral mode      SCFMode         .... Direct
   Integral package                     .... SHARK and LIBINT hybrid scheme
 Reset frequency        DirectResetFreq ....    20
 Integral Threshold     Thresh          ....  1.000e-10 Eh
 Primitive CutOff       TCut            ....  1.000e-11 Eh

Convergence Tolerance:
 Convergence Check Mode ConvCheckMode   .... Total+1el-Energy
 Convergence forced     ConvForced      .... 1
 Energy Change          TolE            ....  1.000e-06 Eh
 1-El. energy change                    ....  1.000e-03 Eh
 Orbital Gradient       TolG            ....  5.000e-05
 Orbital Rotation angle TolX            ....  5.000e-05
 DIIS Error             TolErr          ....  1.000e-06

------------------------------
INITIAL GUESS: MODEL POTENTIAL
------------------------------
Loading Hartree-Fock densities                     ... done
Calculating cut-offs                               ... done
Initializing the effective Hamiltonian             ... done
Setting up the integral package (SHARK)            ... done
Starting the Coulomb interaction                   ... done (   0.1 sec)
Making the grid                                    ... done (   0.1 sec)
Mapping shells                                     ... done
Starting the XC term evaluation                    ... done (   0.0 sec)
Transforming the Hamiltonian                       ... done (   0.0 sec)
Diagonalizing the Hamiltonian                      ... done (   0.0 sec)
Back transforming the eigenvectors                 ... done (   0.0 sec)
Now organizing SCF variables                       ... done
                      ------------------
                      INITIAL GUESS DONE (   0.3 sec)
                      ------------------
             **** ENERGY FILE WAS UPDATED (3.en.tmp) ****
Finished Guess after   0.3 sec
Maximum memory used throughout the entire GUESS-calculation: 12.4 MB

-------------------------------------------------------------------------------------------
                                      ORCA LEAN-SCF
                              memory conserving SCF solver
-------------------------------------------------------------------------------------------

----------------------------------------D-I-I-S--------------------------------------------
Iteration    Energy (Eh)           Delta-E    RMSDP     MaxDP     DIISErr   Damp  Time(sec)
-------------------------------------------------------------------------------------------
               ***  Starting incremental Fock matrix formation  ***
    1    -493.5117900759620397     0.00e+00  2.43e-03  6.40e-02  2.51e-01  0.700   2.2
    2    -493.6944527631263782    -1.83e-01  1.84e-03  4.78e-02  1.57e-01  0.700   2.0
                               ***Turning on AO-DIIS***
    3    -493.8009754753962852    -1.07e-01  9.70e-04  2.11e-02  9.21e-02  0.700   2.0
    4    -493.8677813749853840    -6.68e-02  2.17e-03  4.47e-02  6.31e-02  0.000   2.0
    5    -494.0154687144221271    -1.48e-01  2.49e-04  5.24e-03  5.59e-03  0.000   2.0
    6    -494.0160215403158190    -5.53e-04  1.26e-04  3.40e-03  3.31e-03  0.000   1.9
                              *** Initializing SOSCF ***
---------------------------------------S-O-S-C-F--------------------------------------
Iteration    Energy (Eh)           Delta-E    RMSDP     MaxDP     MaxGrad    Time(sec)
--------------------------------------------------------------------------------------
    7    -494.0161388889445107    -1.17e-04  6.78e-05  1.83e-03  1.89e-03     1.8
               *** Restarting incremental Fock matrix formation ***
    8    -494.0161719568733361    -3.31e-05  3.47e-05  9.58e-04  5.61e-04     2.2
    9    -494.0161795088473582    -7.55e-06  3.60e-05  9.79e-04  3.64e-04     1.6
   10    -494.0161822106439331    -2.70e-06  6.93e-06  2.63e-04  1.15e-04     1.6
   11    -494.0161824610646590    -2.50e-07  2.41e-06  7.29e-05  4.07e-05     1.4
                 **** Energy Check signals convergence ****

               *****************************************************
               *                     SUCCESS                       *
               *           SCF CONVERGED AFTER  11 CYCLES          *
               *****************************************************

             **** ENERGY FILE WAS UPDATED (3.en.tmp) ****

----------------
TOTAL SCF ENERGY
----------------

Total Energy       :       -494.01618248939565 Eh          -13442.86375 eV

Components:
Nuclear Repulsion  :        554.61920462175465 Eh           15091.95582 eV
Electronic Energy  :      -1048.63538711115029 Eh          -28534.81957 eV
One Electron Energy:      -1774.33191569604310 Eh          -48282.02604 eV
Two Electron Energy:        725.69652858489280 Eh           19747.20647 eV

Virial components:
Potential Energy   :       -987.56465266186717 Eh          -26873.00040 eV
Kinetic Energy     :        493.54847017247153 Eh           13430.13665 eV
Virial Ratio       :          2.00094765224733

---------------
SCF CONVERGENCE
---------------

  Last Energy change         ...    2.5042e-07  Tolerance :   1.0000e-06
  Last MAX-Density change    ...    7.2887e-05  Tolerance :   1.0000e-05
  Last RMS-Density change    ...    2.4120e-06  Tolerance :   1.0000e-06
  Last DIIS Error            ...    1.8918e-03  Tolerance :   1.0000e-06
  Last Orbital Gradient      ...    4.0721e-05  Tolerance :   5.0000e-05
  Last Orbital Rotation      ...    3.8746e-05  Tolerance :   5.0000e-05


----------------
ORBITAL ENERGIES
----------------

  NO   OCC          E(Eh)            E(eV) 
   0   2.0000     -20.620988      -561.1256 
   1   2.0000     -20.557029      -559.3852 
   2   2.0000     -15.551241      -423.1708 
   3   2.0000     -15.528926      -422.5636 
   4   2.0000     -11.384660      -309.7924 
   5   2.0000     -11.277528      -306.8771 
   6   2.0000     -11.234746      -305.7130 
   7   2.0000     -11.232705      -305.6574 
   8   2.0000     -11.219888      -305.3087 
   9   2.0000     -11.200948      -304.7933 
  10   2.0000      -1.471809       -40.0500 
  11   2.0000      -1.365577       -37.1592 
  12   2.0000      -1.202508       -32.7219 
  13   2.0000      -1.169381       -31.8205 
  14   2.0000      -1.070537       -29.1308 
  15   2.0000      -1.000061       -27.2131 
  16   2.0000      -0.926333       -25.2068 
  17   2.0000      -0.844902       -22.9909 
  18   2.0000      -0.806455       -21.9448 
  19   2.0000      -0.788150       -21.4466 
  20   2.0000      -0.709772       -19.3139 
  21   2.0000      -0.703296       -19.1376 
  22   2.0000      -0.675191       -18.3729 
  23   2.0000      -0.666689       -18.1415 
  24   2.0000      -0.637221       -17.3397 
  25   2.0000      -0.620240       -16.8776 
  26   2.0000      -0.604289       -16.4436 
  27   2.0000      -0.583594       -15.8804 
  28   2.0000      -0.577939       -15.7265 
  29   2.0000      -0.563879       -15.3439 
  30   2.0000      -0.527883       -14.3644 
  31   2.0000      -0.518585       -14.1114 
  32   2.0000      -0.503740       -13.7075 
  33   2.0000      -0.489807       -13.3283 
  34   2.0000      -0.481531       -13.1031 
  35   2.0000      -0.468455       -12.7473 
  36   2.0000      -0.466330       -12.6895 
  37   2.0000      -0.450885       -12.2692 
  38   2.0000      -0.398098       -10.8328 
  39   2.0000      -0.367635       -10.0039 
  40   0.0000       0.181132         4.9288 
  41   0.0000       0.215504         5.8642 
  42   0.0000       0.228997         6.2313 
  43   0.0000       0.233402         6.3512 
  44   0.0000       0.248799         6.7702 
  45   0.0000       0.254786         6.9331 
  46   0.0000       0.287728         7.8295 
  47   0.0000       0.295489         8.0407 
  48   0.0000       0.306285         8.3344 
  49   0.0000       0.321927         8.7601 
  50   0.0000       0.336973         9.1695 
*Only the first 10 virtual orbitals were printed.

                    ********************************
                    * MULLIKEN POPULATION ANALYSIS *
                    ********************************

-----------------------
MULLIKEN ATOMIC CHARGES
-----------------------
   0 C :   -0.021390
   1 C :   -0.230838
   2 H :    0.256275
   3 H :    0.258552
   4 N :   -0.700269
   5 C :   -0.219460
   6 H :    0.087617
   7 H :    0.158693
   8 C :   -0.235131
   9 H :    0.109140
  10 H :    0.113653
  11 C :   -0.023230
  12 H :    0.146047
  13 H :    0.119987
  14 C :    0.777776
  15 H :    0.373048
  16 N :   -0.680518
  17 O :   -0.636281
  18 H :    0.106442
  19 H :    0.108967
  20 H :    0.281020
  21 O :   -0.584976
  22 H :    0.156605
  23 H :    0.278268
Sum of atomic charges:    0.0000000

--------------------------------
MULLIKEN REDUCED ORBITAL CHARGES
--------------------------------
  0 C s       :     3.188704  s :     3.188704
      pz      :     0.965123  p :     2.766928
      px      :     0.817394
      py      :     0.984412
      dz2     :     0.017382  d :     0.065758
      dxz     :     0.011411
      dyz     :     0.006219
      dx2y2   :     0.020355
      dxy     :     0.010390

  1 C s       :     3.240729  s :     3.240729
      pz      :     0.983187  p :     2.942164
      px      :     0.897444
      py      :     1.061534
      dz2     :     0.013958  d :     0.047945
      dxz     :     0.008216
      dyz     :     0.004656
      dx2y2   :     0.013841
      dxy     :     0.007274

  2 H s       :     0.717659  s :     0.717659
      pz      :     0.014743  p :     0.026066
      px      :     0.006523
      py      :     0.004799

  3 H s       :     0.715395  s :     0.715395
      pz      :     0.004371  p :     0.026053
      px      :     0.006471
      py      :     0.015211

  4 N s       :     3.607485  s :     3.607485
      pz      :     1.216229  p :     4.057920
      px      :     1.656163
      py      :     1.185528
      dz2     :     0.013248  d :     0.034863
      dxz     :     0.005006
      dyz     :     0.001914
      dx2y2   :     0.009015
      dxy     :     0.005680

  5 C s       :     3.238818  s :     3.238818
      pz      :     1.007795  p :     2.931415
      px      :     0.896398
      py      :     1.027222
      dz2     :     0.014874  d :     0.049227
      dxz     :     0.008089
      dyz     :     0.004143
      dx2y2   :     0.015037
      dxy     :     0.007084

  6 H s       :     0.900065  s :     0.900065
      pz      :     0.008297  p :     0.012318
      px      :     0.001788
      py      :     0.002233

  7 H s       :     0.827813  s :     0.827813
      pz      :     0.001652  p :     0.013494
      px      :     0.002237
      py      :     0.009605

  8 C s       :     3.238280  s :     3.238280
      pz      :     1.048446  p :     2.948454
      px      :     0.988008
      py      :     0.912001
      dz2     :     0.014136  d :     0.048397
      dxz     :     0.006534
      dyz     :     0.005773
      dx2y2   :     0.010588
      dxy     :     0.011367

  9 H s       :     0.878451  s :     0.878451
      pz      :     0.008477  p :     0.012409
      px      :     0.001835
      py      :     0.002098

 10 H s       :     0.873920  s :     0.873920
      pz      :     0.001822  p :     0.012427
      px      :     0.001889
      py      :     0.008716

 11 C s       :     3.206608  s :     3.206608
      pz      :     1.019305  p :     2.746277
      px      :     0.832047
      py      :     0.894925
      dz2     :     0.017816  d :     0.070345
      dxz     :     0.006672
      dyz     :     0.013070
      dx2y2   :     0.022196
      dxy     :     0.010592

 12 H s       :     0.841326  s :     0.841326
      pz      :     0.003290  p :     0.012627
      px      :     0.004481
      py      :     0.004856

 13 H s       :     0.867648  s :     0.867648
      pz      :     0.008893  p :     0.012364
      px      :     0.001716
      py      :     0.001756

 14 C s       :     2.950423  s :     2.950423
      pz      :     0.631469  p :     2.125939
      px      :     0.857890
      py      :     0.636580
      dz2     :     0.036013  d :     0.145861
      dxz     :     0.031739
      dyz     :     0.025756
      dx2y2   :     0.029361
      dxy     :     0.022993

 15 H s       :     0.585413  s :     0.585413
      pz      :     0.007241  p :     0.041538
      px      :     0.026437
      py      :     0.007860

 16 N s       :     3.602057  s :     3.602057
      pz      :     1.163255  p :     4.044063
      px      :     1.745324
      py      :     1.135485
      dz2     :     0.008676  d :     0.034398
      dxz     :     0.007688
      dyz     :     0.005379
      dx2y2   :     0.003954
      dxy     :     0.008701

 17 O s       :     3.836669  s :     3.836669
      pz      :     1.676913  p :     4.774301
      px      :     1.357049
      py      :     1.740339
      dz2     :     0.006342  d :     0.025310
      dxz     :     0.003971
      dyz     :     0.006276
      dx2y2   :     0.006364
      dxy     :     0.002358

 18 H s       :     0.881601  s :     0.881601
      pz      :     0.001559  p :     0.011956
      px      :     0.001707
      py      :     0.008690

 19 H s       :     0.879038  s :     0.879038
      pz      :     0.008469  p :     0.011995
      px      :     0.001575
      py      :     0.001951

 20 H s       :     0.692950  s :     0.692950
      pz      :     0.014817  p :     0.026029
      px      :     0.007570
      py      :     0.003642

 21 O s       :     3.871556  s :     3.871556
      pz      :     1.480708  p :     4.680704
      px      :     1.719659
      py      :     1.480337
      dz2     :     0.009245  d :     0.032715
      dxz     :     0.006707
      dyz     :     0.006483
      dx2y2   :     0.004767
      dxy     :     0.005513

 22 H s       :     0.831239  s :     0.831239
      pz      :     0.008573  p :     0.012156
      px      :     0.002063
      py      :     0.001521

 23 H s       :     0.695679  s :     0.695679
      pz      :     0.004633  p :     0.026052
      px      :     0.007549
      py      :     0.013871



                     *******************************
                     * LOEWDIN POPULATION ANALYSIS *
                     *******************************

----------------------
LOEWDIN ATOMIC CHARGES
----------------------
   0 C :   -0.044804
   1 C :   -0.139012
   2 H :    0.121386
   3 H :    0.122400
   4 N :   -0.300302
   5 C :   -0.109036
   6 H :    0.049818
   7 H :    0.075259
   8 C :   -0.106781
   9 H :    0.058389
  10 H :    0.060781
  11 C :   -0.024596
  12 H :    0.073522
  13 H :    0.063700
  14 C :    0.226809
  15 H :    0.201946
  16 N :   -0.267429
  17 O :   -0.210010
  18 H :    0.055255
  19 H :    0.057097
  20 H :    0.133994
  21 O :   -0.310683
  22 H :    0.080217
  23 H :    0.132079

-------------------------------
LOEWDIN REDUCED ORBITAL CHARGES
-------------------------------
  0 C s       :     2.880150  s :     2.880150
      pz      :     1.028540  p :     3.037029
      px      :     0.971727
      py      :     1.036762
      dz2     :     0.032105  d :     0.127625
      dxz     :     0.022935
      dyz     :     0.011454
      dx2y2   :     0.040365
      dxy     :     0.020767

  1 C s       :     2.899786  s :     2.899786
      pz      :     1.047244  p :     3.148081
      px      :     1.013436
      py      :     1.087401
      dz2     :     0.025009  d :     0.091144
      dxz     :     0.017031
      dyz     :     0.008368
      dx2y2   :     0.026041
      dxy     :     0.014696

  2 H s       :     0.797787  s :     0.797787
      pz      :     0.044467  p :     0.080827
      px      :     0.022271
      py      :     0.014089

  3 H s       :     0.796688  s :     0.796688
      pz      :     0.013094  p :     0.080912
      px      :     0.022350
      py      :     0.045468

  4 N s       :     3.192662  s :     3.192662
      pz      :     1.225760  p :     4.046278
      px      :     1.626269
      py      :     1.194249
      dz2     :     0.022642  d :     0.061362
      dxz     :     0.008296
      dyz     :     0.005372
      dx2y2   :     0.016093
      dxy     :     0.008959

  5 C s       :     2.887632  s :     2.887632
      pz      :     1.059557  p :     3.127919
      px      :     1.007464
      py      :     1.060898
      dz2     :     0.026427  d :     0.093486
      dxz     :     0.016509
      dyz     :     0.007322
      dx2y2   :     0.028931
      dxy     :     0.014297

  6 H s       :     0.911433  s :     0.911433
      pz      :     0.023770  p :     0.038748
      px      :     0.006804
      py      :     0.008175

  7 H s       :     0.880686  s :     0.880686
      pz      :     0.006460  p :     0.044056
      px      :     0.008574
      py      :     0.029022

  8 C s       :     2.891719  s :     2.891719
      pz      :     1.070421  p :     3.123905
      px      :     1.045776
      py      :     1.007707
      dz2     :     0.024984  d :     0.091157
      dxz     :     0.011857
      dyz     :     0.010882
      dx2y2   :     0.021223
      dxy     :     0.022210

  9 H s       :     0.902534  s :     0.902534
      pz      :     0.024674  p :     0.039077
      px      :     0.006825
      py      :     0.007578

 10 H s       :     0.900204  s :     0.900204
      pz      :     0.006808  p :     0.039015
      px      :     0.006965
      py      :     0.025242

 11 C s       :     2.871051  s :     2.871051
      pz      :     1.036861  p :     3.012757
      px      :     0.973951
      py      :     1.001944
      dz2     :     0.033160  d :     0.140788
      dxz     :     0.013334
      dyz     :     0.025280
      dx2y2   :     0.046803
      dxy     :     0.022210

 12 H s       :     0.885992  s :     0.885992
      pz      :     0.010766  p :     0.040486
      px      :     0.014430
      py      :     0.015290

 13 H s       :     0.896492  s :     0.896492
      pz      :     0.025968  p :     0.039808
      px      :     0.007088
      py      :     0.006752

 14 C s       :     2.849258  s :     2.849258
      pz      :     0.830549  p :     2.607534
      px      :     1.012359
      py      :     0.764627
      dz2     :     0.075152  d :     0.316398
      dxz     :     0.068407
      dyz     :     0.062030
      dx2y2   :     0.062070
      dxy     :     0.048739

 15 H s       :     0.677685  s :     0.677685
      pz      :     0.023299  p :     0.120369
      px      :     0.072242
      py      :     0.024828

 16 N s       :     3.187940  s :     3.187940
      pz      :     1.168577  p :     4.018536
      px      :     1.698366
      py      :     1.151592
      dz2     :     0.017166  d :     0.060954
      dxz     :     0.010612
      dyz     :     0.011958
      dx2y2   :     0.008481
      dxy     :     0.012737

 17 O s       :     3.457222  s :     3.457222
      pz      :     1.658950  p :     4.704746
      px      :     1.333889
      py      :     1.711906
      dz2     :     0.010059  d :     0.048042
      dxz     :     0.008894
      dyz     :     0.010510
      dx2y2   :     0.012808
      dxy     :     0.005771

 18 H s       :     0.907108  s :     0.907108
      pz      :     0.006209  p :     0.037637
      px      :     0.006165
      py      :     0.025263

 19 H s       :     0.905236  s :     0.905236
      pz      :     0.024769  p :     0.037667
      px      :     0.005667
      py      :     0.007230

 20 H s       :     0.784043  s :     0.784043
      pz      :     0.044532  p :     0.081963
      px      :     0.025920
      py      :     0.011511

 21 O s       :     3.548127  s :     3.548127
      pz      :     1.504378  p :     4.705307
      px      :     1.716208
      py      :     1.484721
      dz2     :     0.011768  d :     0.057250
      dxz     :     0.014069
      dyz     :     0.014094
      dx2y2   :     0.007140
      dxy     :     0.010179

 22 H s       :     0.880244  s :     0.880244
      pz      :     0.025466  p :     0.039539
      px      :     0.007474
      py      :     0.006599

 23 H s       :     0.786243  s :     0.786243
      pz      :     0.014115  p :     0.081678
      px      :     0.026102
      py      :     0.041462



                      *****************************
                      * MAYER POPULATION ANALYSIS *
                      *****************************

  NA   - Mulliken gross atomic population
  ZA   - Total nuclear charge
  QA   - Mulliken gross atomic charge
  VA   - Mayer's total valence
  BVA  - Mayer's bonded valence
  FA   - Mayer's free valence

  ATOM       NA         ZA         QA         VA         BVA        FA
  0 C      6.0214     6.0000    -0.0214     3.8009     3.8009    -0.0000
  1 C      6.2308     6.0000    -0.2308     3.7658     3.7658     0.0000
  2 H      0.7437     1.0000     0.2563     0.9108     0.9108    -0.0000
  3 H      0.7414     1.0000     0.2586     0.9102     0.9102    -0.0000
  4 N      7.7003     7.0000    -0.7003     2.7553     2.7553    -0.0000
  5 C      6.2195     6.0000    -0.2195     3.8114     3.8114     0.0000
  6 H      0.9124     1.0000     0.0876     0.9560     0.9560     0.0000
  7 H      0.8413     1.0000     0.1587     0.9508     0.9508     0.0000
  8 C      6.2351     6.0000    -0.2351     3.7815     3.7815    -0.0000
  9 H      0.8909     1.0000     0.1091     0.9501     0.9501     0.0000
 10 H      0.8863     1.0000     0.1137     0.9492     0.9492     0.0000
 11 C      6.0232     6.0000    -0.0232     3.7329     3.7329     0.0000
 12 H      0.8540     1.0000     0.1460     0.9470     0.9470    -0.0000
 13 H      0.8800     1.0000     0.1200     0.9512     0.9512    -0.0000
 14 C      5.2222     6.0000     0.7778     3.7045     3.7045     0.0000
 15 H      0.6270     1.0000     0.3730     0.8712     0.8712     0.0000
 16 N      7.6805     7.0000    -0.6805     2.7709     2.7709     0.0000
 17 O      8.6363     8.0000    -0.6363     1.8183     1.8183    -0.0000
 18 H      0.8936     1.0000     0.1064     0.9483     0.9483     0.0000
 19 H      0.8910     1.0000     0.1090     0.9484     0.9484    -0.0000
 20 H      0.7190     1.0000     0.2810     0.9063     0.9063     0.0000
 21 O      8.5850     8.0000    -0.5850     1.9015     1.9015     0.0000
 22 H      0.8434     1.0000     0.1566     0.9415     0.9415     0.0000
 23 H      0.7217     1.0000     0.2783     0.9049     0.9049     0.0000

  Mayer bond orders larger than 0.100000
B(  0-C ,  1-C ) :   0.9606 B(  0-C ,  4-N ) :   0.9450 B(  0-C , 18-H ) :   0.9741 
B(  0-C , 19-H ) :   0.9744 B(  1-C ,  5-C ) :   0.9614 B(  1-C ,  6-H ) :   0.9743 
B(  1-C ,  7-H ) :   0.9554 B(  2-H ,  4-N ) :   0.9164 B(  3-H ,  4-N ) :   0.9152 
B(  5-C ,  8-C ) :   0.9750 B(  5-C ,  9-H ) :   0.9731 B(  5-C , 10-H ) :   0.9770 
B(  8-C , 11-C ) :   0.9483 B(  8-C , 12-H ) :   0.9695 B(  8-C , 13-H ) :   0.9668 
B( 11-C , 14-C ) :   0.9231 B( 11-C , 16-N ) :   0.9797 B( 11-C , 22-H ) :   0.9554 
B( 14-C , 17-O ) :   0.9670 B( 14-C , 21-O ) :   1.8367 B( 15-H , 17-O ) :   0.8395 
B( 16-N , 20-H ) :   0.8994 B( 16-N , 23-H ) :   0.9074 

-------
TIMINGS
-------

Total SCF time: 0 days 0 hours 0 min 21 sec 

Total time                  ....      21.937 sec
Sum of individual times     ....      20.632 sec  ( 94.1%)

SCF preparation             ....       0.016 sec  (  0.1%)
Fock matrix formation       ....      20.548 sec  ( 93.7%)
  Startup                   ....       0.001 sec  (  0.0% of F)
  Coulomb+Exchange Fock     ....      21.843 sec  (106.3% of F)
Diagonalization             ....       0.000 sec  (  0.0%)
Density matrix formation    ....       0.005 sec  (  0.0%)
Total Energy calculation    ....       0.001 sec  (  0.0%)
Population analysis         ....       0.003 sec  (  0.0%)
Orbital Transformation      ....       0.007 sec  (  0.0%)
Orbital Orthonormalization  ....       0.000 sec  (  0.0%)
DIIS solution               ....       0.037 sec  (  0.2%)
SOSCF solution              ....       0.013 sec  (  0.1%)
Finished LeanSCF after  21.9 sec

Maximum memory used throughout the entire LEANSCF-calculation: 16.0 MB

------------------------------------------------------------------------------
                                ORCA  MP2 
------------------------------------------------------------------------------

Freezing NCore=20 chemical core electrons

----------
MP2 ENERGY (disk based algorithm)
----------

Dimension of the basis                      ...  210
Memory devoted to MP2                       ... 4096 MB   
Data format for buffers                     ... DOUBLE
Compression type for matrix containers      ... UNCOMPRESSED

-------------------------
SHARK HALF TRANSFORMATION (Exchange order)
-------------------------

Number of basis functions                   ...    210
Number of operators                         ...      1
   Operator  0:   10-  39 (p-index in (p*|q*))
   Operator  0:   10-  39 (q-index in (p*|q*)
Integral generator used                     ... SHARK
Contraction scheme used                     ... SEGMENTED CONTRACTION
MaxCore in resort                           ...   4096 MB

Half transformed integrals for op=   0      ... 3.SHARK_MNPQ0.tmp
Resorted half transformed integrals         ... 3.KAO_aa.tmp

Half trafo (segmented) done. Total time = 14.2 sec. integrals= 12.5 sec trafo=  1.5 sec

----------------------
SHARK INTEGRAL SORTING (Exchange)
----------------------

Input container                             ... 3.SHARK_MNPQ0.tmp
Output container                            ... 3.KAO_aa.tmp
Range of AO-indices                         ...    0 -  209
Range of bra indices i                      ...   10 -   39
Range of ket indices j                      ...   10 -   39
Symmetric i,j range                         ... YES
Number of (i,j) pairs generated             ...  465
Max Core memory in MB                       ...   4096

Available core memory in MB                 ...   4085.27
MB needed for one item                      ...      0.34
Fixed MB needed                             ...      0.00
Number of items                             ...       465
Number of batches                           ...         1
Items treated per batch                     ...       465
Batch   0                                   ...      0-   464 (   465)
   => Closing output file and leaving
done (  0.2 sec)

SHARK half integral transformation done. Total time = 14.4 sec.


Finished integral transformation - now doing MP2 part

OPERATOR COMBINATION   0   0: ij=( 10.. 39, 10.. 39)
  Internal MO  12
  Internal MO  15
  Internal MO  18
  Internal MO  21
  Internal MO  24
  Internal MO  27
  Internal MO  30
  Internal MO  33
  Internal MO  36
  Internal MO  39
-----------------------------------------------
 MP2 CORRELATION ENERGY   :     -1.532472695 Eh
-----------------------------------------------


-------
TIMINGS
-------
Total time                :   14.666 sec
Integral trafo            :   14.426 sec ( 98.4%)
K(i,j)                    :    0.198 sec (  1.4%)
T(i,j)                    :    0.006 sec (  0.0%)

---------------------------------------
MP2 TOTAL ENERGY:     -495.548655184 Eh
---------------------------------------

Maximum memory used throughout the entire MP2-calculation: 168.5 MB

-------------------------   --------------------
FINAL SINGLE POINT ENERGY      -495.548655184099
-------------------------   --------------------


------------------------------------------------------------------------------
                              ORCA PROPERTY CALCULATIONS
------------------------------------------------------------------------------

GBWName                                 ... 3.gbw
Number of atoms                         ...     24
Number of basis functions               ...    210
Max core memory                         ...   4096 MB

Electric properties:
Dipole moment                           ... YES
Quadrupole moment                       ...  NO
Static polarizability (Dipole/Dipole)   ...  NO
Static polarizability (Dipole/Quad.)    ...  NO
Static polarizability (Quad./Quad.)     ...  NO
Static polarizability (Velocity)        ...  NO
Static hyperpolarizability              ...  NO

Atomic electric properties:
Dipole moment                           ...  NO
Quadrupole moment                       ...  NO
Static polarizability                   ...  NO

Choice of electric origin               ... Center of mass
Position of electric origin             ...   -20.120050    10.953810     1.026965

General magnetic properties:
Magnetizability                         ...  NO

EPR properties:
g-Tensor (aka g-matrix)                 ...  NO
Zero-Field splitting spin-orbit         ...  NO
Zero-field splitting spin-spin          ...  NO
Hyperfine couplings                     ...  NO (   0 nuclei)
Quadrupole couplings                    ...  NO (   0 nuclei)
Contact density                         ...  NO (   0 nuclei)

NMR properties:
Chemical shifts                         ...  NO (   0 nuclei)
Spin-rotation constants                 ...  NO (   0 nuclei)
Spin-spin couplings                     ...  NO (   0 nuclei,    0 pairs)

Choice of magnetic origin               ... GIAO
Position of magnetic origin             ...     0.000000     0.000000     0.000000

Properties with geometric perturbations:
SCF Hessian                             ...  NO
IR spectrum                             ...  NO
VCD spectrum                            ...  NO
X-ray spectroscopy properties:
SCF XES/XAS/RIXS spectra                ...  NO

SCF SOC stabilization energy            ...  NO
Diagonal Born-Oppenheimer correction    ...  NO

-------------
DIPOLE MOMENT
-------------

Method             : SCF
Type of density    : Electron Density
Multiplicity       :   1
Irrep              :   0
Energy             :  -494.0161824893956464 Eh
Basis              : AO
                                X                 Y                 Z
Electronic contribution:     13.624654273      -3.626469042      -1.301433223
Nuclear contribution   :    -12.793169746       3.742739658       1.099507823
                        -----------------------------------------
Total Dipole Moment    :      0.831484528       0.116270616      -0.201925400
                        -----------------------------------------
Magnitude (a.u.)       :      0.863515630
Magnitude (Debye)      :      2.194882301



--------------------
Rotational spectrum 
--------------------
 
Rotational constants in cm-1:             0.112601             0.016486             0.015055 
Rotational constants in MHz :          3375.704980           494.228204           451.347855 

Dipole components along the rotational axes: 
x,y,z [a.u.] :    -0.817186    -0.277909    -0.025138 
x,y,z [Debye]:    -2.077123    -0.706390    -0.063895 

 

Dipole moment calculation done in   0.0 sec 

Maximum memory used throughout the entire PROP-calculation: 10.9 MB

--------------------------------
SUGGESTED CITATIONS FOR THIS RUN
--------------------------------

Below you find a list of papers that are relevant to this ORCA run
We neither can nor want to force you to cite these papers, but we appreciate if you do
You receive ORCA, which is the product of decades of hard work by many enthusiastic individuals, for free
The only thing we kindly ask in return is that you cite our papers,
We deeply appreciate it, if you show your appreciation for ORCA by not just citing the generic ORCA reference.

Please note that relegating all ORCA citations to the supporting information does *not* help us.
SI sections are not indexed - citations you put there will not count into any citation statistics
But we need these citations in order to attract the funding resources that allow us to do what we are doing

Therefore, if you are a happy ORCA user, please consider citing a few of the papers listed below in the main body of your paper

In addition to the list printed below, the program has created the file 3.bibtex that contains the list in bibtex format
You can import this file easily into all common literature databanks and citation aid programs


List of essential papers. We consider these as the minimum necessary citations

  1. Neese, F.
     Software update: the ORCA program system, version 6.0
     WIRES Comput. Molec. Sci. 2025 15(1), e70019
     doi.org/10.1002/wcms.7019

List of papers to cite with high priority. The work reported in these papers was absolutely
necessary for this run to complete.
Our perspective: the developers of density functionals and basis sets usually get cited in chemistry papers
Good! But without the algorithms to do something with them, the functionals or basis sets would not do anything.
Hence, in our opinion, the algorithm design and method developments papers are equally worthy of getting cited

  1. Neese, F.
     The SHARK Integral Generation and Digestion System
     J. Comp. Chem. 2022 44(3), 381
     doi.org/10.1002/jcc.26942

List of suggested additional citations. These are papers that are important in the 'surrounding' of 
of this run, or papers that preceded the highly important papers. If you like your results we are grateful for a citation.

  1. Neese, F.
     The ORCA program system
     WIRES Comput. Molec. Sci. 2012 2(1), 73-78
     doi.org/10.1002/wcms.81
  2. Neese, F.
     Software update: the ORCA program system, version 4.0
     WIRES Comput. Molec. Sci. 2018 8(1), 1-6
     doi.org/10.1002/wcms.1327
  3. Neese, F.; Wennmohs, F.; Becker, U.; Riplinger, C.
     The ORCA quantum chemistry program package
     J. Chem. Phys. 2020 152(22), 224108
     doi.org/10.1063/5.0004608
  4. Neese, F.
     Software update: The ORCA program system—Version 5.0
     WIRES Comput. Molec. Sci. 2022 12(1), e1606
     doi.org/10.1002/wcms.1606

List of optional additional citations

  1. Neese, F.
     Approximate second-order SCF convergence for spin unrestricted wavefunctions
     Chem. Phys. Lett. 2000 325(1-3), 93-98
     doi.org/10.1016/s0009-2614(00)00662-x

Timings for individual modules:

Sum of individual times          ...       37.443 sec (=   0.624 min)
Startup calculation              ...        0.495 sec (=   0.008 min)   1.3 %
SCF iterations                   ...       22.231 sec (=   0.371 min)  59.4 %
Property calculations            ...        0.025 sec (=   0.000 min)   0.1 %
MP2 module                       ...       14.692 sec (=   0.245 min)  39.2 %
                             ****ORCA TERMINATED NORMALLY****
TOTAL RUN TIME: 0 days 0 hours 0 minutes 37 seconds 480 msec
