
                                 *****************
                                 * O   R   C   A *
                                 *****************

                                            #,                                       
                                            ###                                      
                                            ####                                     
                                            #####                                    
                                            ######                                   
                                           ########,                                 
                                     ,,################,,,,,                         
                               ,,#################################,,                 
                          ,,##########################################,,             
                       ,#########################################, ''#####,          
                    ,#############################################,,   '####,        
                  ,##################################################,,,,####,       
                ,###########''''           ''''###############################       
              ,#####''   ,,,,##########,,,,          '''####'''          '####       
            ,##' ,,,,###########################,,,                        '##       
           ' ,,###''''                  '''############,,,                           
         ,,##''                                '''############,,,,        ,,,,,,###''
      ,#''                                            '''#######################'''  
     '                                                          ''''####''''         
             ,#######,   #######,   ,#######,      ##                                
            ,#'     '#,  ##    ##  ,#'     '#,    #''#        ,####,    ,#,          
            ##       ##  ##   ,#'  ##            #'  '#       #'       ,# #          
            ##       ##  #######   ##           ,######,      #####,      #          
            '#,     ,#'  ##    ##  '#,     ,#' ,#      #,     #,   #      #          
             '#######'   ##     ##  '#######'  #'      '#     '####' #    #          



                #########################################################
                #                        -***-                          #
                #          Department of theory and spectroscopy        #
                #                                                       #
                #                      Frank Neese                      #
                #                                                       #
                #     Directorship, Architecture, Infrastructure        #
                #                    SHARK, DRIVERS                     #
                #        Core code/Algorithms in most modules           #
                #                                                       #
                #        Max Planck Institute fuer Kohlenforschung      #
                #                Kaiser Wilhelm Platz 1                 #
                #                 D-45470 Muelheim/Ruhr                 #
                #                      Germany                          #
                #                                                       #
                #                  All rights reserved                  #
                #                        -***-                          #
                #########################################################


                         Program Version 6.1.0  -  RELEASE   -
                                (GIT: $679e74b$)
                          ($2025-06-10 18:02:51 +0200$)


 With contributions from (in alphabetic order):
[Max-Planck-Institut fuer Kohlenforschung]                               
  Daniel Aravena         : Magnetic Suceptibility                        
  Michael Atanasov       : Ab Initio Ligand Field Theory (pilot matlab implementation)
  Alexander A. Auer      : GIAO ZORA, VPT2 properties, NMR spectrum      
  Ute Becker             : All parallelization in ORCA, NUMFREQ, NUMCALC 
  Giovanni Bistoni       : ED, misc. LED, open-shell LED, HFLD           
  Dmytro Bykov           : pre 5.0 version of the SCF Hessian            
  Marcos Casanova-Páez   : Triplet and SCS-CIS(D). UHF-(DLPNO)-IP/EA/STEOM-CCSD. UHF-CVS-IP/STEOM-CCSD   
  Vijay G. Chilkuri      : MRCI spin determinant printing, contributions to CSF-ICE 
  Pauline Colinet        : FMM embedding                                 
  Dipayan Datta          : RHF DLPNO-CCSD density                        
  Achintya Kumar Dutta   : EOM-CC, STEOM-CC                              
  Nicolas Foglia         : Exact transition moments, OPA infrastructure, MCD improvements    
  Dmitry Ganyushin       : Spin-Orbit,Spin-Spin,Magnetic field MRCI      
  Miquel Garcia-Rates    : C-PCM and meta-GGA Hessian, CCSD/C-PCM, Gaussian charge scheme 
  Tiago L. C. Gouveia    : GS-ROHF, GS-ROCIS                             
  Yang Guo               : DLPNO-NEVPT2, F12-NEVPT2, CIM, IAO-localization        
  Andreas Hansen         : Spin unrestricted coupled pair/coupled cluster methods 
  Ingolf Harden          : AUTO-CI MPn and infrastructure                
  Benjamin Helmich-Paris : MC-RPA, TRAH-(SCF,CASSCF), AVAS, COSX integrals, SCF dyn. polar., MC-PDFT, srDFT 
  Lee Huntington         : MR-EOM, pCC                                   
  Robert Izsak           : Overlap fitted RIJCOSX, COSX-SCS-MP3, EOM     
  Riya Kayal             : Wick's Theorem for AUTO-CI, AUTO-CI UHF-CCSDT 
  Emily Kempfer          : AUTO-CI RHF CISDT and CCSDT, approximate NEVPT4
  Christian Kollmar      : KDIIS, OOCD, Brueckner-CCSD(T), CCSD density, CASPT2, CASPT2-K, improved NEVPT2 
  Axel Koslowski         : Symmetry handling                             
  Simone Kossmann        : meta-GGA functionals, TD-DFT gradient, OOMP2, (MP2 Hessian; deprecated post 5.0) 
  Lucas Lang             : DCDCAS, Hyperfine gauge corrections, ICE-SOC+SSC
  Marvin Lechner         : AUTO-CI (C++ implementation), FIC-MRCC        
  Spencer Leger          : CASSCF response                               
  Dagmar Lenk            : GEPOL surface, SMD, ORCA-2-JSON               
  Dimitrios Liakos       : Extrapolation schemes; Compound Job, Property file
  Dimitrios Manganas     : Further ROCIS development; embedding schemes. LFT, Crystal Embedding 
  Dimitrios Pantazis     : SARC Basis sets                               
  Anastasios Papadopoulos: AUTO-CI, single reference methods and gradients 
  Taras Petrenko         : pre 6.0 DFT Hessian and TD-DFT gradient,  ECA, NRVS 
  Petra Pikulova         : Analytic Raman intensities                    
  Peter Pinski           : DLPNO-MP2, DLPNO-MP2 Gradient                 
  Shashank Vittal Rao    : ES-AILFT, MagRelax                            
  Christoph Reimann      : Effective Core Potentials                     
  Marius Retegan         : Local ZFS, SOC                                
  Christoph Riplinger    : Optimizer, TS searches, QM/MM, DLPNO-CCSD(T), (RO)-DLPNO pert. Triples 
  Michael Roemelt        : Original ROCIS implementation, recursive CI coupling coefficients
  Masaaki Saitow         : Open-shell DLPNO-CCSD energy and density      
  Barbara Sandhoefer     : DKH picture change effects                    
  Yorick L. A. Schmerwitz: GMF and freeze-and-release deltaSCF, NEB S-IDPP initial path                    
  Kantharuban Sivalingam : CASSCF convergence/infrastructure, NEVPT2, NEVPT3, NEVPT4(SD), FIC-MRCI and CEPA variants
  Bernardo de Souza      : ESD, SOC TD-DFT                               
  Georgi L. Stoychev     : AutoAux, RI-MP2 NMR, DLPNO-MP2 response, X2C  
  Van Anh Tran           : RI-MP2 g-tensors                              
  Willem Van den Heuvel  : Paramagnetic NMR                              
  Zikuan Wang            : NOTCH, Electric field optimization            
  Frank Wennmohs         : Technical directorship and infrastructure     
  Hang Xu                : AUTO-CI-Response properties                   
                                                                         
[FACCTs GmbH]                                                            
  Markus Bursch, Nicolas Foglia, Miquel Garcia-Rates, Ingolf Harden, Hagen Neugebauer, Anastasios Papadopoulos, 
  Christoph Riplinger, Bernardo de Souza, Georgi L. Stoychev                                                    
                                                                 
  APM, various basis sets, CI-OPT, improved COSX, DLPNO-Multilevel,           
  DOCKER, DRACO, updates on ESD, Fragmentator, GOAT, IRC, LR-CPCM, L-BFGS, MBIS, meta-GGA TD-DFT gradient, ML-optimized integration grids, 
  MM, NACMEs, nearIR, NEB, NEB-TS, NL-DFT gradient (VV10), 2- and 3-layer-ONIOM, interface openCOSMO-RS, QMMM,   
  Crystal-QMMM, RESP, rigid body optimization, SF, symmetry and pop. for TD-DFT, various functionals, SOLVATOR                                   
                                                                         
[Other institutions]                                                     
  V. Asgeirsson          : NEB                                           
  Christoph Bannwarth    : sTDA-DFT, sTD-DFT, PBEh-3c, B97-3c, D3        
  Giovanni Bistoni       : ETS/NOCV, ADLD/ADEX, COVALED                  
  Martin Brehm           : Molecular dynamics                            
  Ronald Cardenas        : ETS/NOCV                                      
  Martina Colucci        : COVALED                                       
  Sebastian Ehlert       : rSCAN, r2SCAN, r2SCAN-3c, D4, dhf basis sets  
  Marvin Friede          : D4 for Fr, Ra, Ac-Lr                          
  Lars Goerigk           : TD-DFT with DH, B97 family of functionals     
  Stefan Grimme          : VdW corrections, initial TS optimization, DFT functionals, gCP, sTDA/sTD-DF 
  Waldemar Hujo          : DFT-NL                                        
  H. Jonsson             : NEB                                           
  Holger Kruse           : gCP                                           
  Marcel Mueller         : wB97X-3c, vDZP basis set                      
  Hagen Neugebauer       : wr2SCAN, Native XTB                           
  Gianluca Regni         : ADLD/ADEX                                     
  Tobias Risthaus        : pre 6.0 range-separated hybrid DFT and stability analysis
  Lukas Wittmann         : regularized MP2, r2SCAN double-hybrids, wr2SCAN        
                                                                         
We gratefully acknowledge several colleagues who have allowed us to      
interface, adapt or use parts of their codes:                            
  Ed Valeev, F. Pavosevic, A. Kumar             : LibInt (2-el integral package), F12 methods 
  Garnet Chan, S. Sharma, J. Yang, R. Olivares  : DMRG                   
  Ulf Ekstrom                                   : XCFun DFT Library      
  Mihaly Kallay                                 : mrcc  (arbitrary order and MRCC methods)
  Frank Weinhold                                : gennbo (NPA and NBO analysis)           
  Simon Mueller                                 : openCOSMO-RS                            
  Christopher J. Cramer and Donald G. Truhlar   : smd solvation model                     
  S Lehtola, MJT Oliveira, MAL Marques          : LibXC Library                           
  Liviu Ungur et al                             : ANISO software                          


 Your calculation uses the libint2 library for the computation of 2-el integrals
 For citations please refer to: http://libint.valeyev.net

 Your ORCA version has been built with support for libXC version: 7.0.0
 For citations please refer to: https://libxc.gitlab.io

 This ORCA versions uses:
   CBLAS   interface :  Fast vector & matrix operations
   LAPACKE interface :  Fast linear algebra routines
   SCALAPACK package :  Parallel linear algebra routines
   Shared memory     :  Shared parallel matrices
   BLAS/LAPACK       :  OpenBLAS 0.3.29  USE64BITINT DYNAMIC_ARCH NO_AFFINITY Haswell SINGLE_THREADED
        Core in use  :  Haswell
   Copyright (c) 2011-2014, The OpenBLAS Project


  ***********************************
  * Starting time: Sat Aug 30 15:48:14 2025
  * Host name:     chemlab03
  * Process ID:    79935
  * Working dir.:  /home/vivek/mm-project/vivek/xtb-goat/B97-D-opt/g/1
  ***********************************



***************************************
The coordinates will be read from file: /home/vivek/mm-project/vivek/xtb-goat/xtb-goat/g/G_CONF/1.xyz
***************************************


Your calculation utilizes empirical dispersion correction


Warning: RI is on but no J-basis has been assigned. Assigning Def2/J (nothing to worry about!)
================================================================================

----- Orbital basis set information -----
Your calculation utilizes the basis: 6-31G**
   H-He, Li-Ne : W. J. Hehre, R. Ditchfield and J.A. Pople, J. Chem. Phys. 56, 2257 (1972).
                 Note: He and Ne are unpublished basis sets taken from the Gaussian program.
                 Note: Li and B from J. D. Dill and J. A. Pople, J. Chem. Phys. 62, 2921 (1975).
   Na - Ar     : M. M. Francl, W. J. Pietro, W. J. Hehre, J. S. Binkley, M. S. Gordon, 
                 D. J. DeFrees and J. A. Pople, J. Chem. Phys. 77, 3654 (1982).
   K - Zn      : V. A. Rassolov, J. A. Pople, M. A. Ratner, and T. L. Windus, J. Chem. Phys. 109, 1223 (1998).

----- AuxJ basis set information -----
Your calculation utilizes the auxiliary basis: def2/J
   H-Rn: F. Weigend, Phys. Chem. Chem. Phys. 8, 1057 (2006).
   Fr-Lr: K. Eichkorn, F. Weigend, O. Treutler, R. Ahlrichs; Theor. Chem. Acc. 97, 119 (1997).

================================================================================
                                        WARNINGS
                       Please study these warnings very carefully!
================================================================================

WARNING: Old DensityContainer found on disk!
         Will remove this file - 
         If you want to keep old densities, please start your calculation with a different basename. 


WARNING: Geometry Optimization
  ===> : Switching off AutoStart
         For restart on a previous wavefunction, please use MOREAD

INFO   : The exchange functional is Grimme's B97(-D)
         As described in S. Grimme, J. Comput. Chem. 27, 1787 (2006).
         Note that this functional defaults to a pure GGA. 

INFO   : The correlation functional is Grimme's B97(-D)
         As described in S. Grimme, J. Comput. Chem. 27, 1787 (2006).

================================================================================
                                       INPUT FILE
================================================================================
NAME = 1.inp
|  1> ! B97-D 6-31G** opt
|  2> 
|  3> * xyzfile 0 1 /home/vivek/mm-project/vivek/xtb-goat/xtb-goat/g/G_CONF/1.xyz
|  4> 
|  5>                          ****END OF INPUT****
================================================================================

                       *****************************
                       * Geometry Optimization Run *
                       *****************************

Geometry optimization settings:
Update method            Update   .... BFGS
Choice of coordinates    CoordSys .... (2022) Redundant Internals
Initial Hessian          InHess   .... Almloef's Model
Max. no of cycles        MaxIter  .... 50

Convergence Tolerances:
Energy Change            TolE     ....  5.0000e-06 Eh
Max. Gradient            TolMAXG  ....  3.0000e-04 Eh/bohr
RMS Gradient             TolRMSG  ....  1.0000e-04 Eh/bohr
Max. Displacement        TolMAXD  ....  4.0000e-03 bohr
RMS Displacement         TolRMSD  ....  2.0000e-03 bohr
Strict Convergence                .... False

------------------------------------------------------------------------------
                        ORCA OPTIMIZATION COORDINATE SETUP
------------------------------------------------------------------------------

The optimization will be done in redundant internal coordinates (2022)
Making redundant internal coordinates   ...  (2022 redundants) done
Evaluating the initial hessian          ...  (Almloef) done
Evaluating the coordinates              ...  done
Calculating the B-matrix                .... done
Calculating the G-matrix                .... done
The number of degrees of freedom        ....   34

    -----------------------------------------------------------------
                    Redundant Internal Coordinates


    -----------------------------------------------------------------
         Definition                    Initial Value    Approx d2E/dq
    -----------------------------------------------------------------
      1. B(C   1,C   0)                  1.5213         0.385748   
      2. B(N   4,H   2)                  1.0144         0.425739   
      3. B(N   4,C   0)                  1.4450         0.457259   
      4. B(N   4,H   3)                  1.0144         0.425737   
      5. B(O   5,C   1)                  1.3413         0.669326   
      6. B(H   6,C   0)                  1.0949         0.353701   
      7. B(H   7,C   0)                  1.0948         0.353792   
      8. B(H   8,O   5)                  0.9697         0.501765   
      9. B(O   9,C   1)                  1.2011         1.120201   
     10. A(N   4,C   0,H   7)          109.0268         0.332332   
     11. A(C   1,C   0,H   7)          107.3461         0.325087   
     12. A(C   1,C   0,N   4)          116.6638         0.375906   
     13. A(H   6,C   0,H   7)          107.0768         0.289219   
     14. A(C   1,C   0,H   6)          107.2974         0.325073   
     15. A(N   4,C   0,H   6)          109.0272         0.332318   
     16. A(C   0,C   1,O   9)          125.0167         0.440411   
     17. A(C   0,C   1,O   5)          112.4099         0.401747   
     18. A(O   5,C   1,O   9)          122.5733         0.483818   
     19. A(C   0,N   4,H   3)          110.3998         0.339787   
     20. A(C   0,N   4,H   2)          110.4000         0.339787   
     21. A(H   2,N   4,H   3)          107.2932         0.301688   
     22. A(C   1,O   5,H   8)          110.3033         0.372733   
     23. D(O   5,C   1,C   0,N   4)     -0.1931         0.011084   
     24. D(O   9,C   1,C   0,N   4)    179.8131         0.011084   
     25. D(O   9,C   1,C   0,H   6)    -57.6071         0.011084   
     26. D(O   5,C   1,C   0,H   6)    122.3867         0.011084   
     27. D(O   5,C   1,C   0,H   7)   -122.8111         0.011084   
     28. D(H   2,N   4,C   0,H   6)    179.2524         0.017845   
     29. D(H   2,N   4,C   0,C   1)    -59.0715         0.017845   
     30. D(H   3,N   4,C   0,H   6)    -62.2787         0.017845   
     31. D(H   3,N   4,C   0,C   1)     59.3973         0.017845   
     32. D(H   2,N   4,C   0,H   7)     62.6689         0.017845   
     33. D(H   8,O   5,C   1,O   9)      0.0254         0.033274   
     34. D(H   8,O   5,C   1,C   0)   -179.9686         0.033274   
    -----------------------------------------------------------------

Number of atoms                         .... 10
Number of degrees of freedom            .... 34


         *************************************************************
         *                GEOMETRY OPTIMIZATION CYCLE   1            *
         *************************************************************
---------------------------------
CARTESIAN COORDINATES (ANGSTROEM)
---------------------------------
  C     -4.969531   -1.295744   -0.272784
  C     -4.610334   -2.514344    0.564030
  H     -6.400171   -0.449500    0.900261
  H     -4.905131    0.163365    1.143459
  N     -5.544529   -0.172391    0.431076
  O     -4.890890   -2.342470    1.864309
  H     -4.056359   -0.969104   -0.780905
  H     -5.668084   -1.626602   -1.048133
  H     -4.650091   -3.135239    2.368134
  O     -4.129167   -3.527655    0.134780

----------------------------
CARTESIAN COORDINATES (A.U.)
----------------------------
  NO LB      ZA    FRAG     MASS         X           Y           Z
   0 C     6.0000    0    12.011   -9.391054   -2.448601   -0.515486
   1 C     6.0000    0    12.011   -8.712269   -4.751421    1.065863
   2 H     1.0000    0     1.008  -12.094570   -0.849432    1.701247
   3 H     1.0000    0     1.008   -9.269355    0.308714    2.160824
   4 N     7.0000    0    14.007  -10.477641   -0.325773    0.814616
   5 O     8.0000    0    15.999   -9.242442   -4.426626    3.523033
   6 H     1.0000    0     1.008   -7.665408   -1.831341   -1.475696
   7 H     1.0000    0     1.008  -10.711127   -3.073833   -1.980685
   8 H     1.0000    0     1.008   -8.787399   -5.924743    4.475125
   9 O     8.0000    0    15.999   -7.802994   -6.666301    0.254697

--------------------------------
INTERNAL COORDINATES (ANGSTROEM)
--------------------------------
 C      0   0   0     0.000000000000     0.00000000     0.00000000
 C      1   0   0     1.521271172273     0.00000000     0.00000000
 H      1   2   0     2.034426353871   100.49040745     0.00000000
 H      3   1   2     1.633980008467    66.32282083    94.81933961
 N      3   1   2     1.014419565635    41.73734339   128.77452034
 O      2   1   3     1.341259392811   112.40994576   335.74552634
 H      1   2   3     1.094880818100   107.29735651   146.64118884
 H      1   2   3     1.094810688104   107.34606613   261.44340269
 H      6   2   1     0.969694293611   110.30333218   180.03141052
 O      2   1   3     1.201073183789   125.01673062   155.75170483

---------------------------
INTERNAL COORDINATES (A.U.)
---------------------------
 C      0   0   0     0.000000000000     0.00000000     0.00000000
 C      1   0   0     2.874785891026     0.00000000     0.00000000
 H      1   2   0     3.844508648449   100.49040745     0.00000000
 H      3   1   2     3.087774724305    66.32282083    94.81933961
 N      3   1   2     1.916975163941    41.73734339   128.77452034
 O      2   1   3     2.534612926962   112.40994576   335.74552634
 H      1   2   3     2.069024895492   107.29735651   146.64118884
 H      1   2   3     2.068892369007   107.34606613   261.44340269
 H      6   2   1     1.832456648551   110.30333218   180.03141052
 O      2   1   3     2.269699384158   125.01673062   155.75170483

---------------------
BASIS SET INFORMATION
---------------------
There are 4 groups of distinct atoms

 Group   1 Type C   : 10s4p1d contracted to 3s2p1d pattern {631/31/1}
 Group   2 Type H   : 4s1p contracted to 2s1p pattern {31/1}
 Group   3 Type N   : 10s4p1d contracted to 3s2p1d pattern {631/31/1}
 Group   4 Type O   : 10s4p1d contracted to 3s2p1d pattern {631/31/1}

Atom   0C    basis set group =>   1
Atom   1C    basis set group =>   1
Atom   2H    basis set group =>   2
Atom   3H    basis set group =>   2
Atom   4N    basis set group =>   3
Atom   5O    basis set group =>   4
Atom   6H    basis set group =>   2
Atom   7H    basis set group =>   2
Atom   8H    basis set group =>   2
Atom   9O    basis set group =>   4
---------------------------------
AUXILIARY/J BASIS SET INFORMATION
---------------------------------
There are 4 groups of distinct atoms

 Group   1 Type C   : 12s5p4d2f1g contracted to 6s4p3d1f1g pattern {711111/2111/211/2/1}
 Group   2 Type H   : 5s2p1d contracted to 3s1p1d pattern {311/2/1}
 Group   3 Type N   : 12s5p4d2f1g contracted to 6s4p3d1f1g pattern {711111/2111/211/2/1}
 Group   4 Type O   : 12s5p4d2f1g contracted to 6s4p3d1f1g pattern {711111/2111/211/2/1}

Atom   0C    basis set group =>   1
Atom   1C    basis set group =>   1
Atom   2H    basis set group =>   2
Atom   3H    basis set group =>   2
Atom   4N    basis set group =>   3
Atom   5O    basis set group =>   4
Atom   6H    basis set group =>   2
Atom   7H    basis set group =>   2
Atom   8H    basis set group =>   2
Atom   9O    basis set group =>   4
------------------------------------------------------------------------------
                             ORCA STARTUP CALCULATIONS
                           -- RI-GTO INTEGRALS CHOSEN --
------------------------------------------------------------------------------
------------------------------------------------------------------------------
                   ___                                                        
                  /   \      - P O W E R E D   B Y -                         
                 /     \                                                     
                 |  |  |   _    _      __       _____    __    __             
                 |  |  |  | |  | |    /  \     |  _  \  |  |  /  |          
                  \  \/   | |  | |   /    \    | | | |  |  | /  /          
                 / \  \   | |__| |  /  /\  \   | |_| |  |  |/  /          
                |  |  |   |  __  | /  /__\  \  |    /   |      \           
                |  |  |   | |  | | |   __   |  |    \   |  |\   \          
                \     /   | |  | | |  |  |  |  | |\  \  |  | \   \       
                 \___/    |_|  |_| |__|  |__|  |_| \__\ |__|  \__/        
                                                                              
                      - O R C A' S   B I G   F R I E N D -                    
                                      &                                       
                       - I N T E G R A L  F E E D E R -                       
                                                                              
 v1 FN, 2020, v2 2021, v3 2022-2024                                           
------------------------------------------------------------------------------


----------------------
SHARK INTEGRAL PACKAGE
----------------------

Number of atoms                             ...     10
Number of basis functions                   ...     95
Number of shells                            ...     45
Maximum angular momentum                    ...      2
Integral batch strategy                     ... SHARK/LIBINT Hybrid
RI-J (if used) integral strategy            ... SPLIT-RIJ (Revised 2003 algorithm where possible)
Printlevel                                  ...      1
Contraction scheme used                     ... SEGMENTED contraction
Prescreening option                         ... SCHWARTZ
   Thresh                                   ... 2.500e-11
   Tcut                                     ... 2.500e-12
   Tpresel                                  ... 2.500e-12 
Coulomb Range Separation                    ... NOT USED
Exchange Range Separation                   ... NOT USED
Multipole approximations                    ... NOT USED
Finite Nucleus Model                        ... NOT USED
CABS basis                                  ... NOT available
Auxiliary Coulomb fitting basis             ... AVAILABLE
   # of basis functions in Aux-J            ...    300
   # of shells in Aux-J                     ...    100
   Maximum angular momentum in Aux-J        ...      4
Auxiliary J/K fitting basis                 ... NOT available
Auxiliary Correlation fitting basis         ... NOT available
Auxiliary 'external' fitting basis          ... NOT available

Checking pre-screening integrals            ... done (  0.0 sec) Dimension = 45
   => SHARK Basis and OBASIS are compatible. Storing Pre-screening
Shell pair information
Shell pair cut-off parameter TPreSel        ...   2.5e-12
Total number of shell pairs                 ...      1035
Shell pairs after pre-screening             ...      1014
Total number of primitive shell pairs       ...      5170
Primitive shell pairs kept                  ...      3758
          la=0 lb=0:    314 shell pairs
          la=1 lb=0:    367 shell pairs
          la=1 lb=1:    120 shell pairs
          la=2 lb=0:    123 shell pairs
          la=2 lb=1:     75 shell pairs
          la=2 lb=2:     15 shell pairs

Checking whether 4 symmetric matrices of dimension 95 fit in memory
:Max Core in MB      =   4096.00
 MB in use           =      4.71
 MB left             =   4091.29
 MB needed           =      0.14
 Data fit in memory  = YES
Calculating RI/J V-Matrix + Cholesky decomp.... done (  0.0 sec)
Calculating Nuclear repulsion               ... done (  0.0 sec) ENN=    180.504609186114 Eh

Diagonalization of the overlap matrix:
Smallest eigenvalue                        ... 4.190e-03
Time for diagonalization                   ...    0.001 sec
Threshold for overlap eigenvalues          ... 1.000e-07
Number of eigenvalues below threshold      ... 0
Time for construction of square roots      ...    0.000 sec
Total time needed                          ...    0.001 sec

-------------------
DFT GRID GENERATION
-------------------

General Integration Accuracy     IntAcc      ... 4.388
Radial Grid Type                 RadialGrid  ... OptM3 with GC (2021)
Angular Grid (max. ang.)         AngularGrid ... 4 (Lebedev-302)
Angular grid pruning method      GridPruning ... 4 (adaptive)
Weight generation scheme         WeightScheme... mBecke (2022)
Basis function cutoff            BFCut       ... 1.0000e-11
Integration weight cutoff        WCut        ... 1.0000e-14
Partially contracted basis set               ... off
Rotationally invariant grid construction     ... off
Angular grids for H and He will be reduced by one unit

Total number of grid points                  ...    46631
Total number of batches                      ...      734
Average number of points per batch           ...       63
Average number of grid points per atom       ...     4663
Grids setup in   0.1 sec
Initializing property integral containers    ... done (  0.0 sec)

SHARK setup successfully completed in   0.2 seconds

Maximum memory used throughout the entire STARTUP-calculation: 19.9 MB
-------------------------------------------------------------------------------
                                 ORCA GUESS
                   Start orbitals & Density for SCF / CASSCF
-------------------------------------------------------------------------------

------------
SCF SETTINGS
------------
Hamiltonian:
 Density Functional     Method          .... DFT(GTOs)
 Exchange Functional    Exchange        .... B97(D)
 Correlation Functional Correlation     .... B97(D)
 Gradients option       PostSCFGGA      .... off
 RI-approximation to the Coulomb term is turned on
   Number of AuxJ basis functions       .... 300


General Settings:
 Integral files         IntName         .... 1
 Hartree-Fock type      HFTyp           .... RHF
 Total Charge           Charge          ....    0
 Multiplicity           Mult            ....    1
 Number of Electrons    NEL             ....   40
 Basis Dimension        Dim             ....   95
 Nuclear Repulsion      ENuc            ....    180.5046091861 Eh

Convergence Acceleration:
 AO-DIIS                CNVDIIS         .... on
   Start iteration      DIISMaxIt       ....    12
   Startup error        DIISStart       ....  0.200000
   # of expansion vecs  DIISMaxEq       ....     5
   Bias factor          DIISBfac        ....   1.050
   Max. coefficient     DIISMaxC        ....  10.000
 MO-DIIS                CNVKDIIS        .... off
 Trust-Rad. Augm. Hess. CNVTRAH         .... auto
   Auto Start mean grad. ratio tolernc. ....  1.125000
   Auto Start start iteration           ....    50
   Auto Start num. interpolation iter.  ....    10
   Max. Number of Micro iterations      ....    24
   Max. Number of Macro iterations      .... Maxiter - #DIIS iter
   Number of Davidson start vectors     ....     2
   Converg. threshold    (grad. norm)   ....   1.000e-05
   Grad. Scal. Fac. for Micro threshold ....   0.100
   Minimum threshold for Micro iter.    ....   1.000e-02
   NR start threshold (gradient norm)   ....   1.000e-04
   Initial trust radius                 ....   0.400
   Minimum AH scaling param. (alpha)    ....   1.000
   Maximum AH scaling param. (alpha)    .... 1000.000
   Quad. conv. algorithm                .... NR
   White noise on init. David. guess    .... on
   Maximum white noise                  ....   0.010
   Pseudo random numbers                .... off
   Inactive MOs                         .... canonical
   Orbital update algorithm             .... Taylor
   Preconditioner                       .... Diag
   Full preconditioner red. dimension   ....   250
 SOSCF                 CNVSOSCF           .... on
   Start iteration     SOSCFMaxIt         ....   150
   Startup grad/error  SOSCFStart         ....  0.003300
   Hessian update      SOSCFHessUp        .... L-BFGS
   Autom. constraints  SOSCFAutoConstrain .... off
 Level Shifting         CNVShift        .... on
   Level shift para.    LevelShift      ....    0.2500
   Turn off err/grad.   ShiftErr        ....    0.0010
 Zerner damping         CNVZerner       .... off
 Static damping         CNVDamp         .... on
   Fraction old density DampFac         ....    0.7000
   Max. Damping (<1)    DampMax         ....    0.9800
   Min. Damping (>=0)   DampMin         ....    0.0000
   Turn off err/grad.   DampErr         ....    0.1000

SCF Procedure:
 Maximum # iterations   MaxIter         ....   125
 SCF integral mode      SCFMode         .... Direct
   Integral package                     .... SHARK and LIBINT hybrid scheme
 Reset frequency        DirectResetFreq ....    20
 Integral Threshold     Thresh          ....  2.500e-11 Eh
 Primitive CutOff       TCut            ....  2.500e-12 Eh

Convergence Tolerance:
 Convergence Check Mode ConvCheckMode   .... Total+1el-Energy
 Convergence forced     ConvForced      .... 0
 Energy Change          TolE            ....  1.000e-08 Eh
 1-El. energy change                    ....  1.000e-05 Eh
 Orbital Gradient       TolG            ....  1.000e-05
 Orbital Rotation angle TolX            ....  1.000e-05
 DIIS Error             TolErr          ....  5.000e-07

------------------------------
INITIAL GUESS: MODEL POTENTIAL
------------------------------
Loading Hartree-Fock densities                     ... done
Calculating cut-offs                               ... done
Initializing the effective Hamiltonian             ... done
Setting up the integral package (SHARK)            ... done
Starting the Coulomb interaction                   ... done (   0.0 sec)
Making the grid                                    ... done (   0.0 sec)
Mapping shells                                     ... done
Starting the XC term evaluation                    ... done (   0.0 sec)
  promolecular density results
     # of electrons  =     39.997715074
     EX              =    -34.197685566
     EC              =     -1.793294938
     EX+EC           =    -35.990980504
Transforming the Hamiltonian                       ... done (   0.0 sec)
Diagonalizing the Hamiltonian                      ... done (   0.0 sec)
Back transforming the eigenvectors                 ... done (   0.0 sec)
Now organizing SCF variables                       ... done
                      ------------------
                      INITIAL GUESS DONE (   0.1 sec)
                      ------------------
             **** ENERGY FILE WAS UPDATED (1.en.tmp) ****
Finished Guess after   0.1 sec
Maximum memory used throughout the entire GUESS-calculation: 8.2 MB

-------------------------------------------------------------------------------------------
                                      ORCA LEAN-SCF
                              memory conserving SCF solver
-------------------------------------------------------------------------------------------

----------------------------------------D-I-I-S--------------------------------------------
Iteration    Energy (Eh)           Delta-E    RMSDP     MaxDP     DIISErr   Damp  Time(sec)
-------------------------------------------------------------------------------------------
               ***  Starting incremental Fock matrix formation  ***
    1    -284.0170811666926056     0.00e+00  5.86e-03  1.09e-01  2.62e-01  0.700   0.2
    2    -284.1330358832821048    -1.16e-01  3.50e-03  5.74e-02  9.60e-02  0.700   0.1
                               ***Turning on AO-DIIS***
    3    -284.1659906087237459    -3.30e-02  1.24e-03  1.35e-02  2.65e-02  0.700   0.1
    4    -284.1886814109517445    -2.27e-02  1.59e-03  1.70e-02  1.44e-02  0.000   0.1
    5    -284.2423124842080142    -5.36e-02  5.86e-04  6.61e-03  9.83e-03  0.000   0.1
    6    -284.2428265721052867    -5.14e-04  2.14e-04  2.19e-03  3.51e-03  0.000   0.1
                              *** Initializing SOSCF ***
---------------------------------------S-O-S-C-F--------------------------------------
Iteration    Energy (Eh)           Delta-E    RMSDP     MaxDP     MaxGrad    Time(sec)
--------------------------------------------------------------------------------------
    7    -284.2428703636402361    -4.38e-05  7.46e-05  7.99e-04  9.50e-04     0.1
               *** Restarting incremental Fock matrix formation ***
    8    -284.2428754495514340    -5.09e-06  4.58e-05  6.68e-04  1.22e-04     0.2
    9    -284.2428756021411118    -1.53e-07  2.03e-05  3.61e-04  1.55e-04     0.1
   10    -284.2428758477650490    -2.46e-07  2.00e-05  3.17e-04  1.57e-04     0.1
   11    -284.2428758433817393     4.38e-09  1.07e-05  1.76e-04  1.05e-04     0.1
                 **** Energy Check signals convergence ****

               *****************************************************
               *                     SUCCESS                       *
               *           SCF CONVERGED AFTER  11 CYCLES          *
               *****************************************************

             **** ENERGY FILE WAS UPDATED (1.en.tmp) ****

----------------
TOTAL SCF ENERGY
----------------

Total Energy       :       -284.24287596263025 Eh           -7734.64188 eV

Components:
Nuclear Repulsion  :        180.50460918611398 Eh            4911.78013 eV
Electronic Energy  :       -464.74748514874420 Eh          -12646.42200 eV
One Electron Energy:       -745.55768601006980 Eh          -20287.65604 eV
Two Electron Energy:        280.81020086132560 Eh            7641.23404 eV

Virial components:
Potential Energy   :       -567.03745367542615 Eh          -15429.87355 eV
Kinetic Energy     :        282.79457771279596 Eh            7695.23168 eV
Virial Ratio       :          2.00512137913516

DFT components:
N(Alpha)           :       19.999990953942 electrons
N(Beta)            :       19.999990953942 electrons
N(Total)           :       39.999981907885 electrons
E(X)               :      -34.935591906964 Eh       
E(C)               :       -1.783088108972 Eh       
E(XC)              :      -36.718680015936 Eh       

---------------
SCF CONVERGENCE
---------------

  Last Energy change         ...   -4.3833e-09  Tolerance :   1.0000e-08
  Last MAX-Density change    ...    1.7595e-04  Tolerance :   1.0000e-07
  Last RMS-Density change    ...    1.0691e-05  Tolerance :   5.0000e-09
  Last DIIS Error            ...    9.5033e-04  Tolerance :   5.0000e-07
  Last Orbital Gradient      ...    1.0513e-04  Tolerance :   1.0000e-05
  Last Orbital Rotation      ...    9.4966e-05  Tolerance :   1.0000e-05


----------------
ORBITAL ENERGIES
----------------

  NO   OCC          E(Eh)            E(eV) 
   0   2.0000     -18.816260      -512.0165 
   1   2.0000     -18.750694      -510.2323 
   2   2.0000     -13.990351      -380.6968 
   3   2.0000     -10.029392      -272.9136 
   4   2.0000      -9.946355      -270.6541 
   5   2.0000      -1.021386       -27.7933 
   6   2.0000      -0.930785       -25.3280 
   7   2.0000      -0.814387       -22.1606 
   8   2.0000      -0.645210       -17.5571 
   9   2.0000      -0.564481       -15.3603 
  10   2.0000      -0.459225       -12.4961 
  11   2.0000      -0.441535       -12.0148 
  12   2.0000      -0.417037       -11.3482 
  13   2.0000      -0.391616       -10.6564 
  14   2.0000      -0.370532       -10.0827 
  15   2.0000      -0.339276        -9.2322 
  16   2.0000      -0.331828        -9.0295 
  17   2.0000      -0.271984        -7.4011 
  18   2.0000      -0.242316        -6.5937 
  19   2.0000      -0.186373        -5.0715 
  20   0.0000      -0.016205        -0.4410 
  21   0.0000       0.043843         1.1930 
  22   0.0000       0.078573         2.1381 
  23   0.0000       0.115713         3.1487 
  24   0.0000       0.119386         3.2487 
  25   0.0000       0.171431         4.6649 
  26   0.0000       0.184981         5.0336 
  27   0.0000       0.209727         5.7070 
  28   0.0000       0.279104         7.5948 
  29   0.0000       0.352220         9.5844 
  30   0.0000       0.505506        13.7555 
*Only the first 10 virtual orbitals were printed.

                    ********************************
                    * MULLIKEN POPULATION ANALYSIS *
                    ********************************

-----------------------
MULLIKEN ATOMIC CHARGES
-----------------------
   0 C :   -0.172430
   1 C :    0.486767
   2 H :    0.245378
   3 H :    0.245359
   4 N :   -0.559966
   5 O :   -0.459499
   6 H :    0.152248
   7 H :    0.152295
   8 H :    0.319614
   9 O :   -0.409766
Sum of atomic charges:   -0.0000000

--------------------------------
MULLIKEN REDUCED ORBITAL CHARGES
--------------------------------
  0 C s       :     3.222485  s :     3.222485
      pz      :     0.979595  p :     2.899526
      px      :     1.056156
      py      :     0.863774
      dz2     :     0.006316  d :     0.050419
      dxz     :     0.010144
      dyz     :     0.013127
      dx2y2   :     0.011245
      dxy     :     0.009587

  1 C s       :     2.992380  s :     2.992380
      pz      :     0.741109  p :     2.396125
      px      :     0.794683
      py      :     0.860333
      dz2     :     0.035705  d :     0.124728
      dxz     :     0.021252
      dyz     :     0.034087
      dx2y2   :     0.018044
      dxy     :     0.015640

  2 H s       :     0.730685  s :     0.730685
      pz      :     0.007223  p :     0.023937
      px      :     0.010267
      py      :     0.006447

  3 H s       :     0.730702  s :     0.730702
      pz      :     0.008975  p :     0.023939
      px      :     0.007266
      py      :     0.007697

  4 N s       :     3.577384  s :     3.577384
      pz      :     1.352855  p :     3.954220
      px      :     1.160123
      py      :     1.441242
      dz2     :     0.003255  d :     0.028362
      dxz     :     0.010460
      dyz     :     0.004633
      dx2y2   :     0.004785
      dxy     :     0.005229

  5 O s       :     3.817659  s :     3.817659
      pz      :     1.306017  p :     4.619082
      px      :     1.748078
      py      :     1.564987
      dz2     :     0.005486  d :     0.022758
      dxz     :     0.004426
      dyz     :     0.006757
      dx2y2   :     0.003584
      dxy     :     0.002505

  6 H s       :     0.836671  s :     0.836671
      pz      :     0.003417  p :     0.011081
      px      :     0.005276
      py      :     0.002388

  7 H s       :     0.836629  s :     0.836629
      pz      :     0.004640  p :     0.011076
      px      :     0.003947
      py      :     0.002489

  8 H s       :     0.642491  s :     0.642491
      pz      :     0.010785  p :     0.037895
      px      :     0.009830
      py      :     0.017279

  9 O s       :     3.853163  s :     3.853163
      pz      :     1.709874  p :     4.528534
      px      :     1.402543
      py      :     1.416118
      dz2     :     0.003542  d :     0.028068
      dxz     :     0.002563
      dyz     :     0.006640
      dx2y2   :     0.007777
      dxy     :     0.007545



                     *******************************
                     * LOEWDIN POPULATION ANALYSIS *
                     *******************************

----------------------
LOEWDIN ATOMIC CHARGES
----------------------
   0 C :   -0.100300
   1 C :    0.097352
   2 H :    0.126232
   3 H :    0.126236
   4 N :   -0.256581
   5 O :   -0.147295
   6 H :    0.095562
   7 H :    0.095495
   8 H :    0.182045
   9 O :   -0.218746

-------------------------------
LOEWDIN REDUCED ORBITAL CHARGES
-------------------------------
  0 C s       :     2.897068  s :     2.897068
      pz      :     1.038555  p :     3.089958
      px      :     1.074429
      py      :     0.976974
      dz2     :     0.013065  d :     0.113275
      dxz     :     0.021504
      dyz     :     0.032568
      dx2y2   :     0.024974
      dxy     :     0.021164

  1 C s       :     2.861321  s :     2.861321
      pz      :     0.906499  p :     2.743765
      px      :     0.826200
      py      :     1.011066
      dz2     :     0.088617  d :     0.297562
      dxz     :     0.048903
      dyz     :     0.083460
      dx2y2   :     0.040879
      dxy     :     0.035704

  2 H s       :     0.794907  s :     0.794907
      pz      :     0.022623  p :     0.078861
      px      :     0.036066
      py      :     0.020172

  3 H s       :     0.794904  s :     0.794904
      pz      :     0.031315  p :     0.078860
      px      :     0.024254
      py      :     0.023291

  4 N s       :     3.189929  s :     3.189929
      pz      :     1.377829  p :     4.008619
      px      :     1.185250
      py      :     1.445539
      dz2     :     0.005792  d :     0.058034
      dxz     :     0.019583
      dyz     :     0.009845
      dx2y2   :     0.011136
      dxy     :     0.011678

  5 O s       :     3.472693  s :     3.472693
      pz      :     1.344858  p :     4.623933
      px      :     1.716864
      py      :     1.562211
      dz2     :     0.017327  d :     0.050670
      dxz     :     0.009373
      dyz     :     0.015808
      dx2y2   :     0.005128
      dxy     :     0.003033

  6 H s       :     0.865544  s :     0.865544
      pz      :     0.011727  p :     0.038894
      px      :     0.019927
      py      :     0.007240

  7 H s       :     0.865602  s :     0.865602
      pz      :     0.017338  p :     0.038903
      px      :     0.014316
      py      :     0.007248

  8 H s       :     0.701809  s :     0.701809
      pz      :     0.031724  p :     0.116146
      px      :     0.028761
      py      :     0.055661

  9 O s       :     3.553927  s :     3.553927
      pz      :     1.701289  p :     4.606387
      px      :     1.411471
      py      :     1.493627
      dz2     :     0.008162  d :     0.058432
      dxz     :     0.005000
      dyz     :     0.014661
      dx2y2   :     0.014845
      dxy     :     0.015763



                      *****************************
                      * MAYER POPULATION ANALYSIS *
                      *****************************

  NA   - Mulliken gross atomic population
  ZA   - Total nuclear charge
  QA   - Mulliken gross atomic charge
  VA   - Mayer's total valence
  BVA  - Mayer's bonded valence
  FA   - Mayer's free valence

  ATOM       NA         ZA         QA         VA         BVA        FA
  0 C      6.1724     6.0000    -0.1724     3.8698     3.8698    -0.0000
  1 C      5.5132     6.0000     0.4868     3.9621     3.9621     0.0000
  2 H      0.7546     1.0000     0.2454     0.9212     0.9212     0.0000
  3 H      0.7546     1.0000     0.2454     0.9212     0.9212    -0.0000
  4 N      7.5600     7.0000    -0.5600     2.8995     2.8995    -0.0000
  5 O      8.4595     8.0000    -0.4595     2.0573     2.0573    -0.0000
  6 H      0.8478     1.0000     0.1522     0.9462     0.9462    -0.0000
  7 H      0.8477     1.0000     0.1523     0.9461     0.9461    -0.0000
  8 H      0.6804     1.0000     0.3196     0.9173     0.9173    -0.0000
  9 O      8.4098     8.0000    -0.4098     2.0986     2.0986     0.0000

  Mayer bond orders larger than 0.100000
B(  0-C ,  1-C ) :   0.9146 B(  0-C ,  4-N ) :   1.0475 B(  0-C ,  6-H ) :   0.9378 
B(  0-C ,  7-H ) :   0.9378 B(  1-C ,  5-O ) :   1.1006 B(  1-C ,  9-O ) :   1.9164 
B(  2-H ,  4-N ) :   0.9106 B(  3-H ,  4-N ) :   0.9106 B(  5-O ,  8-H ) :   0.8521 


-------
TIMINGS
-------

Total SCF time: 0 days 0 hours 0 min 1 sec 

Total time                  ....       1.754 sec
Sum of individual times     ....       1.593 sec  ( 90.8%)

SCF preparation             ....       0.031 sec  (  1.8%)
Fock matrix formation       ....       1.547 sec  ( 88.2%)
  Startup                   ....       0.000 sec  (  0.0% of F)
  Split-RI-J                ....       0.351 sec  ( 22.7% of F)
  XC integration            ....       1.315 sec  ( 85.0% of F)
    Basis function eval.    ....       0.439 sec  ( 33.4% of XC)
    Density eval.           ....       0.231 sec  ( 17.6% of XC)
    XC-Functional eval.     ....       0.341 sec  ( 26.0% of XC)
    XC-Potential eval.      ....       0.265 sec  ( 20.2% of XC)
Diagonalization             ....       0.000 sec  (  0.0%)
Density matrix formation    ....       0.002 sec  (  0.1%)
Total Energy calculation    ....       0.000 sec  (  0.0%)
Population analysis         ....       0.001 sec  (  0.1%)
Orbital Transformation      ....       0.001 sec  (  0.1%)
Orbital Orthonormalization  ....       0.000 sec  (  0.0%)
DIIS solution               ....       0.007 sec  (  0.4%)
SOSCF solution              ....       0.002 sec  (  0.1%)
Finished LeanSCF after   1.8 sec

Maximum memory used throughout the entire LEANSCF-calculation: 10.2 MB



-------------------------------------------------------------------------------
                          DFT DISPERSION CORRECTION                            
-------------------------------------------------------------------------------
Active option DFTDOPT                   ...         2   
Final C6-coefficient scaling factor     ...     1.250
Final VDW-radii scaling factor          ...     1.100
Damping factor alpha                    ...    20.000
-------------------------   ----------------
Dispersion correction           -0.007248638
-------------------------   ----------------


-------------------------   --------------------
FINAL SINGLE POINT ENERGY      -284.250124601109
-------------------------   --------------------

------------------------------------------------------------------------------
                         ORCA SCF GRADIENT CALCULATION
------------------------------------------------------------------------------

Nuc. rep. gradient        (SHARK) ... done (  0.0 sec)
HCore & Overlap gradient  (SHARK) ... done (  0.0 sec)
Split-RIJ-J gradient      (SHARK) ... done (  0.2 sec)
XC gradient                       ... done (  0.7 sec)
Dispersion correction             ... done (  0.0 sec)

-------------------
DISPERSION GRADIENT
-------------------

   1   C   :   -0.000064796   -0.000062494    0.000547423
   2   C   :    0.000005445    0.000229107   -0.000602098
   3   H   :   -0.000264075    0.000818648    0.000211451
   4   H   :   -0.000441248    0.000749224    0.000183921
   5   N   :    0.000521783   -0.001176155   -0.000244463
   6   O   :    0.000125670   -0.000222708   -0.000221102
   7   H   :   -0.000620017   -0.000160827   -0.000269982
   8   H   :    0.000602708    0.000339365   -0.000064219
   9   H   :    0.000162583   -0.000269058   -0.000328310
  10   O   :   -0.000028054   -0.000245101    0.000787380

Difference to translation invariance:
           :   -0.0000000000   -0.0000000000    0.0000000000

Difference to rotation invariance:
           :    0.0000000000   -0.0000000000    0.0000000000

Norm of the Dispersion gradient    ...    0.0024454280
RMS gradient                       ...    0.0004464720
MAX gradient                       ...    0.0011761555

------------------
CARTESIAN GRADIENT
------------------

   1   C   :    0.002625685   -0.004633739   -0.004794957
   2   C   :    0.001722744   -0.004860522    0.001512511
   3   H   :    0.000987099    0.001341415   -0.002876334
   4   H   :   -0.000800100    0.000562631   -0.003198531
   5   N   :    0.004652091   -0.013809903    0.006202996
   6   O   :    0.009740573   -0.014715199   -0.023243719
   7   H   :   -0.003317627    0.001120467    0.003219306
   8   H   :    0.000586003    0.002819590    0.003839595
   9   H   :   -0.002950731    0.005793831    0.003756699
  10   O   :   -0.013245736    0.026381429    0.015582434

Difference to translation invariance:
           :    0.0000000000   -0.0000000000   -0.0000000000

Difference to rotation invariance:
           :    0.0000249688   -0.0000239255   -0.0001574892

Norm of the Cartesian gradient     ...    0.0492065283
RMS gradient                       ...    0.0089838418
MAX gradient                       ...    0.0263814290

-------
TIMINGS
-------

Total SCF gradient time     ....        0.837 sec

Densities                   ....       0.000 sec  (  0.0%)
One electron gradient       ....       0.022 sec  (  2.7%)
RI-J Coulomb gradient       ....       0.152 sec  ( 18.1%)
XC gradient                 ....       0.663 sec  ( 79.2%)

Maximum memory used throughout the entire SCFGRAD-calculation: 13.4 MB
------------------------------------------------------------------------------
                         ORCA GEOMETRY RELAXATION STEP
------------------------------------------------------------------------------

Reading the OPT-File                    .... done
Getting information on internals        .... done
Copying old internal coords+grads       .... done
Making the new internal coordinates     .... (2022 redundants) done
Validating the new internal coordinates .... (2022 redundants) done
Calculating the B-matrix                .... done
Calculating the G,G- and P matrices     .... done
Transforming gradient to internals      .... done
Projecting the internal gradient        .... done
Number of atoms                         ....  10
Number of internal coordinates          ....  34
Current Energy                          ....  -284.250124601 Eh
Current gradient norm                   ....     0.049206528 Eh/bohr
Maximum allowed component of the step   ....  0.300
Current trust radius                    ....  0.300
Evaluating the initial hessian          ....  (Almloef) done
Projecting the Hessian                  .... done
Forming the augmented Hessian           .... done
Diagonalizing the augmented Hessian     .... done
Last element of RFO vector              ....  0.995334998
Lowest eigenvalues of augmented Hessian:
 -0.003859092  0.011083860  0.017338496  0.017844683  0.033274126
Length of the computed step             ....  0.096931417
The final length of the internal step   ....  0.096931417
Converting the step to Cartesian space:
 Initial RMS(Int)=    0.0166236009
Transforming coordinates:
 Iter   0:  RMS(Cart)=    0.0374156793 RMS(Int)=    1.0771819308
done
Storing new coordinates                 .... done

                                .--------------------.
          ----------------------|Geometry convergence|-------------------------
          Item                value                   Tolerance       Converged
          ---------------------------------------------------------------------
          RMS gradient        0.0082849691            0.0001000000      NO
          MAX gradient        0.0331326078            0.0003000000      NO
          RMS step            0.0166236009            0.0020000000      NO
          MAX step            0.0390568321            0.0040000000      NO
          -------------------------------------------------------------------------
          ........................................................
          Max(Bonds)      0.0170      Max(Angles)    2.24
          Max(Dihed)        1.23      Max(Improp)    0.00
          ---------------------------------------------------------------------

The optimization has not yet converged - more geometry cycles are needed


    ---------------------------------------------------------------------------
                         Redundant Internal Coordinates
                            (Angstroem and degrees)

        Definition                    Value    dE/dq     Step     New-Value
    ----------------------------------------------------------------------------
     1. B(C   1,C   0)                1.5213 -0.012526  0.0170    1.5383   
     2. B(N   4,H   2)                1.0144 -0.002524  0.0031    1.0175   
     3. B(N   4,C   0)                1.4450 -0.011119  0.0128    1.4577   
     4. B(N   4,H   3)                1.0144 -0.002569  0.0032    1.0176   
     5. B(O   5,C   1)                1.3413 -0.021456  0.0169    1.3581   
     6. B(H   6,C   0)                1.0949 -0.003928  0.0058    1.1007   
     7. B(H   7,C   0)                1.0948 -0.003944  0.0058    1.1006   
     8. B(H   8,O   5)                0.9697 -0.003517  0.0037    0.9734   
     9. B(O   9,C   1)                1.2011 -0.033133  0.0156    1.2167   
    10. A(N   4,C   0,H   7)          109.03  0.000741    0.04    109.07   
    11. A(C   1,C   0,H   7)          107.35  0.005225   -0.83    106.51   
    12. A(C   1,C   0,N   4)          116.66 -0.012491    2.24    118.90   
    13. A(H   6,C   0,H   7)          107.08  0.000776   -0.92    106.15   
    14. A(C   1,C   0,H   6)          107.30  0.005203   -0.81    106.49   
    15. A(N   4,C   0,H   6)          109.03  0.001535    0.02    109.05   
    16. A(C   0,C   1,O   9)          125.02  0.004517   -0.56    124.45   
    17. A(C   0,C   1,O   5)          112.41  0.000176   -0.00    112.41   
    18. A(O   5,C   1,O   9)          122.57 -0.004693    0.57    123.14   
    19. A(C   0,N   4,H   3)          110.40  0.000660   -0.36    110.04   
    20. A(C   0,N   4,H   2)          110.40  0.000721   -0.37    110.03   
    21. A(H   2,N   4,H   3)          107.29  0.000917   -0.72    106.57   
    22. A(C   1,O   5,H   8)          110.30  0.012156   -1.85    108.45   
    23. D(O   5,C   1,C   0,N   4)     -0.19 -0.000183   -0.04     -0.24   
    24. D(O   9,C   1,C   0,N   4)    179.81  0.000975   -0.34    179.47   
    25. D(O   9,C   1,C   0,H   6)    -57.61 -0.001495    0.59    -57.02   
    26. D(O   5,C   1,C   0,H   6)    122.39 -0.002653    0.88    123.27   
    27. D(O   5,C   1,C   0,H   7)   -122.81  0.003329   -0.98   -123.79   
    28. D(H   2,N   4,C   0,H   6)    179.25 -0.000046    0.12    179.37   
    29. D(H   2,N   4,C   0,C   1)    -59.07 -0.000836    0.66    -58.41   
    30. D(H   3,N   4,C   0,H   6)    -62.28  0.001950   -1.23    -63.51   
    31. D(H   3,N   4,C   0,C   1)     59.40  0.001160   -0.69     58.71   
    32. D(H   2,N   4,C   0,H   7)     62.67 -0.002245    1.19     63.86   
    33. D(H   8,O   5,C   1,O   9)      0.03 -0.000545    0.12      0.14   
    34. D(H   8,O   5,C   1,C   0)   -179.97  0.000580   -0.17   -180.14   
    ----------------------------------------------------------------------------

Geometry step timings:
Preparation and reading OPT file:      0.000 s ( 2.759 %)
Internal coordinates            :      0.000 s ( 2.069 %)
B/P matrices and projection     :      0.000 s (28.276 %)
Hessian update/contruction      :      0.000 s (12.414 %)
Making the step                 :      0.000 s (25.287 %)
Converting the step to Cartesian:      0.000 s ( 4.828 %)
Storing new data                :      0.000 s ( 2.759 %)
Checking convergence            :      0.000 s ( 2.529 %)
Final printing                  :      0.000 s (19.080 %)
Total time                      :      0.000 s

Time for energy+gradient        :      2.943 s
Time for complete geometry iter :      2.956 s

         *************************************************************
         *                GEOMETRY OPTIMIZATION CYCLE   2            *
         *************************************************************
---------------------------------
CARTESIAN COORDINATES (ANGSTROEM)
---------------------------------
  C     -4.973075   -1.290856   -0.259465
  C     -4.604316   -2.529514    0.574839
  H     -6.414699   -0.407408    0.888425
  H     -4.922595    0.205478    1.131758
  N     -5.556647   -0.136741    0.413187
  O     -4.883474   -2.366977    1.893989
  H     -4.053400   -0.977877   -0.776928
  H     -5.663149   -1.636566   -1.044134
  H     -4.631219   -3.180684    2.364847
  O     -4.121713   -3.548541    0.117709

----------------------------
CARTESIAN COORDINATES (A.U.)
----------------------------
  NO LB      ZA    FRAG     MASS         X           Y           Z
   0 C     6.0000    0    12.011   -9.397750   -2.439365   -0.490318
   1 C     6.0000    0    12.011   -8.700896   -4.780089    1.086289
   2 H     1.0000    0     1.008  -12.122024   -0.769889    1.678880
   3 H     1.0000    0     1.008   -9.302356    0.388297    2.138713
   4 N     7.0000    0    14.007  -10.500542   -0.258403    0.780810
   5 O     8.0000    0    15.999   -9.228429   -4.472938    3.579121
   6 H     1.0000    0     1.008   -7.659815   -1.847919   -1.468181
   7 H     1.0000    0     1.008  -10.701800   -3.092661   -1.973128
   8 H     1.0000    0     1.008   -8.751736   -6.010622    4.468914
   9 O     8.0000    0    15.999   -7.788909   -6.705770    0.222439

--------------------------------
INTERNAL COORDINATES (ANGSTROEM)
--------------------------------
 C      0   0   0     0.000000000000     0.00000000     0.00000000
 C      1   0   0     1.538284767370     0.00000000     0.00000000
 H      1   2   0     2.043627033887   102.27228473     0.00000000
 H      3   1   2     1.631322645983    66.48268968    95.58328475
 N      3   1   2     1.017528401773    42.07995680   130.24984745
 O      2   1   3     1.358125207866   112.40522056   335.69634621
 H      1   2   3     1.100694184513   106.47770300   147.56518508
 H      1   2   3     1.100646273071   106.50141893   260.51965936
 H      6   2   1     0.973375594993   108.45382839   179.85977952
 O      2   1   3     1.216671115991   124.45267355   155.40944713

---------------------------
INTERNAL COORDINATES (A.U.)
---------------------------
 C      0   0   0     0.000000000000     0.00000000     0.00000000
 C      1   0   0     2.906936926312     0.00000000     0.00000000
 H      1   2   0     3.861895413924   102.27228473     0.00000000
 H      3   1   2     3.082753036971    66.48268968    95.58328475
 N      3   1   2     1.922850012838    42.07995680   130.24984745
 O      2   1   3     2.566484698441   112.40522056   335.69634621
 H      1   2   3     2.080010565929   106.47770300   147.56518508
 H      1   2   3     2.079920026425   106.50141893   260.51965936
 H      6   2   1     1.839413299979   108.45382839   179.85977952
 O      2   1   3     2.299175204276   124.45267355   155.40944713

------------------------------------------------------------------------------
                   ___                                                        
                  /   \      - P O W E R E D   B Y -                         
                 /     \                                                     
                 |  |  |   _    _      __       _____    __    __             
                 |  |  |  | |  | |    /  \     |  _  \  |  |  /  |          
                  \  \/   | |  | |   /    \    | | | |  |  | /  /          
                 / \  \   | |__| |  /  /\  \   | |_| |  |  |/  /          
                |  |  |   |  __  | /  /__\  \  |    /   |      \           
                |  |  |   | |  | | |   __   |  |    \   |  |\   \          
                \     /   | |  | | |  |  |  |  | |\  \  |  | \   \       
                 \___/    |_|  |_| |__|  |__|  |_| \__\ |__|  \__/        
                                                                              
                      - O R C A' S   B I G   F R I E N D -                    
                                      &                                       
                       - I N T E G R A L  F E E D E R -                       
                                                                              
 v1 FN, 2020, v2 2021, v3 2022-2024                                           
------------------------------------------------------------------------------


----------------------
SHARK INTEGRAL PACKAGE
----------------------

Number of atoms                             ...     10
Number of basis functions                   ...     95
Number of shells                            ...     45
Maximum angular momentum                    ...      2
Integral batch strategy                     ... SHARK/LIBINT Hybrid
RI-J (if used) integral strategy            ... SPLIT-RIJ (Revised 2003 algorithm where possible)
Printlevel                                  ...      1
Contraction scheme used                     ... SEGMENTED contraction
Prescreening option                         ... SCHWARTZ
   Thresh                                   ... 2.500e-11
   Tcut                                     ... 2.500e-12
   Tpresel                                  ... 2.500e-12 
Coulomb Range Separation                    ... NOT USED
Exchange Range Separation                   ... NOT USED
Multipole approximations                    ... NOT USED
Finite Nucleus Model                        ... NOT USED
CABS basis                                  ... NOT available
Auxiliary Coulomb fitting basis             ... AVAILABLE
   # of basis functions in Aux-J            ...    300
   # of shells in Aux-J                     ...    100
   Maximum angular momentum in Aux-J        ...      4
Auxiliary J/K fitting basis                 ... NOT available
Auxiliary Correlation fitting basis         ... NOT available
Auxiliary 'external' fitting basis          ... NOT available

Checking pre-screening integrals            ... done (  0.0 sec) Dimension = 45
   => SHARK Basis and OBASIS are compatible. Storing Pre-screening
Shell pair information
Shell pair cut-off parameter TPreSel        ...   2.5e-12
Total number of shell pairs                 ...      1035
Shell pairs after pre-screening             ...      1012
Total number of primitive shell pairs       ...      5170
Primitive shell pairs kept                  ...      3747
          la=0 lb=0:    314 shell pairs
          la=1 lb=0:    365 shell pairs
          la=1 lb=1:    120 shell pairs
          la=2 lb=0:    123 shell pairs
          la=2 lb=1:     75 shell pairs
          la=2 lb=2:     15 shell pairs

Checking whether 4 symmetric matrices of dimension 95 fit in memory
:Max Core in MB      =   4096.00
 MB in use           =      4.78
 MB left             =   4091.22
 MB needed           =      0.14
 Data fit in memory  = YES
Calculating RI/J V-Matrix + Cholesky decomp.... done (  0.0 sec)
Calculating Nuclear repulsion               ... done (  0.0 sec) ENN=    178.273451530727 Eh

Diagonalization of the overlap matrix:
Smallest eigenvalue                        ... 4.574e-03
Time for diagonalization                   ...    0.001 sec
Threshold for overlap eigenvalues          ... 1.000e-07
Number of eigenvalues below threshold      ... 0
Time for construction of square roots      ...    0.000 sec
Total time needed                          ...    0.001 sec

-------------------
DFT GRID GENERATION
-------------------

General Integration Accuracy     IntAcc      ... 4.388
Radial Grid Type                 RadialGrid  ... OptM3 with GC (2021)
Angular Grid (max. ang.)         AngularGrid ... 4 (Lebedev-302)
Angular grid pruning method      GridPruning ... 4 (adaptive)
Weight generation scheme         WeightScheme... mBecke (2022)
Basis function cutoff            BFCut       ... 1.0000e-11
Integration weight cutoff        WCut        ... 1.0000e-14
Partially contracted basis set               ... off
Rotationally invariant grid construction     ... off
Angular grids for H and He will be reduced by one unit

Total number of grid points                  ...    46649
Total number of batches                      ...      734
Average number of points per batch           ...       63
Average number of grid points per atom       ...     4665
Grids setup in   0.1 sec
Initializing property integral containers    ... done (  0.0 sec)

SHARK setup successfully completed in   0.2 seconds

Maximum memory used throughout the entire STARTUP-calculation: 20.0 MB
Occupation numbers will be reassigned to an Aufbau configuration
             **** ENERGY FILE WAS UPDATED (1.en.tmp) ****
Finished Guess after   0.0 sec
Maximum memory used throughout the entire GUESS-calculation: 7.9 MB
----------------------------------------D-I-I-S--------------------------------------------
Iteration    Energy (Eh)           Delta-E    RMSDP     MaxDP     DIISErr   Damp  Time(sec)
-------------------------------------------------------------------------------------------
               ***  Starting incremental Fock matrix formation  ***
    1    -284.2442232615196644     0.00e+00  2.50e-04  3.27e-03  9.49e-03  0.700   0.2
    2    -284.2445319304106306    -3.09e-04  2.41e-04  3.33e-03  7.21e-03  0.700   0.1
                               ***Turning on AO-DIIS***
    3    -284.2447558845098001    -2.24e-04  1.89e-04  2.53e-03  5.17e-03  0.700   0.1
    4    -284.2449107482339059    -1.55e-04  4.65e-04  6.30e-03  3.64e-03  0.000   0.1
                              *** Initializing SOSCF ***
---------------------------------------S-O-S-C-F--------------------------------------
Iteration    Energy (Eh)           Delta-E    RMSDP     MaxDP     MaxGrad    Time(sec)
--------------------------------------------------------------------------------------
    5    -284.2452731278076499    -3.62e-04  3.14e-05  6.58e-04  6.20e-04     0.1
               *** Restarting incremental Fock matrix formation ***
    6    -284.2452735884531876    -4.61e-07  4.81e-05  1.20e-03  2.60e-04     0.2
    7    -284.2452708506740464     2.74e-06  3.59e-05  8.85e-04  8.21e-04     0.1
    8    -284.2452740073657651    -3.16e-06  1.08e-05  1.61e-04  4.38e-05     0.1
    9    -284.2452739685727465     3.88e-08  6.29e-06  9.93e-05  6.76e-05     0.1
   10    -284.2452740463776308    -7.78e-08  1.63e-06  3.24e-05  6.61e-06     0.1
   11    -284.2452740460756786     3.02e-10  9.97e-07  2.16e-05  1.16e-05     0.1
                 **** Energy Check signals convergence ****

               *****************************************************
               *                     SUCCESS                       *
               *           SCF CONVERGED AFTER  11 CYCLES          *
               *****************************************************

             **** ENERGY FILE WAS UPDATED (1.en.tmp) ****

----------------
TOTAL SCF ENERGY
----------------

Total Energy       :       -284.24527404819651 Eh           -7734.70713 eV

Components:
Nuclear Repulsion  :        178.27345153072750 Eh            4851.06724 eV
Electronic Energy  :       -462.51872557892398 Eh          -12585.77437 eV
One Electron Energy:       -741.12590707133779 Eh          -20167.06120 eV
Two Electron Energy:        278.60718149241382 Eh            7581.28683 eV

Virial components:
Potential Energy   :       -566.85727772039422 Eh          -15424.97072 eV
Kinetic Energy     :        282.61200367219772 Eh            7690.26359 eV
Virial Ratio       :          2.00577919676014

DFT components:
N(Alpha)           :       19.999989814738 electrons
N(Beta)            :       19.999989814738 electrons
N(Total)           :       39.999979629476 electrons
E(X)               :      -34.889560175904 Eh       
E(C)               :       -1.782016625895 Eh       
E(XC)              :      -36.671576801800 Eh       

---------------
SCF CONVERGENCE
---------------

  Last Energy change         ...   -3.0195e-10  Tolerance :   1.0000e-08
  Last MAX-Density change    ...    2.1632e-05  Tolerance :   1.0000e-07
  Last RMS-Density change    ...    9.9747e-07  Tolerance :   5.0000e-09
  Last DIIS Error            ...    6.1960e-04  Tolerance :   5.0000e-07
  Last Orbital Gradient      ...    1.1557e-05  Tolerance :   1.0000e-05
  Last Orbital Rotation      ...    1.0583e-05  Tolerance :   1.0000e-05


Total SCF time: 0 days 0 hours 0 min 1 sec 
Finished LeanSCF after   1.7 sec

Maximum memory used throughout the entire LEANSCF-calculation: 10.3 MB



-------------------------------------------------------------------------------
                          DFT DISPERSION CORRECTION                            
-------------------------------------------------------------------------------
-------------------------   ----------------
Dispersion correction           -0.007182425
-------------------------   ----------------


-------------------------   --------------------
FINAL SINGLE POINT ENERGY      -284.252456473332
-------------------------   --------------------

------------------------------------------------------------------------------
                         ORCA SCF GRADIENT CALCULATION
------------------------------------------------------------------------------

Nuc. rep. gradient        (SHARK) ... done (  0.0 sec)
HCore & Overlap gradient  (SHARK) ... done (  0.0 sec)
Split-RIJ-J gradient      (SHARK) ... done (  0.2 sec)
XC gradient                       ... done (  0.7 sec)
Dispersion correction             ... done (  0.0 sec)

-------------------
DISPERSION GRADIENT
-------------------

   1   C   :   -0.000061751   -0.000090811    0.000594596
   2   C   :   -0.000023550    0.000312283   -0.000630347
   3   H   :   -0.000261457    0.000827313    0.000174974
   4   H   :   -0.000440122    0.000754414    0.000146989
   5   N   :    0.000538483   -0.001168079   -0.000359533
   6   O   :    0.000195691   -0.000411886   -0.000175975
   7   H   :   -0.000650864   -0.000156959   -0.000216039
   8   H   :    0.000605409    0.000360863   -0.000004941
   9   H   :    0.000150028   -0.000240965   -0.000324983
  10   O   :   -0.000051867   -0.000186173    0.000795258

Difference to translation invariance:
           :   -0.0000000000   -0.0000000000    0.0000000000

Difference to rotation invariance:
           :   -0.0000000000   -0.0000000000    0.0000000000

Norm of the Dispersion gradient    ...    0.0025098031
RMS gradient                       ...    0.0004582253
MAX gradient                       ...    0.0011680788

------------------
CARTESIAN GRADIENT
------------------

   1   C   :    0.001155231   -0.002500853   -0.002561222
   2   C   :   -0.001352905    0.003830819    0.003259815
   3   H   :   -0.000116029    0.001205439   -0.001467546
   4   H   :   -0.000328816    0.001092881   -0.001488930
   5   N   :    0.000770177   -0.003462441    0.003941684
   6   O   :    0.003974516   -0.007021923   -0.008212514
   7   H   :   -0.000455484    0.001138116    0.000638139
   8   H   :   -0.000662195    0.001175979    0.000508128
   9   H   :   -0.001572050    0.002650322    0.003093905
  10   O   :   -0.001412445    0.001891661    0.002288540

Difference to translation invariance:
           :    0.0000000000    0.0000000000   -0.0000000000

Difference to rotation invariance:
           :    0.0000529138    0.0000111138   -0.0001248353

Norm of the Cartesian gradient     ...    0.0155870646
RMS gradient                       ...    0.0028457956
MAX gradient                       ...    0.0082125139

-------
TIMINGS
-------

Total SCF gradient time     ....        0.830 sec

Densities                   ....       0.000 sec  (  0.0%)
One electron gradient       ....       0.022 sec  (  2.7%)
RI-J Coulomb gradient       ....       0.153 sec  ( 18.4%)
XC gradient                 ....       0.655 sec  ( 78.9%)

Maximum memory used throughout the entire SCFGRAD-calculation: 13.4 MB
------------------------------------------------------------------------------
                         ORCA GEOMETRY RELAXATION STEP
------------------------------------------------------------------------------

Reading the OPT-File                    .... done
Getting information on internals        .... done
Copying old internal coords+grads       .... done
Making the new internal coordinates     .... (2022 redundants) done
Validating the new internal coordinates .... (2022 redundants) done
Calculating the B-matrix                .... done
Calculating the G,G- and P matrices     .... done
Transforming gradient to internals      .... done
Projecting the internal gradient        .... done
Number of atoms                         ....  10
Number of internal coordinates          ....  34
Current Energy                          ....  -284.252456473 Eh
Current gradient norm                   ....     0.015587065 Eh/bohr
Maximum allowed component of the step   ....  0.300
Current trust radius                    ....  0.300
Updating the Hessian (BFGS)             .... done
Forming the augmented Hessian           .... done
Diagonalizing the augmented Hessian     .... done
Last element of RFO vector              ....  0.998140610
Lowest eigenvalues of augmented Hessian:
 -0.000539895  0.011083847  0.017343546  0.017844645  0.033274102
Length of the computed step             ....  0.061066999
The final length of the internal step   ....  0.061066999
Converting the step to Cartesian space:
 Initial RMS(Int)=    0.0104729040
Transforming coordinates:
 Iter   0:  RMS(Cart)=    0.0103240208 RMS(Int)=    1.5216366157
done
Storing new coordinates                 .... done
The predicted energy change is          ....    -0.000270954
Previously predicted energy change      ....    -0.001947675
Actually observed energy change         ....    -0.002331872
Ratio of predicted to observed change   ....     1.197259180
New trust radius                        ....     0.450000000

                                .--------------------.
          ----------------------|Geometry convergence|-------------------------
          Item                value                   Tolerance       Converged
          ---------------------------------------------------------------------
          Energy change      -0.0023318722            0.0000050000      NO
          RMS gradient        0.0019940106            0.0001000000      NO
          MAX gradient        0.0077630993            0.0003000000      NO
          RMS step            0.0104729040            0.0020000000      NO
          MAX step            0.0290898475            0.0040000000      NO
          -------------------------------------------------------------------------
          ........................................................
          Max(Bonds)      0.0073      Max(Angles)    1.67
          Max(Dihed)        1.05      Max(Improp)    0.00
          ---------------------------------------------------------------------

The optimization has not yet converged - more geometry cycles are needed


    ---------------------------------------------------------------------------
                         Redundant Internal Coordinates
                            (Angstroem and degrees)

        Definition                    Value    dE/dq     Step     New-Value
    ----------------------------------------------------------------------------
     1. B(C   1,C   0)                1.5383 -0.000941  0.0029    1.5412   
     2. B(N   4,H   2)                1.0175 -0.000904  0.0017    1.0192   
     3. B(N   4,C   0)                1.4577 -0.000598  0.0018    1.4595   
     4. B(N   4,H   3)                1.0176 -0.000894  0.0017    1.0192   
     5. B(O   5,C   1)                1.3581 -0.005987  0.0073    1.3654   
     6. B(H   6,C   0)                1.1007 -0.000357  0.0011    1.1018   
     7. B(H   7,C   0)                1.1006 -0.000316  0.0010    1.1017   
     8. B(H   8,O   5)                0.9734 -0.001127  0.0018    0.9752   
     9. B(O   9,C   1)                1.2167 -0.003005  0.0030    1.2196   
    10. A(N   4,C   0,H   7)          109.07 -0.000894    0.26    109.33   
    11. A(C   1,C   0,H   7)          106.50  0.001841   -0.48    106.02   
[...]
----------------

Total Energy       :       -284.24566293228554 Eh           -7734.71771 eV

Components:
Nuclear Repulsion  :        177.93202255819040 Eh            4841.77648 eV
Electronic Energy  :       -462.17768549047594 Eh          -12576.49420 eV
One Electron Energy:       -740.40733932699777 Eh          -20147.50798 eV
Two Electron Energy:        278.22965383652183 Eh            7571.01378 eV

Virial components:
Potential Energy   :       -566.82771996511838 Eh          -15424.16641 eV
Kinetic Energy     :        282.58205703283278 Eh            7689.44870 eV
Virial Ratio       :          2.00588716041252

DFT components:
N(Alpha)           :       19.999989661667 electrons
N(Beta)            :       19.999989661667 electrons
N(Total)           :       39.999979323334 electrons
E(X)               :      -34.878434136945 Eh       
E(C)               :       -1.781879631021 Eh       
E(XC)              :      -36.660313767967 Eh       

---------------
SCF CONVERGENCE
---------------

  Last Energy change         ...   -9.3694e-09  Tolerance :   1.0000e-08
  Last MAX-Density change    ...    7.9502e-05  Tolerance :   1.0000e-07
  Last RMS-Density change    ...    5.7922e-06  Tolerance :   5.0000e-09
  Last DIIS Error            ...    7.0460e-04  Tolerance :   5.0000e-07
  Last Orbital Gradient      ...    6.3220e-05  Tolerance :   1.0000e-05
  Last Orbital Rotation      ...    6.0551e-05  Tolerance :   1.0000e-05


----------------
ORBITAL ENERGIES
----------------

  NO   OCC          E(Eh)            E(eV) 
   0   2.0000     -18.820091      -512.1207 
   1   2.0000     -18.758640      -510.4486 
   2   2.0000     -13.997502      -380.8914 
   3   2.0000     -10.037013      -273.1210 
   4   2.0000      -9.951780      -270.8017 
   5   2.0000      -1.013981       -27.5918 
   6   2.0000      -0.928847       -25.2752 
   7   2.0000      -0.813741       -22.1430 
   8   2.0000      -0.644542       -17.5389 
   9   2.0000      -0.555016       -15.1028 
  10   2.0000      -0.454929       -12.3793 
  11   2.0000      -0.438074       -11.9206 
  12   2.0000      -0.422272       -11.4906 
  13   2.0000      -0.388372       -10.5681 
  14   2.0000      -0.368120       -10.0171 
  15   2.0000      -0.345793        -9.4095 
  16   2.0000      -0.329643        -8.9701 
  17   2.0000      -0.273728        -7.4485 
  18   2.0000      -0.247376        -6.7314 
  19   2.0000      -0.194844        -5.3020 
  20   0.0000      -0.025418        -0.6917 
  21   0.0000       0.042371         1.1530 
  22   0.0000       0.077122         2.0986 
  23   0.0000       0.111399         3.0313 
  24   0.0000       0.116915         3.1814 
  25   0.0000       0.163789         4.4569 
  26   0.0000       0.174419         4.7462 
  27   0.0000       0.186144         5.0652 
  28   0.0000       0.264353         7.1934 
  29   0.0000       0.340931         9.2772 
  30   0.0000       0.504730        13.7344 
*Only the first 10 virtual orbitals were printed.

                    ********************************
                    * MULLIKEN POPULATION ANALYSIS *
                    ********************************

-----------------------
MULLIKEN ATOMIC CHARGES
-----------------------
   0 C :   -0.171655
   1 C :    0.491977
   2 H :    0.246224
   3 H :    0.246191
   4 N :   -0.557380
   5 O :   -0.469004
   6 H :    0.153483
   7 H :    0.153548
   8 H :    0.321058
   9 O :   -0.414441
Sum of atomic charges:   -0.0000000

--------------------------------
MULLIKEN REDUCED ORBITAL CHARGES
--------------------------------
  0 C s       :     3.230640  s :     3.230640
      pz      :     0.981719  p :     2.891907
      px      :     1.054813
      py      :     0.855374
      dz2     :     0.005866  d :     0.049108
      dxz     :     0.009804
      dyz     :     0.012811
      dx2y2   :     0.011240
      dxy     :     0.009387

  1 C s       :     3.016997  s :     3.016997
      pz      :     0.729673  p :     2.372945
      px      :     0.790618
      py      :     0.852654
      dz2     :     0.034178  d :     0.118080
      dxz     :     0.019997
      dyz     :     0.031911
      dx2y2   :     0.017120
      dxy     :     0.014875

  2 H s       :     0.730135  s :     0.730135
      pz      :     0.007255  p :     0.023641
      px      :     0.010067
      py      :     0.006318

  3 H s       :     0.730171  s :     0.730171
      pz      :     0.009007  p :     0.023639
      px      :     0.007293
      py      :     0.007339

  4 N s       :     3.603499  s :     3.603499
      pz      :     1.352475  p :     3.924761
      px      :     1.158883
      py      :     1.413403
      dz2     :     0.003594  d :     0.029120
      dxz     :     0.010737
      dyz     :     0.004561
      dx2y2   :     0.004825
      dxy     :     0.005404

  5 O s       :     3.837433  s :     3.837433
      pz      :     1.322949  p :     4.608420
      px      :     1.745965
      py      :     1.539506
      dz2     :     0.006231  d :     0.023151
      dxz     :     0.004323
      dyz     :     0.006072
      dx2y2   :     0.003786
      dxy     :     0.002739

  6 H s       :     0.835500  s :     0.835500
      pz      :     0.003479  p :     0.011017
      px      :     0.005294
      py      :     0.002244

  7 H s       :     0.835436  s :     0.835436
      pz      :     0.004677  p :     0.011016
      px      :     0.003821
      py      :     0.002519

  8 H s       :     0.641574  s :     0.641574
      pz      :     0.009576  p :     0.037368
      px      :     0.009896
      py      :     0.017896

  9 O s       :     3.867282  s :     3.867282
      pz      :     1.697683  p :     4.519778
      px      :     1.404694
      py      :     1.417400
      dz2     :     0.003577  d :     0.027381
      dxz     :     0.002638
      dyz     :     0.006538
      dx2y2   :     0.007423
      dxy     :     0.007205



                     *******************************
                     * LOEWDIN POPULATION ANALYSIS *
                     *******************************

----------------------
LOEWDIN ATOMIC CHARGES
----------------------
   0 C :   -0.102104
   1 C :    0.119700
   2 H :    0.128962
   3 H :    0.128979
   4 N :   -0.260129
   5 O :   -0.166457
   6 H :    0.096473
   7 H :    0.096479
   8 H :    0.184440
   9 O :   -0.226342

-------------------------------
LOEWDIN REDUCED ORBITAL CHARGES
-------------------------------
  0 C s       :     2.905906  s :     2.905906
      pz      :     1.039331  p :     3.087202
      px      :     1.075730
      py      :     0.972141
      dz2     :     0.011978  d :     0.108996
      dxz     :     0.020407
      dyz     :     0.031320
      dx2y2   :     0.024716
      dxy     :     0.020575

  1 C s       :     2.877700  s :     2.877700
      pz      :     0.896800  p :     2.724376
      px      :     0.823310
      py      :     1.004266
      dz2     :     0.084087  d :     0.278223
      dxz     :     0.045416
      dyz     :     0.076938
      dx2y2   :     0.038217
      dxy     :     0.033566

  2 H s       :     0.793802  s :     0.793802
      pz      :     0.022847  p :     0.077236
      px      :     0.034837
      py      :     0.019552

  3 H s       :     0.793800  s :     0.793800
      pz      :     0.031579  p :     0.077220
      px      :     0.023858
      py      :     0.021784

  4 N s       :     3.214493  s :     3.214493
      pz      :     1.377500  p :     3.988191
      px      :     1.185718
      py      :     1.424972
      dz2     :     0.005928  d :     0.057445
      dxz     :     0.019458
      dyz     :     0.009364
      dx2y2   :     0.010977
      dxy     :     0.011718

  5 O s       :     3.499696  s :     3.499696
      pz      :     1.361107  p :     4.618402
      px      :     1.717928
      py      :     1.539368
      dz2     :     0.017566  d :     0.048358
      dxz     :     0.008644
      dyz     :     0.013305
      dx2y2   :     0.005443
      dxy     :     0.003402

  6 H s       :     0.865082  s :     0.865082
      pz      :     0.011855  p :     0.038445
      px      :     0.019958
      py      :     0.006632

  7 H s       :     0.865071  s :     0.865071
      pz      :     0.017396  p :     0.038450
      px      :     0.013689
      py      :     0.007365

  8 H s       :     0.701445  s :     0.701445
      pz      :     0.027498  p :     0.114115
      px      :     0.028873
      py      :     0.057745

  9 O s       :     3.568447  s :     3.568447
      pz      :     1.694462  p :     4.601709
      px      :     1.414254
      py      :     1.492993
      dz2     :     0.007815  d :     0.056186
      dxz     :     0.005029
      dyz     :     0.014344
      dx2y2   :     0.013983
      dxy     :     0.015015



                      *****************************
                      * MAYER POPULATION ANALYSIS *
                      *****************************

  NA   - Mulliken gross atomic population
  ZA   - Total nuclear charge
  QA   - Mulliken gross atomic charge
  VA   - Mayer's total valence
  BVA  - Mayer's bonded valence
  FA   - Mayer's free valence

  ATOM       NA         ZA         QA         VA         BVA        FA
  0 C      6.1717     6.0000    -0.1717     3.8660     3.8660    -0.0000
  1 C      5.5080     6.0000     0.4920     3.9221     3.9221    -0.0000
  2 H      0.7538     1.0000     0.2462     0.9184     0.9184    -0.0000
  3 H      0.7538     1.0000     0.2462     0.9183     0.9183    -0.0000
  4 N      7.5574     7.0000    -0.5574     2.8993     2.8993    -0.0000
  5 O      8.4690     8.0000    -0.4690     2.0494     2.0494    -0.0000
  6 H      0.8465     1.0000     0.1535     0.9457     0.9457    -0.0000
  7 H      0.8465     1.0000     0.1535     0.9457     0.9457     0.0000
  8 H      0.6789     1.0000     0.3211     0.9168     0.9168    -0.0000
  9 O      8.4144     8.0000    -0.4144     2.0908     2.0908    -0.0000

  Mayer bond orders larger than 0.100000
B(  0-C ,  1-C ) :   0.9097 B(  0-C ,  4-N ) :   1.0461 B(  0-C ,  6-H ) :   0.9362 
B(  0-C ,  7-H ) :   0.9361 B(  1-C ,  5-O ) :   1.0838 B(  1-C ,  9-O ) :   1.8956 
B(  2-H ,  4-N ) :   0.9090 B(  3-H ,  4-N ) :   0.9090 B(  5-O ,  8-H ) :   0.8521 


-------
TIMINGS
-------

Total SCF time: 0 days 0 hours 0 min 0 sec 

Total time                  ....       0.745 sec
Sum of individual times     ....       0.588 sec  ( 79.0%)

SCF preparation             ....       0.024 sec  (  3.2%)
Fock matrix formation       ....       0.555 sec  ( 74.6%)
  Startup                   ....       0.000 sec  (  0.0% of F)
  Split-RI-J                ....       0.142 sec  ( 25.6% of F)
  XC integration            ....       0.538 sec  ( 96.9% of F)
    Basis function eval.    ....       0.182 sec  ( 33.8% of XC)
    Density eval.           ....       0.095 sec  ( 17.7% of XC)
    XC-Functional eval.     ....       0.142 sec  ( 26.4% of XC)
    XC-Potential eval.      ....       0.103 sec  ( 19.2% of XC)
Diagonalization             ....       0.000 sec  (  0.0%)
Density matrix formation    ....       0.000 sec  (  0.1%)
Total Energy calculation    ....       0.000 sec  (  0.0%)
Population analysis         ....       0.005 sec  (  0.7%)
Orbital Transformation      ....       0.001 sec  (  0.1%)
Orbital Orthonormalization  ....       0.000 sec  (  0.0%)
DIIS solution               ....       0.001 sec  (  0.1%)
SOSCF solution              ....       0.002 sec  (  0.3%)
Finished LeanSCF after   0.8 sec

Maximum memory used throughout the entire LEANSCF-calculation: 10.5 MB



-------------------------------------------------------------------------------
                          DFT DISPERSION CORRECTION                            
-------------------------------------------------------------------------------
Active option DFTDOPT                   ...         2   
Final C6-coefficient scaling factor     ...     1.250
Final VDW-radii scaling factor          ...     1.100
Damping factor alpha                    ...    20.000
-------------------------   ----------------
Dispersion correction           -0.007219028
-------------------------   ----------------


-------------------------   --------------------
FINAL SINGLE POINT ENERGY      -284.252881960234
-------------------------   --------------------

                                *** OPTIMIZATION RUN DONE ***


------------------------------------------------------------------------------
                              ORCA PROPERTY CALCULATIONS
------------------------------------------------------------------------------

GBWName                                 ... 1.gbw
Number of atoms                         ...     10
Number of basis functions               ...     95
Max core memory                         ...   4096 MB

Electric properties:
Dipole moment                           ... YES
Quadrupole moment                       ...  NO
Static polarizability (Dipole/Dipole)   ...  NO
Static polarizability (Dipole/Quad.)    ...  NO
Static polarizability (Quad./Quad.)     ...  NO
Static polarizability (Velocity)        ...  NO
Static hyperpolarizability              ...  NO

Atomic electric properties:
Dipole moment                           ...  NO
Quadrupole moment                       ...  NO
Static polarizability                   ...  NO

Choice of electric origin               ... Center of mass
Position of electric origin             ...    -9.140201    -3.722901     1.123397

General magnetic properties:
Magnetizability                         ...  NO

EPR properties:
g-Tensor (aka g-matrix)                 ...  NO
Zero-Field splitting spin-orbit         ...  NO
Zero-field splitting spin-spin          ...  NO
Hyperfine couplings                     ...  NO (   0 nuclei)
Quadrupole couplings                    ...  NO (   0 nuclei)
Contact density                         ...  NO (   0 nuclei)

NMR properties:
Chemical shifts                         ...  NO (   0 nuclei)
Spin-rotation constants                 ...  NO (   0 nuclei)
Spin-spin couplings                     ...  NO (   0 nuclei,    0 pairs)

Choice of magnetic origin               ... GIAO
Position of magnetic origin             ...     0.000000     0.000000     0.000000

Properties with geometric perturbations:
SCF Hessian                             ...  NO
IR spectrum                             ...  NO
VCD spectrum                            ...  NO
X-ray spectroscopy properties:
SCF XES/XAS/RIXS spectra                ...  NO

SCF SOC stabilization energy            ...  NO
Diagonal Born-Oppenheimer correction    ...  NO

-------------
DIPOLE MOMENT
-------------

Method             : SCF
Type of density    : Electron Density
Multiplicity       :   1
Irrep              :   0
Energy             :  -284.2456629322855406 Eh
Basis              : AO
                                X                 Y                 Z
Electronic contribution:      1.218302662      -3.431828355       1.111151636
Nuclear contribution   :     -1.384470227       3.553648039      -0.389758758
                        -----------------------------------------
Total Dipole Moment    :     -0.166167565       0.121819684       0.721392877
                        -----------------------------------------
Magnitude (a.u.)       :      0.750239548
Magnitude (Debye)      :      1.906957381



--------------------
Rotational spectrum 
--------------------
 
Rotational constants in cm-1:             0.327857             0.130691             0.096519 
Rotational constants in MHz :          9828.891956          3918.024904          2893.560473 

Dipole components along the rotational axes: 
x,y,z [a.u.] :     0.091814     0.744599     0.001137 
x,y,z [Debye]:     0.233374     1.892621     0.002891 

 

Dipole moment calculation done in   0.0 sec 

Maximum memory used throughout the entire PROP-calculation: 6.0 MB

--------------------------------
SUGGESTED CITATIONS FOR THIS RUN
--------------------------------

Below you find a list of papers that are relevant to this ORCA run
We neither can nor want to force you to cite these papers, but we appreciate if you do
You receive ORCA, which is the product of decades of hard work by many enthusiastic individuals, for free
The only thing we kindly ask in return is that you cite our papers,
We deeply appreciate it, if you show your appreciation for ORCA by not just citing the generic ORCA reference.

Please note that relegating all ORCA citations to the supporting information does *not* help us.
SI sections are not indexed - citations you put there will not count into any citation statistics
But we need these citations in order to attract the funding resources that allow us to do what we are doing

Therefore, if you are a happy ORCA user, please consider citing a few of the papers listed below in the main body of your paper

In addition to the list printed below, the program has created the file 1.bibtex that contains the list in bibtex format
You can import this file easily into all common literature databanks and citation aid programs


List of essential papers. We consider these as the minimum necessary citations

  1. Neese, F.
     Software update: the ORCA program system, version 6.0
     WIRES Comput. Molec. Sci. 2025 15(1), e70019
     doi.org/10.1002/wcms.7019

List of papers to cite with high priority. The work reported in these papers was absolutely
necessary for this run to complete.
Our perspective: the developers of density functionals and basis sets usually get cited in chemistry papers
Good! But without the algorithms to do something with them, the functionals or basis sets would not do anything.
Hence, in our opinion, the algorithm design and method developments papers are equally worthy of getting cited

  1. Neese, F.
     An improvement of the resolution of the identity approximation for the formation of the Coulomb matrix
     J. Comp. Chem. 2003 24(14), 1740-1747
     doi.org/10.1002/jcc.10318
  2. Grimme, S.
     Semiempirical GGA-type density functional constructed with a long-range dispersion correction
     J.Comput.Chem. 2006 27(15), 1787-1799
     doi.org/10.1002/jcc.20495
  3. Neese, F.
     The SHARK Integral Generation and Digestion System
     J. Comp. Chem. 2022 44(3), 381
     doi.org/10.1002/jcc.26942

List of suggested additional citations. These are papers that are important in the 'surrounding' of 
of this run, or papers that preceded the highly important papers. If you like your results we are grateful for a citation.

  1. Neese, F.
     The ORCA program system
     WIRES Comput. Molec. Sci. 2012 2(1), 73-78
     doi.org/10.1002/wcms.81
  2. Neese, F.
     Software update: the ORCA program system, version 4.0
     WIRES Comput. Molec. Sci. 2018 8(1), 1-6
     doi.org/10.1002/wcms.1327
  3. Neese, F.; Wennmohs, F.; Becker, U.; Riplinger, C.
     The ORCA quantum chemistry program package
     J. Chem. Phys. 2020 152(22), 224108
     doi.org/10.1063/5.0004608
  4. Neese, F.
     Software update: The ORCA program system—Version 5.0
     WIRES Comput. Molec. Sci. 2022 12(1), e1606
     doi.org/10.1002/wcms.1606

List of optional additional citations

  1. Neese, F.
     Approximate second-order SCF convergence for spin unrestricted wavefunctions
     Chem. Phys. Lett. 2000 325(1-3), 93-98
     doi.org/10.1016/s0009-2614(00)00662-x

Timings for individual modules:

Sum of individual times          ...       16.405 sec (=   0.273 min)
Startup calculation              ...        1.305 sec (=   0.022 min)   8.0 %
SCF iterations                   ...        9.856 sec (=   0.164 min)  60.1 %
Property calculations            ...        0.031 sec (=   0.001 min)   0.2 %
SCF Gradient evaluation          ...        5.202 sec (=   0.087 min)  31.7 %
Geometry relaxation              ...        0.011 sec (=   0.000 min)   0.1 %
                             ****ORCA TERMINATED NORMALLY****
TOTAL RUN TIME: 0 days 0 hours 0 minutes 16 seconds 612 msec
