
                                 *****************
                                 * O   R   C   A *
                                 *****************

                                            #,                                       
                                            ###                                      
                                            ####                                     
                                            #####                                    
                                            ######                                   
                                           ########,                                 
                                     ,,################,,,,,                         
                               ,,#################################,,                 
                          ,,##########################################,,             
                       ,#########################################, ''#####,          
                    ,#############################################,,   '####,        
                  ,##################################################,,,,####,       
                ,###########''''           ''''###############################       
              ,#####''   ,,,,##########,,,,          '''####'''          '####       
            ,##' ,,,,###########################,,,                        '##       
           ' ,,###''''                  '''############,,,                           
         ,,##''                                '''############,,,,        ,,,,,,###''
      ,#''                                            '''#######################'''  
     '                                                          ''''####''''         
             ,#######,   #######,   ,#######,      ##                                
            ,#'     '#,  ##    ##  ,#'     '#,    #''#        ,####,    ,#,          
            ##       ##  ##   ,#'  ##            #'  '#       #'       ,# #          
            ##       ##  #######   ##           ,######,      #####,      #          
            '#,     ,#'  ##    ##  '#,     ,#' ,#      #,     #,   #      #          
             '#######'   ##     ##  '#######'  #'      '#     '####' #    #          



                #########################################################
                #                        -***-                          #
                #          Department of theory and spectroscopy        #
                #                                                       #
                #                      Frank Neese                      #
                #                                                       #
                #     Directorship, Architecture, Infrastructure        #
                #                    SHARK, DRIVERS                     #
                #        Core code/Algorithms in most modules           #
                #                                                       #
                #        Max Planck Institute fuer Kohlenforschung      #
                #                Kaiser Wilhelm Platz 1                 #
                #                 D-45470 Muelheim/Ruhr                 #
                #                      Germany                          #
                #                                                       #
                #                  All rights reserved                  #
                #                        -***-                          #
                #########################################################


                         Program Version 6.1.0  -  RELEASE   -
                                (GIT: $679e74b$)
                          ($2025-06-10 18:02:51 +0200$)


 With contributions from (in alphabetic order):
[Max-Planck-Institut fuer Kohlenforschung]                               
  Daniel Aravena         : Magnetic Suceptibility                        
  Michael Atanasov       : Ab Initio Ligand Field Theory (pilot matlab implementation)
  Alexander A. Auer      : GIAO ZORA, VPT2 properties, NMR spectrum      
  Ute Becker             : All parallelization in ORCA, NUMFREQ, NUMCALC 
  Giovanni Bistoni       : ED, misc. LED, open-shell LED, HFLD           
  Dmytro Bykov           : pre 5.0 version of the SCF Hessian            
  Marcos Casanova-Páez   : Triplet and SCS-CIS(D). UHF-(DLPNO)-IP/EA/STEOM-CCSD. UHF-CVS-IP/STEOM-CCSD   
  Vijay G. Chilkuri      : MRCI spin determinant printing, contributions to CSF-ICE 
  Pauline Colinet        : FMM embedding                                 
  Dipayan Datta          : RHF DLPNO-CCSD density                        
  Achintya Kumar Dutta   : EOM-CC, STEOM-CC                              
  Nicolas Foglia         : Exact transition moments, OPA infrastructure, MCD improvements    
  Dmitry Ganyushin       : Spin-Orbit,Spin-Spin,Magnetic field MRCI      
  Miquel Garcia-Rates    : C-PCM and meta-GGA Hessian, CCSD/C-PCM, Gaussian charge scheme 
  Tiago L. C. Gouveia    : GS-ROHF, GS-ROCIS                             
  Yang Guo               : DLPNO-NEVPT2, F12-NEVPT2, CIM, IAO-localization        
  Andreas Hansen         : Spin unrestricted coupled pair/coupled cluster methods 
  Ingolf Harden          : AUTO-CI MPn and infrastructure                
  Benjamin Helmich-Paris : MC-RPA, TRAH-(SCF,CASSCF), AVAS, COSX integrals, SCF dyn. polar., MC-PDFT, srDFT 
  Lee Huntington         : MR-EOM, pCC                                   
  Robert Izsak           : Overlap fitted RIJCOSX, COSX-SCS-MP3, EOM     
  Riya Kayal             : Wick's Theorem for AUTO-CI, AUTO-CI UHF-CCSDT 
  Emily Kempfer          : AUTO-CI RHF CISDT and CCSDT, approximate NEVPT4
  Christian Kollmar      : KDIIS, OOCD, Brueckner-CCSD(T), CCSD density, CASPT2, CASPT2-K, improved NEVPT2 
  Axel Koslowski         : Symmetry handling                             
  Simone Kossmann        : meta-GGA functionals, TD-DFT gradient, OOMP2, (MP2 Hessian; deprecated post 5.0) 
  Lucas Lang             : DCDCAS, Hyperfine gauge corrections, ICE-SOC+SSC
  Marvin Lechner         : AUTO-CI (C++ implementation), FIC-MRCC        
  Spencer Leger          : CASSCF response                               
  Dagmar Lenk            : GEPOL surface, SMD, ORCA-2-JSON               
  Dimitrios Liakos       : Extrapolation schemes; Compound Job, Property file
  Dimitrios Manganas     : Further ROCIS development; embedding schemes. LFT, Crystal Embedding 
  Dimitrios Pantazis     : SARC Basis sets                               
  Anastasios Papadopoulos: AUTO-CI, single reference methods and gradients 
  Taras Petrenko         : pre 6.0 DFT Hessian and TD-DFT gradient,  ECA, NRVS 
  Petra Pikulova         : Analytic Raman intensities                    
  Peter Pinski           : DLPNO-MP2, DLPNO-MP2 Gradient                 
  Shashank Vittal Rao    : ES-AILFT, MagRelax                            
  Christoph Reimann      : Effective Core Potentials                     
  Marius Retegan         : Local ZFS, SOC                                
  Christoph Riplinger    : Optimizer, TS searches, QM/MM, DLPNO-CCSD(T), (RO)-DLPNO pert. Triples 
  Michael Roemelt        : Original ROCIS implementation, recursive CI coupling coefficients
  Masaaki Saitow         : Open-shell DLPNO-CCSD energy and density      
  Barbara Sandhoefer     : DKH picture change effects                    
  Yorick L. A. Schmerwitz: GMF and freeze-and-release deltaSCF, NEB S-IDPP initial path                    
  Kantharuban Sivalingam : CASSCF convergence/infrastructure, NEVPT2, NEVPT3, NEVPT4(SD), FIC-MRCI and CEPA variants
  Bernardo de Souza      : ESD, SOC TD-DFT                               
  Georgi L. Stoychev     : AutoAux, RI-MP2 NMR, DLPNO-MP2 response, X2C  
  Van Anh Tran           : RI-MP2 g-tensors                              
  Willem Van den Heuvel  : Paramagnetic NMR                              
  Zikuan Wang            : NOTCH, Electric field optimization            
  Frank Wennmohs         : Technical directorship and infrastructure     
  Hang Xu                : AUTO-CI-Response properties                   
                                                                         
[FACCTs GmbH]                                                            
  Markus Bursch, Nicolas Foglia, Miquel Garcia-Rates, Ingolf Harden, Hagen Neugebauer, Anastasios Papadopoulos, 
  Christoph Riplinger, Bernardo de Souza, Georgi L. Stoychev                                                    
                                                                 
  APM, various basis sets, CI-OPT, improved COSX, DLPNO-Multilevel,           
  DOCKER, DRACO, updates on ESD, Fragmentator, GOAT, IRC, LR-CPCM, L-BFGS, MBIS, meta-GGA TD-DFT gradient, ML-optimized integration grids, 
  MM, NACMEs, nearIR, NEB, NEB-TS, NL-DFT gradient (VV10), 2- and 3-layer-ONIOM, interface openCOSMO-RS, QMMM,   
  Crystal-QMMM, RESP, rigid body optimization, SF, symmetry and pop. for TD-DFT, various functionals, SOLVATOR                                   
                                                                         
[Other institutions]                                                     
  V. Asgeirsson          : NEB                                           
  Christoph Bannwarth    : sTDA-DFT, sTD-DFT, PBEh-3c, B97-3c, D3        
  Giovanni Bistoni       : ETS/NOCV, ADLD/ADEX, COVALED                  
  Martin Brehm           : Molecular dynamics                            
  Ronald Cardenas        : ETS/NOCV                                      
  Martina Colucci        : COVALED                                       
  Sebastian Ehlert       : rSCAN, r2SCAN, r2SCAN-3c, D4, dhf basis sets  
  Marvin Friede          : D4 for Fr, Ra, Ac-Lr                          
  Lars Goerigk           : TD-DFT with DH, B97 family of functionals     
  Stefan Grimme          : VdW corrections, initial TS optimization, DFT functionals, gCP, sTDA/sTD-DF 
  Waldemar Hujo          : DFT-NL                                        
  H. Jonsson             : NEB                                           
  Holger Kruse           : gCP                                           
  Marcel Mueller         : wB97X-3c, vDZP basis set                      
  Hagen Neugebauer       : wr2SCAN, Native XTB                           
  Gianluca Regni         : ADLD/ADEX                                     
  Tobias Risthaus        : pre 6.0 range-separated hybrid DFT and stability analysis
  Lukas Wittmann         : regularized MP2, r2SCAN double-hybrids, wr2SCAN        
                                                                         
We gratefully acknowledge several colleagues who have allowed us to      
interface, adapt or use parts of their codes:                            
  Ed Valeev, F. Pavosevic, A. Kumar             : LibInt (2-el integral package), F12 methods 
  Garnet Chan, S. Sharma, J. Yang, R. Olivares  : DMRG                   
  Ulf Ekstrom                                   : XCFun DFT Library      
  Mihaly Kallay                                 : mrcc  (arbitrary order and MRCC methods)
  Frank Weinhold                                : gennbo (NPA and NBO analysis)           
  Simon Mueller                                 : openCOSMO-RS                            
  Christopher J. Cramer and Donald G. Truhlar   : smd solvation model                     
  S Lehtola, MJT Oliveira, MAL Marques          : LibXC Library                           
  Liviu Ungur et al                             : ANISO software                          


 Your calculation uses the libint2 library for the computation of 2-el integrals
 For citations please refer to: http://libint.valeyev.net

 Your ORCA version has been built with support for libXC version: 7.0.0
 For citations please refer to: https://libxc.gitlab.io

 This ORCA versions uses:
   CBLAS   interface :  Fast vector & matrix operations
   LAPACKE interface :  Fast linear algebra routines
   SCALAPACK package :  Parallel linear algebra routines
   Shared memory     :  Shared parallel matrices
   BLAS/LAPACK       :  OpenBLAS 0.3.29  USE64BITINT DYNAMIC_ARCH NO_AFFINITY Haswell SINGLE_THREADED
        Core in use  :  Haswell
   Copyright (c) 2011-2014, The OpenBLAS Project


  ***********************************
  * Starting time: Thu Aug 14 01:08:27 2025
  * Host name:     CHEMLAB02
  * Process ID:    1543931
  * Working dir.:  /home/vivek/mm-project/vivek/MP2/l/0
  ***********************************



***************************************
The coordinates will be read from file: /home/vivek/mm-project/vivek/xtb-goat/l/L_CONF/0.xyz
***************************************


================================================================================

----- Orbital basis set information -----
Your calculation utilizes the basis: 6-31G**
   H-He, Li-Ne : W. J. Hehre, R. Ditchfield and J.A. Pople, J. Chem. Phys. 56, 2257 (1972).
                 Note: He and Ne are unpublished basis sets taken from the Gaussian program.
                 Note: Li and B from J. D. Dill and J. A. Pople, J. Chem. Phys. 62, 2921 (1975).
   Na - Ar     : M. M. Francl, W. J. Pietro, W. J. Hehre, J. S. Binkley, M. S. Gordon, 
                 D. J. DeFrees and J. A. Pople, J. Chem. Phys. 77, 3654 (1982).
   K - Zn      : V. A. Rassolov, J. A. Pople, M. A. Ratner, and T. L. Windus, J. Chem. Phys. 109, 1223 (1998).

================================================================================
                                        WARNINGS
                       Please study these warnings very carefully!
================================================================================


WARNING: No MP2 level density has been requested!
         To calculate MP2 level properties use
         %mp2 Density relaxed end
         or
         %mp2 Density unrelaxed end

WARNING: Post HF methods need fully converged wavefunctions
  ===> : Setting SCFConvForced true
         You can overwrite this default with %scf ConvForced false 


================================================================================
                                       INPUT FILE
================================================================================
NAME = 0.inp
|  1> ! MP2 6-31G** 
|  2> 
|  3> * xyzfile 0 1 /home/vivek/mm-project/vivek/xtb-goat/l/L_CONF/0.xyz
|  4> 
|  5>                          ****END OF INPUT****
================================================================================

                       ****************************
                       * Single Point Calculation *
                       ****************************

---------------------------------
CARTESIAN COORDINATES (ANGSTROEM)
---------------------------------
  C     -9.345886    6.327348   -1.635352
  C     -9.015832    7.061830   -0.342720
  H     -8.631837    7.735151   -2.922553
  H     -7.530798    6.612077   -2.488805
  C     -9.177789    4.819640   -1.381305
  O     -9.952039    6.897634    0.598847
  H    -11.270282    3.318299   -3.708250
  N     -8.506277    6.745191   -2.739510
  C     -9.533715    3.970427   -2.606171
  H     -8.133893    4.637865   -1.113323
  H     -9.803933    4.531852   -0.535027
  C     -9.020266    2.545549   -2.409301
  H     -7.941551    2.537755   -2.271456
  C    -11.039015    3.952502   -2.855720
  H     -9.482050    2.093029   -1.533834
  H     -9.257466    1.933263   -3.275969
  H     -9.037222    4.413197   -3.474101
  H    -11.565241    3.562966   -1.986254
  H    -11.412234    4.950043   -3.069228
  H    -10.389864    6.540965   -1.885464
  H     -9.699637    7.362374    1.413038
  O     -8.022769    7.718070   -0.166055

----------------------------
CARTESIAN COORDINATES (A.U.)
----------------------------
  NO LB      ZA    FRAG     MASS         X           Y           Z
   0 C     6.0000    0    12.011  -17.661164   11.956955   -3.090368
   1 C     6.0000    0    12.011  -17.037454   13.344925   -0.647648
   2 H     1.0000    0     1.008  -16.311808   14.617317   -5.522824
   3 H     1.0000    0     1.008  -14.231146   12.495016   -4.703159
   4 C     6.0000    0    12.011  -17.343508    9.107800   -2.610287
   5 O     8.0000    0    15.999  -18.806627   13.034639    1.131658
   6 H     1.0000    0     1.008  -21.297746    6.270676   -7.007576
   7 N     7.0000    0    14.007  -16.074533   12.746563   -5.176924
   8 C     6.0000    0    12.011  -18.016110    7.503021   -4.924950
   9 H     1.0000    0     1.008  -15.370830    8.764295   -2.103875
  10 H     1.0000    0     1.008  -18.526749    8.563959   -1.011055
  11 C     6.0000    0    12.011  -17.045832    4.810390   -4.552919
  12 H     1.0000    0     1.008  -15.007357    4.795662   -4.292430
  13 C     6.0000    0    12.011  -20.860715    7.469146   -5.396529
  14 H     1.0000    0     1.008  -17.918478    3.955251   -2.898527
  15 H     1.0000    0     1.008  -17.494075    3.653337   -6.190684
  16 H     1.0000    0     1.008  -17.077875    8.339733   -6.565100
  17 H     1.0000    0     1.008  -21.855138    6.733030   -3.753475
  18 H     1.0000    0     1.008  -21.565997    9.354226   -5.800000
  19 H     1.0000    0     1.008  -19.633997   12.360633   -3.563011
  20 H     1.0000    0     1.008  -18.329658   13.912871    2.670254
  21 O     8.0000    0    15.999  -15.160836   14.585038   -0.313799

--------------------------------
INTERNAL COORDINATES (ANGSTROEM)
--------------------------------
 C      0   0   0     0.000000000000     0.00000000     0.00000000
 C      1   0   0     1.522923526129     0.00000000     0.00000000
 H      1   2   0     2.036826215306    97.30092621     0.00000000
 H      3   1   2     1.631477535304    65.96995612    90.74779776
 C      1   2   3     1.538174012838   107.99060896   146.07496582
 O      2   1   3     1.337906100972   112.73684718   142.50044258
 H      5   1   2     3.470911400391   104.32207868   154.51789986
 N      3   1   2     1.014540127694    41.83562788   125.62112598
 C      5   1   2     1.532365545062   112.69373336   177.95044048
 H      5   1   2     1.092966172595   107.93223733   298.37091420
 H      5   1   2     1.091358671141   108.89574603    55.73143208
 C      9   5   1     1.527307388746   109.62720650   165.92639277
 H     12   9   5     1.087514186583   110.88437606   300.56335454
 C      7   5   1     1.087430079879    25.03142902   298.36944609
 H     12   9   5     1.088329371545   110.42338842    60.75562827
 H     12   9   5     1.087322735601   110.44257465   180.55148455
 H      9   5   1     1.093550185340   107.73249136    47.30747278
 H     14   7   5     1.088404769915   108.34447957   240.80570780
 H     14   7   5     1.086263004006   107.96368738   123.32626362
 H      1   2   3     1.094567650374   107.85042633   264.28460181
 H      6   2   1     0.970873466453   110.45808078   178.75914334
 O      2   1   3     1.203343519806   124.50482483   322.15155657

---------------------------
INTERNAL COORDINATES (A.U.)
---------------------------
 C      0   0   0     0.000000000000     0.00000000     0.00000000
 C      1   0   0     2.877908387289     0.00000000     0.00000000
 H      1   2   0     3.849043729320    97.30092621     0.00000000
 H      3   1   2     3.083045735369    65.96995612    90.74779776
 C      1   2   3     2.906727630578   107.99060896   146.07496582
 O      2   1   3     2.528276123739   112.73684718   142.50044258
 H      5   1   2     6.559071981843   104.32207868   154.51789986
 N      3   1   2     1.917202993214    41.83562788   125.62112598
 C      5   1   2     2.895751217224   112.69373336   177.95044048
 H      5   1   2     2.065406739844   107.93223733   298.37091420
 H      5   1   2     2.062369002337   108.89574603    55.73143208
 C      9   5   1     2.886192687045   109.62720650   165.92639277
 H     12   9   5     2.055103979397   110.88437606   300.56335454
 C      7   5   1     2.054945040760    25.03142902   298.36944609
 H     12   9   5     2.056644455723   110.42338842    60.75562827
 H     12   9   5     2.054742189473   110.44257465   180.55148455
 H      9   5   1     2.066510363991   107.73249136    47.30747278
 H     14   7   5     2.056786937992   108.34447957   240.80570780
 H     14   7   5     2.052739586982   107.96368738   123.32626362
 H      1   2   3     2.068433094257   107.85042633   264.28460181
 H      6   2   1     1.834684962288   110.45808078   178.75914334
 O      2   1   3     2.273989697462   124.50482483   322.15155657

---------------------
BASIS SET INFORMATION
---------------------
There are 4 groups of distinct atoms

 Group   1 Type C   : 10s4p1d contracted to 3s2p1d pattern {631/31/1}
 Group   2 Type H   : 4s1p contracted to 2s1p pattern {31/1}
 Group   3 Type O   : 10s4p1d contracted to 3s2p1d pattern {631/31/1}
 Group   4 Type N   : 10s4p1d contracted to 3s2p1d pattern {631/31/1}

Atom   0C    basis set group =>   1
Atom   1C    basis set group =>   1
Atom   2H    basis set group =>   2
Atom   3H    basis set group =>   2
Atom   4C    basis set group =>   1
Atom   5O    basis set group =>   3
Atom   6H    basis set group =>   2
Atom   7N    basis set group =>   4
Atom   8C    basis set group =>   1
Atom   9H    basis set group =>   2
Atom  10H    basis set group =>   2
Atom  11C    basis set group =>   1
Atom  12H    basis set group =>   2
Atom  13C    basis set group =>   1
Atom  14H    basis set group =>   2
Atom  15H    basis set group =>   2
Atom  16H    basis set group =>   2
Atom  17H    basis set group =>   2
Atom  18H    basis set group =>   2
Atom  19H    basis set group =>   2
Atom  20H    basis set group =>   2
Atom  21O    basis set group =>   3
------------------------------------------------------------------------------
                             ORCA STARTUP CALCULATIONS
------------------------------------------------------------------------------
------------------------------------------------------------------------------
                   ___                                                        
                  /   \      - P O W E R E D   B Y -                         
                 /     \                                                     
                 |  |  |   _    _      __       _____    __    __             
                 |  |  |  | |  | |    /  \     |  _  \  |  |  /  |          
                  \  \/   | |  | |   /    \    | | | |  |  | /  /          
                 / \  \   | |__| |  /  /\  \   | |_| |  |  |/  /          
                |  |  |   |  __  | /  /__\  \  |    /   |      \           
                |  |  |   | |  | | |   __   |  |    \   |  |\   \          
                \     /   | |  | | |  |  |  |  | |\  \  |  | \   \       
                 \___/    |_|  |_| |__|  |__|  |_| \__\ |__|  \__/        
                                                                              
                      - O R C A' S   B I G   F R I E N D -                    
                                      &                                       
                       - I N T E G R A L  F E E D E R -                       
                                                                              
 v1 FN, 2020, v2 2021, v3 2022-2024                                           
------------------------------------------------------------------------------


----------------------
SHARK INTEGRAL PACKAGE
----------------------

Number of atoms                             ...     22
Number of basis functions                   ...    191
Number of shells                            ...     93
Maximum angular momentum                    ...      2
Integral batch strategy                     ... SHARK/LIBINT Hybrid
RI-J (if used) integral strategy            ... SPLIT-RIJ (Revised 2003 algorithm where possible)
Printlevel                                  ...      1
Contraction scheme used                     ... SEGMENTED contraction
Prescreening option                         ... SCHWARTZ
   Thresh                                   ... 1.000e-10
   Tcut                                     ... 1.000e-11
   Tpresel                                  ... 1.000e-11 
Coulomb Range Separation                    ... NOT USED
Exchange Range Separation                   ... NOT USED
Multipole approximations                    ... NOT USED
Finite Nucleus Model                        ... NOT USED
CABS basis                                  ... NOT available
Auxiliary Coulomb fitting basis             ... NOT available
Auxiliary J/K fitting basis                 ... NOT available
Auxiliary Correlation fitting basis         ... NOT available
Auxiliary 'external' fitting basis          ... NOT available

Checking pre-screening integrals            ... done (  0.0 sec) Dimension = 93
   => SHARK Basis and OBASIS are compatible. Storing Pre-screening
Shell pair information
Shell pair cut-off parameter TPreSel        ...   1.0e-11
Total number of shell pairs                 ...      4371
Shell pairs after pre-screening             ...      3845
Total number of primitive shell pairs       ...     20328
Primitive shell pairs kept                  ...     11831
          la=0 lb=0:   1275 shell pairs
          la=1 lb=0:   1443 shell pairs
          la=1 lb=1:    432 shell pairs
          la=2 lb=0:    417 shell pairs
          la=2 lb=1:    238 shell pairs
          la=2 lb=2:     40 shell pairs

Checking whether 4 symmetric matrices of dimension 191 fit in memory
:Max Core in MB      =   4096.00
 MB in use           =      6.31
 MB left             =   4089.69
 MB needed           =      0.56
 Data fit in memory  = YES
Calculating Nuclear repulsion               ... done (  0.0 sec) ENN=    482.466008099650 Eh

Diagonalization of the overlap matrix:
Smallest eigenvalue                        ... 2.700e-03
Time for diagonalization                   ...    0.002 sec
Threshold for overlap eigenvalues          ... 1.000e-07
Number of eigenvalues below threshold      ... 0
Time for construction of square roots      ...    0.001 sec
Total time needed                          ...    0.003 sec

-------------------
DFT GRID GENERATION
-------------------

General Integration Accuracy     IntAcc      ... 4.388
Radial Grid Type                 RadialGrid  ... OptM3 with GC (2021)
Angular Grid (max. ang.)         AngularGrid ... 4 (Lebedev-302)
Angular grid pruning method      GridPruning ... 4 (adaptive)
Weight generation scheme         WeightScheme... mBecke (2022)
Basis function cutoff            BFCut       ... 1.0000e-10
Integration weight cutoff        WCut        ... 1.0000e-14
Partially contracted basis set               ... off
Rotationally invariant grid construction     ... off
Angular grids for H and He will be reduced by one unit

Total number of grid points                  ...    95603
Total number of batches                      ...     1507
Average number of points per batch           ...       63
Average number of grid points per atom       ...     4346
Grids setup in   0.4 sec
Initializing property integral containers    ... done (  0.0 sec)

SHARK setup successfully completed in   0.4 seconds

Maximum memory used throughout the entire STARTUP-calculation: 38.2 MB
-------------------------------------------------------------------------------
                                 ORCA GUESS
                   Start orbitals & Density for SCF / CASSCF
-------------------------------------------------------------------------------

------------
SCF SETTINGS
------------
Hamiltonian:
 Ab initio Hamiltonian  Method          .... Hartree-Fock(GTOs)


General Settings:
 Integral files         IntName         .... 0
 Hartree-Fock type      HFTyp           .... RHF
 Total Charge           Charge          ....    0
 Multiplicity           Mult            ....    1
 Number of Electrons    NEL             ....   72
 Basis Dimension        Dim             ....  191
 Nuclear Repulsion      ENuc            ....    482.4660080996 Eh

Convergence Acceleration:
 AO-DIIS                CNVDIIS         .... on
   Start iteration      DIISMaxIt       ....    12
   Startup error        DIISStart       ....  0.200000
   # of expansion vecs  DIISMaxEq       ....     5
   Bias factor          DIISBfac        ....   1.050
   Max. coefficient     DIISMaxC        ....  10.000
 MO-DIIS                CNVKDIIS        .... off
 Trust-Rad. Augm. Hess. CNVTRAH         .... auto
   Auto Start mean grad. ratio tolernc. ....  1.125000
   Auto Start start iteration           ....    50
   Auto Start num. interpolation iter.  ....    10
   Max. Number of Micro iterations      ....    24
   Max. Number of Macro iterations      .... Maxiter - #DIIS iter
   Number of Davidson start vectors     ....     2
   Converg. threshold    (grad. norm)   ....   5.000e-05
   Grad. Scal. Fac. for Micro threshold ....   0.100
   Minimum threshold for Micro iter.    ....   1.000e-02
   NR start threshold (gradient norm)   ....   1.000e-04
   Initial trust radius                 ....   0.400
   Minimum AH scaling param. (alpha)    ....   1.000
   Maximum AH scaling param. (alpha)    .... 1000.000
   Quad. conv. algorithm                .... NR
   White noise on init. David. guess    .... on
   Maximum white noise                  ....   0.010
   Pseudo random numbers                .... off
   Inactive MOs                         .... canonical
   Orbital update algorithm             .... Taylor
   Preconditioner                       .... Diag
   Full preconditioner red. dimension   ....   250
 SOSCF                 CNVSOSCF           .... on
   Start iteration     SOSCFMaxIt         ....   150
   Startup grad/error  SOSCFStart         ....  0.003300
   Hessian update      SOSCFHessUp        .... L-BFGS
   Autom. constraints  SOSCFAutoConstrain .... off
 Level Shifting         CNVShift        .... on
   Level shift para.    LevelShift      ....    0.2500
   Turn off err/grad.   ShiftErr        ....    0.0010
 Zerner damping         CNVZerner       .... off
 Static damping         CNVDamp         .... on
   Fraction old density DampFac         ....    0.7000
   Max. Damping (<1)    DampMax         ....    0.9800
   Min. Damping (>=0)   DampMin         ....    0.0000
   Turn off err/grad.   DampErr         ....    0.1000

SCF Procedure:
 Maximum # iterations   MaxIter         ....   125
 SCF integral mode      SCFMode         .... Direct
   Integral package                     .... SHARK and LIBINT hybrid scheme
 Reset frequency        DirectResetFreq ....    20
 Integral Threshold     Thresh          ....  1.000e-10 Eh
 Primitive CutOff       TCut            ....  1.000e-11 Eh

Convergence Tolerance:
 Convergence Check Mode ConvCheckMode   .... Total+1el-Energy
 Convergence forced     ConvForced      .... 1
 Energy Change          TolE            ....  1.000e-06 Eh
 1-El. energy change                    ....  1.000e-03 Eh
 Orbital Gradient       TolG            ....  5.000e-05
 Orbital Rotation angle TolX            ....  5.000e-05
 DIIS Error             TolErr          ....  1.000e-06

------------------------------
INITIAL GUESS: MODEL POTENTIAL
------------------------------
Loading Hartree-Fock densities                     ... done
Calculating cut-offs                               ... done
Initializing the effective Hamiltonian             ... done
Setting up the integral package (SHARK)            ... done
Starting the Coulomb interaction                   ... done (   0.1 sec)
Making the grid                                    ... done (   0.1 sec)
Mapping shells                                     ... done
Starting the XC term evaluation                    ... done (   0.0 sec)
Transforming the Hamiltonian                       ... done (   0.0 sec)
Diagonalizing the Hamiltonian                      ... done (   0.0 sec)
Back transforming the eigenvectors                 ... done (   0.0 sec)
Now organizing SCF variables                       ... done
                      ------------------
                      INITIAL GUESS DONE (   0.2 sec)
                      ------------------
             **** ENERGY FILE WAS UPDATED (0.en.tmp) ****
Finished Guess after   0.2 sec
Maximum memory used throughout the entire GUESS-calculation: 11.4 MB

-------------------------------------------------------------------------------------------
                                      ORCA LEAN-SCF
                              memory conserving SCF solver
-------------------------------------------------------------------------------------------

----------------------------------------D-I-I-S--------------------------------------------
Iteration    Energy (Eh)           Delta-E    RMSDP     MaxDP     DIISErr   Damp  Time(sec)
-------------------------------------------------------------------------------------------
               ***  Starting incremental Fock matrix formation  ***
    1    -438.5373077674044566     0.00e+00  2.50e-03  6.15e-02  2.44e-01  0.700   1.8
    2    -438.7033203111950002    -1.66e-01  1.90e-03  4.43e-02  1.51e-01  0.700   1.7
                               ***Turning on AO-DIIS***
    3    -438.8003712962188843    -9.71e-02  1.02e-03  2.29e-02  8.52e-02  0.700   1.7
    4    -438.8611901662380319    -6.08e-02  2.29e-03  4.78e-02  5.83e-02  0.000   1.6
    5    -438.9952929281641332    -1.34e-01  2.69e-04  5.77e-03  5.24e-03  0.000   1.8
    6    -438.9957887964930592    -4.96e-04  1.32e-04  3.33e-03  3.40e-03  0.000   1.6
                              *** Initializing SOSCF ***
---------------------------------------S-O-S-C-F--------------------------------------
Iteration    Energy (Eh)           Delta-E    RMSDP     MaxDP     MaxGrad    Time(sec)
--------------------------------------------------------------------------------------
    7    -438.9958974719176581    -1.09e-04  7.17e-05  2.04e-03  1.89e-03     1.6
               *** Restarting incremental Fock matrix formation ***
    8    -438.9959292480594399    -3.18e-05  3.60e-05  9.20e-04  5.68e-04     1.9
    9    -438.9959366460219030    -7.40e-06  3.80e-05  1.06e-03  4.05e-04     1.4
   10    -438.9959393239192309    -2.68e-06  7.25e-06  2.66e-04  1.14e-04     1.4
   11    -438.9959395568084233    -2.33e-07  2.51e-06  8.12e-05  4.73e-05     1.2
                 **** Energy Check signals convergence ****

               *****************************************************
               *                     SUCCESS                       *
               *           SCF CONVERGED AFTER  11 CYCLES          *
               *****************************************************

             **** ENERGY FILE WAS UPDATED (0.en.tmp) ****

----------------
TOTAL SCF ENERGY
----------------

Total Energy       :       -438.99593959228974 Eh          -11945.68682 eV

Components:
Nuclear Repulsion  :        482.46600809964997 Eh           13128.56752 eV
Electronic Energy  :       -921.46194769193971 Eh          -25074.25435 eV
One Electron Energy:      -1555.55808245516005 Eh          -42328.88738 eV
Two Electron Energy:        634.09613476322033 Eh           17254.63304 eV

Virial components:
Potential Energy   :       -877.61361941168764 Eh          -23881.08067 eV
Kinetic Energy     :        438.61767981939789 Eh           11935.39385 eV
Virial Ratio       :          2.00086239062011

---------------
SCF CONVERGENCE
---------------

  Last Energy change         ...    2.3289e-07  Tolerance :   1.0000e-06
  Last MAX-Density change    ...    8.1224e-05  Tolerance :   1.0000e-05
  Last RMS-Density change    ...    2.5076e-06  Tolerance :   1.0000e-06
  Last DIIS Error            ...    1.8941e-03  Tolerance :   1.0000e-06
  Last Orbital Gradient      ...    4.7307e-05  Tolerance :   5.0000e-05
  Last Orbital Rotation      ...    4.4763e-05  Tolerance :   5.0000e-05


----------------
ORBITAL ENERGIES
----------------

  NO   OCC          E(Eh)            E(eV) 
   0   2.0000     -20.617667      -561.0352 
   1   2.0000     -20.553175      -559.2803 
   2   2.0000     -15.547417      -423.0667 
   3   2.0000     -11.381258      -309.6998 
   4   2.0000     -11.272227      -306.7329 
   5   2.0000     -11.226844      -305.4979 
   6   2.0000     -11.219017      -305.2850 
   7   2.0000     -11.207917      -304.9829 
   8   2.0000     -11.207837      -304.9808 
   9   2.0000      -1.468038       -39.9474 
  10   2.0000      -1.361647       -37.0523 
  11   2.0000      -1.198507       -32.6130 
  12   2.0000      -1.087477       -29.5918 
  13   2.0000      -0.997866       -27.1533 
  14   2.0000      -0.929496       -25.2929 
  15   2.0000      -0.900963       -24.5164 
  16   2.0000      -0.803464       -21.8634 
  17   2.0000      -0.767265       -20.8783 
  18   2.0000      -0.706852       -19.2344 
  19   2.0000      -0.696723       -18.9588 
  20   2.0000      -0.678709       -18.4686 
  21   2.0000      -0.628935       -17.1142 
  22   2.0000      -0.619358       -16.8536 
  23   2.0000      -0.600733       -16.3468 
  24   2.0000      -0.599209       -16.3053 
  25   2.0000      -0.581150       -15.8139 
  26   2.0000      -0.545909       -14.8549 
  27   2.0000      -0.534468       -14.5436 
  28   2.0000      -0.523236       -14.2380 
  29   2.0000      -0.505494       -13.7552 
  30   2.0000      -0.483601       -13.1594 
  31   2.0000      -0.471924       -12.8417 
  32   2.0000      -0.463231       -12.6052 
  33   2.0000      -0.456155       -12.4126 
  34   2.0000      -0.441385       -12.0107 
  35   2.0000      -0.397751       -10.8234 
  36   0.0000       0.187137         5.0922 
  37   0.0000       0.216775         5.8987 
  38   0.0000       0.226178         6.1546 
  39   0.0000       0.248047         6.7497 
  40   0.0000       0.260284         7.0827 
  41   0.0000       0.284564         7.7434 
  42   0.0000       0.296414         8.0658 
  43   0.0000       0.303280         8.2527 
  44   0.0000       0.316799         8.6205 
  45   0.0000       0.333416         9.0727 
  46   0.0000       0.345174         9.3926 
*Only the first 10 virtual orbitals were printed.

                    ********************************
                    * MULLIKEN POPULATION ANALYSIS *
                    ********************************

-----------------------
MULLIKEN ATOMIC CHARGES
-----------------------
   0 C :   -0.035999
   1 C :    0.781629
   2 H :    0.277267
   3 H :    0.279939
   4 C :   -0.220404
   5 O :   -0.637038
   6 H :    0.114031
   7 N :   -0.675842
   8 C :   -0.136988
   9 H :    0.118122
  10 H :    0.138389
  11 C :   -0.318932
  12 H :    0.109393
  13 C :   -0.319537
  14 H :    0.104395
  15 H :    0.112022
  16 H :    0.152473
  17 H :    0.105261
  18 H :    0.110121
  19 H :    0.156937
  20 H :    0.372112
  21 O :   -0.587352
Sum of atomic charges:   -0.0000000

--------------------------------
MULLIKEN REDUCED ORBITAL CHARGES
--------------------------------
  0 C s       :     3.203432  s :     3.203432
      pz      :     0.790832  p :     2.762007
      px      :     1.009860
      py      :     0.961315
      dz2     :     0.019179  d :     0.070560
      dxz     :     0.012969
      dyz     :     0.015631
      dx2y2   :     0.015178
      dxy     :     0.007602

  1 C s       :     2.950564  s :     2.950564
      pz      :     0.768652  p :     2.121928
      px      :     0.656594
      py      :     0.696683
      dz2     :     0.021704  d :     0.145879
      dxz     :     0.046144
      dyz     :     0.022349
      dx2y2   :     0.032240
      dxy     :     0.023442

  2 H s       :     0.696649  s :     0.696649
      pz      :     0.006838  p :     0.026084
      px      :     0.004091
      py      :     0.015155

  3 H s       :     0.693995  s :     0.693995
      pz      :     0.006118  p :     0.026066
      px      :     0.014893
      py      :     0.005056

  4 C s       :     3.233633  s :     3.233633
      pz      :     1.010118  p :     2.938545
      px      :     1.058645
      py      :     0.869782
      dz2     :     0.009681  d :     0.048226
      dxz     :     0.010214
      dyz     :     0.008885
      dx2y2   :     0.015324
      dxy     :     0.004122

  5 O s       :     3.836792  s :     3.836792
      pz      :     1.333804  p :     4.774935
      px      :     1.669803
      py      :     1.771328
      dz2     :     0.002077  d :     0.025311
      dxz     :     0.009275
      dyz     :     0.005102
      dx2y2   :     0.004938
      dxy     :     0.003918

  6 H s       :     0.873287  s :     0.873287
      pz      :     0.006236  p :     0.012682
      px      :     0.002149
      py      :     0.004297

  7 N s       :     3.599524  s :     3.599524
      pz      :     1.525473  p :     4.041882
      px      :     1.183364
      py      :     1.333045
      dz2     :     0.007839  d :     0.034436
      dxz     :     0.009095
      dyz     :     0.001938
      dx2y2   :     0.014647
      dxy     :     0.000917

  8 C s       :     3.234419  s :     3.234419
      pz      :     0.991175  p :     2.847108
      px      :     0.935925
      py      :     0.920008
      dz2     :     0.010500  d :     0.055461
      dxz     :     0.009590
      dyz     :     0.012576
      dx2y2   :     0.014263
      dxy     :     0.008532

  9 H s       :     0.869519  s :     0.869519
      pz      :     0.002165  p :     0.012358
      px      :     0.008336
      py      :     0.001857

 10 H s       :     0.849167  s :     0.849167
      pz      :     0.006151  p :     0.012444
      px      :     0.004168
      py      :     0.002125

 11 C s       :     3.248014  s :     3.248014
      pz      :     1.045535  p :     3.028554
      px      :     1.032986
      py      :     0.950032
      dz2     :     0.008234  d :     0.042363
      dxz     :     0.004785
      dyz     :     0.011649
      dx2y2   :     0.012440
      dxy     :     0.005257

 12 H s       :     0.877967  s :     0.877967
      pz      :     0.001987  p :     0.012641
      px      :     0.008861
      py      :     0.001793

 13 C s       :     3.246336  s :     3.246336
      pz      :     1.042344  p :     3.030944
      px      :     0.937363
      py      :     1.051237
      dz2     :     0.007486  d :     0.042258
      dxz     :     0.008209
      dyz     :     0.009196
      dx2y2   :     0.010795
      dxy     :     0.006571

 14 H s       :     0.883030  s :     0.883030
      pz      :     0.006418  p :     0.012575
      px      :     0.003091
      py      :     0.003066

 15 H s       :     0.875315  s :     0.875315
      pz      :     0.006372  p :     0.012662
      px      :     0.002167
      py      :     0.004124

 16 H s       :     0.834823  s :     0.834823
      pz      :     0.006296  p :     0.012705
      px      :     0.003150
      py      :     0.003259

 17 H s       :     0.882182  s :     0.882182
      pz      :     0.006320  p :     0.012557
      px      :     0.003486
      py      :     0.002751

 18 H s       :     0.877149  s :     0.877149
      pz      :     0.002208  p :     0.012730
      px      :     0.002708
      py      :     0.007815

 19 H s       :     0.830841  s :     0.830841
      pz      :     0.001677  p :     0.012222
      px      :     0.008645
      py      :     0.001900

 20 H s       :     0.586379  s :     0.586379
      pz      :     0.020957  p :     0.041509
      px      :     0.007934
      py      :     0.012618

 21 O s       :     3.871822  s :     3.871822
      pz      :     1.789928  p :     4.682871
      px      :     1.436889
      py      :     1.456055
      dz2     :     0.003633  d :     0.032659
      dxz     :     0.005760
      dyz     :     0.002157
      dx2y2   :     0.011653
      dxy     :     0.009455



                     *******************************
                     * LOEWDIN POPULATION ANALYSIS *
                     *******************************

----------------------
LOEWDIN ATOMIC CHARGES
----------------------
   0 C :   -0.026804
   1 C :    0.228626
   2 H :    0.131934
   3 H :    0.133896
   4 C :   -0.104189
   5 O :   -0.210873
   6 H :    0.064648
   7 N :   -0.272847
   8 C :   -0.066763
   9 H :    0.062741
  10 H :    0.070205
  11 C :   -0.177896
  12 H :    0.061157
  13 C :   -0.178696
  14 H :    0.059521
  15 H :    0.063118
  16 H :    0.073312
  17 H :    0.059704
  18 H :    0.061263
  19 H :    0.079482
  20 H :    0.201226
  21 O :   -0.312764

-------------------------------
LOEWDIN REDUCED ORBITAL CHARGES
-------------------------------
  0 C s       :     2.867766  s :     2.867766
      pz      :     0.952478  p :     3.017618
      px      :     1.031892
      py      :     1.033248
      dz2     :     0.039849  d :     0.141420
      dxz     :     0.025728
      dyz     :     0.032723
      dx2y2   :     0.028737
      dxy     :     0.014383

  1 C s       :     2.848857  s :     2.848857
      pz      :     0.921451  p :     2.605919
      px      :     0.893995
      py      :     0.790474
      dz2     :     0.046417  d :     0.316598
      dxz     :     0.103198
      dyz     :     0.047894
      dx2y2   :     0.066974
      dxy     :     0.052115

  2 H s       :     0.786493  s :     0.786493
      pz      :     0.022083  p :     0.081573
      px      :     0.012459
      py      :     0.047031

  3 H s       :     0.784351  s :     0.784351
      pz      :     0.020897  p :     0.081753
      px      :     0.045092
      py      :     0.015765

  4 C s       :     2.894159  s :     2.894159
      pz      :     1.060739  p :     3.118809
      px      :     1.071907
      py      :     0.986163
      dz2     :     0.018037  d :     0.091221
      dxz     :     0.017422
      dyz     :     0.018020
      dx2y2   :     0.029168
      dxy     :     0.008575

  5 O s       :     3.457751  s :     3.457751
      pz      :     1.321986  p :     4.705129
      px      :     1.656111
      py      :     1.727033
      dz2     :     0.009269  d :     0.047993
      dxz     :     0.017474
      dyz     :     0.009431
      dx2y2   :     0.006799
      dxy     :     0.005020

  6 H s       :     0.895694  s :     0.895694
      pz      :     0.018757  p :     0.039657
      px      :     0.007562
      py      :     0.013338

  7 N s       :     3.186066  s :     3.186066
      pz      :     1.521789  p :     4.025635
      px      :     1.189535
      py      :     1.314311
      dz2     :     0.013316  d :     0.061146
      dxz     :     0.015203
      dyz     :     0.005197
      dx2y2   :     0.024074
      dxy     :     0.003356

  8 C s       :     2.871511  s :     2.871511
      pz      :     1.045106  p :     3.085864
      px      :     1.026587
      py      :     1.014171
      dz2     :     0.020686  d :     0.109387
      dxz     :     0.017967
      dyz     :     0.024490
      dx2y2   :     0.028936
      dxy     :     0.017308

  9 H s       :     0.897530  s :     0.897530
      pz      :     0.008146  p :     0.039729
      px      :     0.024435
      py      :     0.007148

 10 H s       :     0.889260  s :     0.889260
      pz      :     0.019321  p :     0.040535
      px      :     0.013228
      py      :     0.007986

 11 C s       :     2.908340  s :     2.908340
      pz      :     1.081878  p :     3.193960
      px      :     1.073186
      py      :     1.038895
      dz2     :     0.014015  d :     0.075597
      dxz     :     0.007582
      dyz     :     0.021005
      dx2y2   :     0.022539
      dxy     :     0.010456

 12 H s       :     0.899324  s :     0.899324
      pz      :     0.007026  p :     0.039518
      px      :     0.025915
      py      :     0.006577

 13 C s       :     2.906780  s :     2.906780
      pz      :     1.080756  p :     3.196498
      px      :     1.035309
      py      :     1.080433
      dz2     :     0.012761  d :     0.075418
      dxz     :     0.015441
      dyz     :     0.014775
      dx2y2   :     0.019921
      dxy     :     0.012520

 14 H s       :     0.900910  s :     0.900910
      pz      :     0.019209  p :     0.039570
      px      :     0.010088
      py      :     0.010273

 15 H s       :     0.897292  s :     0.897292
      pz      :     0.019019  p :     0.039590
      px      :     0.007533
      py      :     0.013038

 16 H s       :     0.885662  s :     0.885662
      pz      :     0.019488  p :     0.041027
      px      :     0.010790
      py      :     0.010749

 17 H s       :     0.900722  s :     0.900722
      pz      :     0.018859  p :     0.039574
      px      :     0.011447
      py      :     0.009268

 18 H s       :     0.898769  s :     0.898769
      pz      :     0.007678  p :     0.039968
      px      :     0.009129
      py      :     0.023162

 19 H s       :     0.880414  s :     0.880414
      pz      :     0.006447  p :     0.040103
      px      :     0.025937
      py      :     0.007719

 20 H s       :     0.678434  s :     0.678434
      pz      :     0.057051  p :     0.120340
      px      :     0.025603
      py      :     0.037686

 21 O s       :     3.548201  s :     3.548201
      pz      :     1.754759  p :     4.707421
      px      :     1.488482
      py      :     1.464179
      dz2     :     0.007600  d :     0.057142
      dxz     :     0.010390
      dyz     :     0.004372
      dx2y2   :     0.014953
      dxy     :     0.019827



                      *****************************
                      * MAYER POPULATION ANALYSIS *
                      *****************************

  NA   - Mulliken gross atomic population
  ZA   - Total nuclear charge
  QA   - Mulliken gross atomic charge
  VA   - Mayer's total valence
  BVA  - Mayer's bonded valence
  FA   - Mayer's free valence

  ATOM       NA         ZA         QA         VA         BVA        FA
  0 C      6.0360     6.0000    -0.0360     3.7516     3.7516    -0.0000
  1 C      5.2184     6.0000     0.7816     3.7005     3.7005    -0.0000
  2 H      0.7227     1.0000     0.2773     0.9046     0.9046    -0.0000
  3 H      0.7201     1.0000     0.2799     0.9065     0.9065    -0.0000
  4 C      6.2204     6.0000    -0.2204     3.7619     3.7619     0.0000
  5 O      8.6370     8.0000    -0.6370     1.8184     1.8184    -0.0000
  6 H      0.8860     1.0000     0.1140     0.9544     0.9544     0.0000
  7 N      7.6758     7.0000    -0.6758     2.7734     2.7734     0.0000
  8 C      6.1370     6.0000    -0.1370     3.7844     3.7844     0.0000
  9 H      0.8819     1.0000     0.1181     0.9530     0.9530     0.0000
 10 H      0.8616     1.0000     0.1384     0.9506     0.9506     0.0000
 11 C      6.3189     6.0000    -0.3189     3.8456     3.8456    -0.0000
 12 H      0.8906     1.0000     0.1094     0.9536     0.9536    -0.0000
 13 C      6.3195     6.0000    -0.3195     3.8430     3.8430    -0.0000
 14 H      0.8956     1.0000     0.1044     0.9529     0.9529     0.0000
 15 H      0.8880     1.0000     0.1120     0.9543     0.9543    -0.0000
 16 H      0.8475     1.0000     0.1525     0.9456     0.9456    -0.0000
 17 H      0.8947     1.0000     0.1053     0.9533     0.9533    -0.0000
 18 H      0.8899     1.0000     0.1101     0.9525     0.9525    -0.0000
 19 H      0.8431     1.0000     0.1569     0.9408     0.9408     0.0000
 20 H      0.6279     1.0000     0.3721     0.8719     0.8719    -0.0000
 21 O      8.5874     8.0000    -0.5874     1.9004     1.9004    -0.0000

  Mayer bond orders larger than 0.100000
B(  0-C ,  1-C ) :   0.9238 B(  0-C ,  4-C ) :   0.9568 B(  0-C ,  7-N ) :   0.9884 
B(  0-C , 19-H ) :   0.9535 B(  1-C ,  5-O ) :   0.9674 B(  1-C , 21-O ) :   1.8359 
B(  2-H ,  7-N ) :   0.9085 B(  3-H ,  7-N ) :   0.8998 B(  4-C ,  8-C ) :   0.9676 
B(  4-C ,  9-H ) :   0.9705 B(  4-C , 10-H ) :   0.9642 B(  5-O , 20-H ) :   0.8402 
B(  6-H , 13-C ) :   0.9770 B(  8-C , 11-C ) :   0.9791 B(  8-C , 13-C ) :   0.9755 
B(  8-C , 16-H ) :   0.9604 B( 11-C , 12-H ) :   0.9771 B( 11-C , 14-H ) :   0.9725 
B( 11-C , 15-H ) :   0.9770 B( 13-C , 17-H ) :   0.9721 B( 13-C , 18-H ) :   0.9767 


-------
TIMINGS
-------

Total SCF time: 0 days 0 hours 0 min 18 sec 

Total time                  ....      18.824 sec
Sum of individual times     ....      17.684 sec  ( 93.9%)

SCF preparation             ....       0.016 sec  (  0.1%)
Fock matrix formation       ....      17.611 sec  ( 93.6%)
  Startup                   ....       0.001 sec  (  0.0% of F)
  Coulomb+Exchange Fock     ....      18.742 sec  (106.4% of F)
Diagonalization             ....       0.000 sec  (  0.0%)
Density matrix formation    ....       0.004 sec  (  0.0%)
Total Energy calculation    ....       0.001 sec  (  0.0%)
Population analysis         ....       0.003 sec  (  0.0%)
Orbital Transformation      ....       0.006 sec  (  0.0%)
Orbital Orthonormalization  ....       0.000 sec  (  0.0%)
DIIS solution               ....       0.031 sec  (  0.2%)
SOSCF solution              ....       0.011 sec  (  0.1%)
Finished LeanSCF after  18.8 sec

Maximum memory used throughout the entire LEANSCF-calculation: 15.0 MB

------------------------------------------------------------------------------
                                ORCA  MP2 
------------------------------------------------------------------------------

Freezing NCore=18 chemical core electrons

----------
MP2 ENERGY (disk based algorithm)
----------

Dimension of the basis                      ...  191
Memory devoted to MP2                       ... 4096 MB   
Data format for buffers                     ... DOUBLE
Compression type for matrix containers      ... UNCOMPRESSED

-------------------------
SHARK HALF TRANSFORMATION (Exchange order)
-------------------------

Number of basis functions                   ...    191
Number of operators                         ...      1
   Operator  0:    9-  35 (p-index in (p*|q*))
   Operator  0:    9-  35 (q-index in (p*|q*)
Integral generator used                     ... SHARK
Contraction scheme used                     ... SEGMENTED CONTRACTION
MaxCore in resort                           ...   4096 MB

Half transformed integrals for op=   0      ... 0.SHARK_MNPQ0.tmp
Resorted half transformed integrals         ... 0.KAO_aa.tmp

Half trafo (segmented) done. Total time = 11.4 sec. integrals= 10.2 sec trafo=  1.0 sec

----------------------
SHARK INTEGRAL SORTING (Exchange)
----------------------

Input container                             ... 0.SHARK_MNPQ0.tmp
Output container                            ... 0.KAO_aa.tmp
Range of AO-indices                         ...    0 -  190
Range of bra indices i                      ...    9 -   35
Range of ket indices j                      ...    9 -   35
Symmetric i,j range                         ... YES
Number of (i,j) pairs generated             ...  378
Max Core memory in MB                       ...   4096

Available core memory in MB                 ...   4086.32
MB needed for one item                      ...      0.28
Fixed MB needed                             ...      0.00
Number of items                             ...       378
Number of batches                           ...         1
Items treated per batch                     ...       378
Batch   0                                   ...      0-   377 (   378)
   => Closing output file and leaving
done (  0.1 sec)

SHARK half integral transformation done. Total time = 11.5 sec.


Finished integral transformation - now doing MP2 part

OPERATOR COMBINATION   0   0: ij=(  9.. 35,  9.. 35)
  Internal MO  11
  Internal MO  14
  Internal MO  17
  Internal MO  20
  Internal MO  23
  Internal MO  26
  Internal MO  29
  Internal MO  32
  Internal MO  35
-----------------------------------------------
 MP2 CORRELATION ENERGY   :     -1.368135562 Eh
-----------------------------------------------


-------
TIMINGS
-------
Total time                :   11.684 sec
Integral trafo            :   11.530 sec ( 98.7%)
K(i,j)                    :    0.128 sec (  1.1%)
T(i,j)                    :    0.004 sec (  0.0%)

---------------------------------------
MP2 TOTAL ENERGY:     -440.364075155 Eh
---------------------------------------

Maximum memory used throughout the entire MP2-calculation: 115.9 MB

-------------------------   --------------------
FINAL SINGLE POINT ENERGY      -440.364075154574
-------------------------   --------------------


------------------------------------------------------------------------------
                              ORCA PROPERTY CALCULATIONS
------------------------------------------------------------------------------

GBWName                                 ... 0.gbw
Number of atoms                         ...     22
Number of basis functions               ...    191
Max core memory                         ...   4096 MB

Electric properties:
Dipole moment                           ... YES
Quadrupole moment                       ...  NO
Static polarizability (Dipole/Dipole)   ...  NO
Static polarizability (Dipole/Quad.)    ...  NO
Static polarizability (Quad./Quad.)     ...  NO
Static polarizability (Velocity)        ...  NO
Static hyperpolarizability              ...  NO

Atomic electric properties:
Dipole moment                           ...  NO
Quadrupole moment                       ...  NO
Static polarizability                   ...  NO

Choice of electric origin               ... Center of mass
Position of electric origin             ...   -17.548041    10.566478    -2.786213

General magnetic properties:
Magnetizability                         ...  NO

EPR properties:
g-Tensor (aka g-matrix)                 ...  NO
Zero-Field splitting spin-orbit         ...  NO
Zero-field splitting spin-spin          ...  NO
Hyperfine couplings                     ...  NO (   0 nuclei)
Quadrupole couplings                    ...  NO (   0 nuclei)
Contact density                         ...  NO (   0 nuclei)

NMR properties:
Chemical shifts                         ...  NO (   0 nuclei)
Spin-rotation constants                 ...  NO (   0 nuclei)
Spin-spin couplings                     ...  NO (   0 nuclei,    0 pairs)

Choice of magnetic origin               ... GIAO
Position of magnetic origin             ...     0.000000     0.000000     0.000000

Properties with geometric perturbations:
SCF Hessian                             ...  NO
IR spectrum                             ...  NO
VCD spectrum                            ...  NO
X-ray spectroscopy properties:
SCF XES/XAS/RIXS spectra                ...  NO

SCF SOC stabilization energy            ...  NO
Diagonal Born-Oppenheimer correction    ...  NO

-------------
DIPOLE MOMENT
-------------

Method             : SCF
Type of density    : Electron Density
Multiplicity       :   1
Irrep              :   0
Energy             :  -438.9959395922897443 Eh
Basis              : AO
                                X                 Y                 Z
Electronic contribution:      2.803144807      11.530934562       7.469943520
Nuclear contribution   :     -3.212048306     -11.633664457      -7.165920911
                        -----------------------------------------
Total Dipole Moment    :     -0.408903499      -0.102729896       0.304022608
                        -----------------------------------------
Magnitude (a.u.)       :      0.519793468
Magnitude (Debye)      :      1.321209998



--------------------
Rotational spectrum 
--------------------
 
Rotational constants in cm-1:             0.093398             0.028305             0.026506 
Rotational constants in MHz :          2800.000034           848.554475           794.624707 

Dipole components along the rotational axes: 
x,y,z [a.u.] :    -0.009681     0.504246     0.125805 
x,y,z [Debye]:    -0.024607     1.281693     0.319772 

 

Dipole moment calculation done in   0.0 sec 

Maximum memory used throughout the entire PROP-calculation: 9.9 MB

--------------------------------
SUGGESTED CITATIONS FOR THIS RUN
--------------------------------

Below you find a list of papers that are relevant to this ORCA run
We neither can nor want to force you to cite these papers, but we appreciate if you do
You receive ORCA, which is the product of decades of hard work by many enthusiastic individuals, for free
The only thing we kindly ask in return is that you cite our papers,
We deeply appreciate it, if you show your appreciation for ORCA by not just citing the generic ORCA reference.

Please note that relegating all ORCA citations to the supporting information does *not* help us.
SI sections are not indexed - citations you put there will not count into any citation statistics
But we need these citations in order to attract the funding resources that allow us to do what we are doing

Therefore, if you are a happy ORCA user, please consider citing a few of the papers listed below in the main body of your paper

In addition to the list printed below, the program has created the file 0.bibtex that contains the list in bibtex format
You can import this file easily into all common literature databanks and citation aid programs


List of essential papers. We consider these as the minimum necessary citations

  1. Neese, F.
     Software update: the ORCA program system, version 6.0
     WIRES Comput. Molec. Sci. 2025 15(1), e70019
     doi.org/10.1002/wcms.7019

List of papers to cite with high priority. The work reported in these papers was absolutely
necessary for this run to complete.
Our perspective: the developers of density functionals and basis sets usually get cited in chemistry papers
Good! But without the algorithms to do something with them, the functionals or basis sets would not do anything.
Hence, in our opinion, the algorithm design and method developments papers are equally worthy of getting cited

  1. Neese, F.
     The SHARK Integral Generation and Digestion System
     J. Comp. Chem. 2022 44(3), 381
     doi.org/10.1002/jcc.26942

List of suggested additional citations. These are papers that are important in the 'surrounding' of 
of this run, or papers that preceded the highly important papers. If you like your results we are grateful for a citation.

  1. Neese, F.
     The ORCA program system
     WIRES Comput. Molec. Sci. 2012 2(1), 73-78
     doi.org/10.1002/wcms.81
  2. Neese, F.
     Software update: the ORCA program system, version 4.0
     WIRES Comput. Molec. Sci. 2018 8(1), 1-6
     doi.org/10.1002/wcms.1327
  3. Neese, F.; Wennmohs, F.; Becker, U.; Riplinger, C.
     The ORCA quantum chemistry program package
     J. Chem. Phys. 2020 152(22), 224108
     doi.org/10.1063/5.0004608
  4. Neese, F.
     Software update: The ORCA program system—Version 5.0
     WIRES Comput. Molec. Sci. 2022 12(1), e1606
     doi.org/10.1002/wcms.1606

List of optional additional citations

  1. Neese, F.
     Approximate second-order SCF convergence for spin unrestricted wavefunctions
     Chem. Phys. Lett. 2000 325(1-3), 93-98
     doi.org/10.1016/s0009-2614(00)00662-x

Timings for individual modules:

Sum of individual times          ...       31.259 sec (=   0.521 min)
Startup calculation              ...        0.444 sec (=   0.007 min)   1.4 %
SCF iterations                   ...       19.082 sec (=   0.318 min)  61.0 %
Property calculations            ...        0.024 sec (=   0.000 min)   0.1 %
MP2 module                       ...       11.708 sec (=   0.195 min)  37.5 %
                             ****ORCA TERMINATED NORMALLY****
TOTAL RUN TIME: 0 days 0 hours 0 minutes 31 seconds 295 msec
