
                                 *****************
                                 * O   R   C   A *
                                 *****************

                                            #,                                       
                                            ###                                      
                                            ####                                     
                                            #####                                    
                                            ######                                   
                                           ########,                                 
                                     ,,################,,,,,                         
                               ,,#################################,,                 
                          ,,##########################################,,             
                       ,#########################################, ''#####,          
                    ,#############################################,,   '####,        
                  ,##################################################,,,,####,       
                ,###########''''           ''''###############################       
              ,#####''   ,,,,##########,,,,          '''####'''          '####       
            ,##' ,,,,###########################,,,                        '##       
           ' ,,###''''                  '''############,,,                           
         ,,##''                                '''############,,,,        ,,,,,,###''
      ,#''                                            '''#######################'''  
     '                                                          ''''####''''         
             ,#######,   #######,   ,#######,      ##                                
            ,#'     '#,  ##    ##  ,#'     '#,    #''#        ,####,    ,#,          
            ##       ##  ##   ,#'  ##            #'  '#       #'       ,# #          
            ##       ##  #######   ##           ,######,      #####,      #          
            '#,     ,#'  ##    ##  '#,     ,#' ,#      #,     #,   #      #          
             '#######'   ##     ##  '#######'  #'      '#     '####' #    #          



                #########################################################
                #                        -***-                          #
                #          Department of theory and spectroscopy        #
                #                                                       #
                #                      Frank Neese                      #
                #                                                       #
                #     Directorship, Architecture, Infrastructure        #
                #                    SHARK, DRIVERS                     #
                #        Core code/Algorithms in most modules           #
                #                                                       #
                #        Max Planck Institute fuer Kohlenforschung      #
                #                Kaiser Wilhelm Platz 1                 #
                #                 D-45470 Muelheim/Ruhr                 #
                #                      Germany                          #
                #                                                       #
                #                  All rights reserved                  #
                #                        -***-                          #
                #########################################################


                         Program Version 6.1.0  -  RELEASE   -
                                (GIT: $679e74b$)
                          ($2025-06-10 18:02:51 +0200$)


 With contributions from (in alphabetic order):
[Max-Planck-Institut fuer Kohlenforschung]                               
  Daniel Aravena         : Magnetic Suceptibility                        
  Michael Atanasov       : Ab Initio Ligand Field Theory (pilot matlab implementation)
  Alexander A. Auer      : GIAO ZORA, VPT2 properties, NMR spectrum      
  Ute Becker             : All parallelization in ORCA, NUMFREQ, NUMCALC 
  Giovanni Bistoni       : ED, misc. LED, open-shell LED, HFLD           
  Dmytro Bykov           : pre 5.0 version of the SCF Hessian            
  Marcos Casanova-Páez   : Triplet and SCS-CIS(D). UHF-(DLPNO)-IP/EA/STEOM-CCSD. UHF-CVS-IP/STEOM-CCSD   
  Vijay G. Chilkuri      : MRCI spin determinant printing, contributions to CSF-ICE 
  Pauline Colinet        : FMM embedding                                 
  Dipayan Datta          : RHF DLPNO-CCSD density                        
  Achintya Kumar Dutta   : EOM-CC, STEOM-CC                              
  Nicolas Foglia         : Exact transition moments, OPA infrastructure, MCD improvements    
  Dmitry Ganyushin       : Spin-Orbit,Spin-Spin,Magnetic field MRCI      
  Miquel Garcia-Rates    : C-PCM and meta-GGA Hessian, CCSD/C-PCM, Gaussian charge scheme 
  Tiago L. C. Gouveia    : GS-ROHF, GS-ROCIS                             
  Yang Guo               : DLPNO-NEVPT2, F12-NEVPT2, CIM, IAO-localization        
  Andreas Hansen         : Spin unrestricted coupled pair/coupled cluster methods 
  Ingolf Harden          : AUTO-CI MPn and infrastructure                
  Benjamin Helmich-Paris : MC-RPA, TRAH-(SCF,CASSCF), AVAS, COSX integrals, SCF dyn. polar., MC-PDFT, srDFT 
  Lee Huntington         : MR-EOM, pCC                                   
  Robert Izsak           : Overlap fitted RIJCOSX, COSX-SCS-MP3, EOM     
  Riya Kayal             : Wick's Theorem for AUTO-CI, AUTO-CI UHF-CCSDT 
  Emily Kempfer          : AUTO-CI RHF CISDT and CCSDT, approximate NEVPT4
  Christian Kollmar      : KDIIS, OOCD, Brueckner-CCSD(T), CCSD density, CASPT2, CASPT2-K, improved NEVPT2 
  Axel Koslowski         : Symmetry handling                             
  Simone Kossmann        : meta-GGA functionals, TD-DFT gradient, OOMP2, (MP2 Hessian; deprecated post 5.0) 
  Lucas Lang             : DCDCAS, Hyperfine gauge corrections, ICE-SOC+SSC
  Marvin Lechner         : AUTO-CI (C++ implementation), FIC-MRCC        
  Spencer Leger          : CASSCF response                               
  Dagmar Lenk            : GEPOL surface, SMD, ORCA-2-JSON               
  Dimitrios Liakos       : Extrapolation schemes; Compound Job, Property file
  Dimitrios Manganas     : Further ROCIS development; embedding schemes. LFT, Crystal Embedding 
  Dimitrios Pantazis     : SARC Basis sets                               
  Anastasios Papadopoulos: AUTO-CI, single reference methods and gradients 
  Taras Petrenko         : pre 6.0 DFT Hessian and TD-DFT gradient,  ECA, NRVS 
  Petra Pikulova         : Analytic Raman intensities                    
  Peter Pinski           : DLPNO-MP2, DLPNO-MP2 Gradient                 
  Shashank Vittal Rao    : ES-AILFT, MagRelax                            
  Christoph Reimann      : Effective Core Potentials                     
  Marius Retegan         : Local ZFS, SOC                                
  Christoph Riplinger    : Optimizer, TS searches, QM/MM, DLPNO-CCSD(T), (RO)-DLPNO pert. Triples 
  Michael Roemelt        : Original ROCIS implementation, recursive CI coupling coefficients
  Masaaki Saitow         : Open-shell DLPNO-CCSD energy and density      
  Barbara Sandhoefer     : DKH picture change effects                    
  Yorick L. A. Schmerwitz: GMF and freeze-and-release deltaSCF, NEB S-IDPP initial path                    
  Kantharuban Sivalingam : CASSCF convergence/infrastructure, NEVPT2, NEVPT3, NEVPT4(SD), FIC-MRCI and CEPA variants
  Bernardo de Souza      : ESD, SOC TD-DFT                               
  Georgi L. Stoychev     : AutoAux, RI-MP2 NMR, DLPNO-MP2 response, X2C  
  Van Anh Tran           : RI-MP2 g-tensors                              
  Willem Van den Heuvel  : Paramagnetic NMR                              
  Zikuan Wang            : NOTCH, Electric field optimization            
  Frank Wennmohs         : Technical directorship and infrastructure     
  Hang Xu                : AUTO-CI-Response properties                   
                                                                         
[FACCTs GmbH]                                                            
  Markus Bursch, Nicolas Foglia, Miquel Garcia-Rates, Ingolf Harden, Hagen Neugebauer, Anastasios Papadopoulos, 
  Christoph Riplinger, Bernardo de Souza, Georgi L. Stoychev                                                    
                                                                 
  APM, various basis sets, CI-OPT, improved COSX, DLPNO-Multilevel,           
  DOCKER, DRACO, updates on ESD, Fragmentator, GOAT, IRC, LR-CPCM, L-BFGS, MBIS, meta-GGA TD-DFT gradient, ML-optimized integration grids, 
  MM, NACMEs, nearIR, NEB, NEB-TS, NL-DFT gradient (VV10), 2- and 3-layer-ONIOM, interface openCOSMO-RS, QMMM,   
  Crystal-QMMM, RESP, rigid body optimization, SF, symmetry and pop. for TD-DFT, various functionals, SOLVATOR                                   
                                                                         
[Other institutions]                                                     
  V. Asgeirsson          : NEB                                           
  Christoph Bannwarth    : sTDA-DFT, sTD-DFT, PBEh-3c, B97-3c, D3        
  Giovanni Bistoni       : ETS/NOCV, ADLD/ADEX, COVALED                  
  Martin Brehm           : Molecular dynamics                            
  Ronald Cardenas        : ETS/NOCV                                      
  Martina Colucci        : COVALED                                       
  Sebastian Ehlert       : rSCAN, r2SCAN, r2SCAN-3c, D4, dhf basis sets  
  Marvin Friede          : D4 for Fr, Ra, Ac-Lr                          
  Lars Goerigk           : TD-DFT with DH, B97 family of functionals     
  Stefan Grimme          : VdW corrections, initial TS optimization, DFT functionals, gCP, sTDA/sTD-DF 
  Waldemar Hujo          : DFT-NL                                        
  H. Jonsson             : NEB                                           
  Holger Kruse           : gCP                                           
  Marcel Mueller         : wB97X-3c, vDZP basis set                      
  Hagen Neugebauer       : wr2SCAN, Native XTB                           
  Gianluca Regni         : ADLD/ADEX                                     
  Tobias Risthaus        : pre 6.0 range-separated hybrid DFT and stability analysis
  Lukas Wittmann         : regularized MP2, r2SCAN double-hybrids, wr2SCAN        
                                                                         
We gratefully acknowledge several colleagues who have allowed us to      
interface, adapt or use parts of their codes:                            
  Ed Valeev, F. Pavosevic, A. Kumar             : LibInt (2-el integral package), F12 methods 
  Garnet Chan, S. Sharma, J. Yang, R. Olivares  : DMRG                   
  Ulf Ekstrom                                   : XCFun DFT Library      
  Mihaly Kallay                                 : mrcc  (arbitrary order and MRCC methods)
  Frank Weinhold                                : gennbo (NPA and NBO analysis)           
  Simon Mueller                                 : openCOSMO-RS                            
  Christopher J. Cramer and Donald G. Truhlar   : smd solvation model                     
  S Lehtola, MJT Oliveira, MAL Marques          : LibXC Library                           
  Liviu Ungur et al                             : ANISO software                          


 Your calculation uses the libint2 library for the computation of 2-el integrals
 For citations please refer to: http://libint.valeyev.net

 Your ORCA version has been built with support for libXC version: 7.0.0
 For citations please refer to: https://libxc.gitlab.io

 This ORCA versions uses:
   CBLAS   interface :  Fast vector & matrix operations
   LAPACKE interface :  Fast linear algebra routines
   SCALAPACK package :  Parallel linear algebra routines
   Shared memory     :  Shared parallel matrices
   BLAS/LAPACK       :  OpenBLAS 0.3.29  USE64BITINT DYNAMIC_ARCH NO_AFFINITY Haswell SINGLE_THREADED
        Core in use  :  Haswell
   Copyright (c) 2011-2014, The OpenBLAS Project


  ***********************************
  * Starting time: Sat Aug 30 16:24:37 2025
  * Host name:     chemlab03
  * Process ID:    82715
  * Working dir.:  /home/vivek/mm-project/vivek/xtb-goat/B97-D-opt/k/4
  ***********************************



***************************************
The coordinates will be read from file: /home/vivek/mm-project/vivek/xtb-goat/xtb-goat/k/K_CONF/4.xyz
***************************************


Your calculation utilizes empirical dispersion correction


Warning: RI is on but no J-basis has been assigned. Assigning Def2/J (nothing to worry about!)
================================================================================

----- Orbital basis set information -----
Your calculation utilizes the basis: 6-31G**
   H-He, Li-Ne : W. J. Hehre, R. Ditchfield and J.A. Pople, J. Chem. Phys. 56, 2257 (1972).
                 Note: He and Ne are unpublished basis sets taken from the Gaussian program.
                 Note: Li and B from J. D. Dill and J. A. Pople, J. Chem. Phys. 62, 2921 (1975).
   Na - Ar     : M. M. Francl, W. J. Pietro, W. J. Hehre, J. S. Binkley, M. S. Gordon, 
                 D. J. DeFrees and J. A. Pople, J. Chem. Phys. 77, 3654 (1982).
   K - Zn      : V. A. Rassolov, J. A. Pople, M. A. Ratner, and T. L. Windus, J. Chem. Phys. 109, 1223 (1998).

----- AuxJ basis set information -----
Your calculation utilizes the auxiliary basis: def2/J
   H-Rn: F. Weigend, Phys. Chem. Chem. Phys. 8, 1057 (2006).
   Fr-Lr: K. Eichkorn, F. Weigend, O. Treutler, R. Ahlrichs; Theor. Chem. Acc. 97, 119 (1997).

================================================================================
                                        WARNINGS
                       Please study these warnings very carefully!
================================================================================


WARNING: Geometry Optimization
  ===> : Switching off AutoStart
         For restart on a previous wavefunction, please use MOREAD

INFO   : The exchange functional is Grimme's B97(-D)
         As described in S. Grimme, J. Comput. Chem. 27, 1787 (2006).
         Note that this functional defaults to a pure GGA. 

INFO   : The correlation functional is Grimme's B97(-D)
         As described in S. Grimme, J. Comput. Chem. 27, 1787 (2006).

================================================================================
                                       INPUT FILE
================================================================================
NAME = 4.inp
|  1> ! B97-D 6-31G** opt
|  2> 
|  3> * xyzfile 0 1 /home/vivek/mm-project/vivek/xtb-goat/xtb-goat/k/K_CONF/4.xyz
|  4> 
|  5>                          ****END OF INPUT****
================================================================================

                       *****************************
                       * Geometry Optimization Run *
                       *****************************

Geometry optimization settings:
Update method            Update   .... BFGS
Choice of coordinates    CoordSys .... (2022) Redundant Internals
Initial Hessian          InHess   .... Almloef's Model
Max. no of cycles        MaxIter  .... 72

Convergence Tolerances:
Energy Change            TolE     ....  5.0000e-06 Eh
Max. Gradient            TolMAXG  ....  3.0000e-04 Eh/bohr
RMS Gradient             TolRMSG  ....  1.0000e-04 Eh/bohr
Max. Displacement        TolMAXD  ....  4.0000e-03 bohr
RMS Displacement         TolRMSD  ....  2.0000e-03 bohr
Strict Convergence                .... False

------------------------------------------------------------------------------
                        ORCA OPTIMIZATION COORDINATE SETUP
------------------------------------------------------------------------------

The optimization will be done in redundant internal coordinates (2022)
Making redundant internal coordinates   ...  (2022 redundants) done
Evaluating the initial hessian          ...  (Almloef) done
Evaluating the coordinates              ...  done
Calculating the B-matrix                .... done
Calculating the G-matrix                .... done
The number of degrees of freedom        ....  104

    -----------------------------------------------------------------
                    Redundant Internal Coordinates


    -----------------------------------------------------------------
         Definition                    Initial Value    Approx d2E/dq
    -----------------------------------------------------------------
      1. B(C   1,C   0)                  1.5357         0.365852   
      2. B(N   4,H   2)                  1.0151         0.424753   
      3. B(N   4,C   0)                  1.4512         0.446997   
      4. B(N   4,H   3)                  1.0150         0.424809   
      5. B(C   5,C   1)                  1.5262         0.378796   
      6. B(H   6,C   1)                  1.0938         0.355060   
      7. B(H   7,C   1)                  1.0937         0.355269   
      8. B(C   8,C   5)                  1.5252         0.380170   
      9. B(H   9,C   5)                  1.0921         0.357391   
     10. B(H  10,C   5)                  1.0914         0.358241   
     11. B(C  11,C   8)                  1.5394         0.360912   
     12. B(H  12,C   8)                  1.0929         0.356260   
     13. B(H  13,C   8)                  1.0913         0.358410   
     14. B(C  14,C  11)                  1.5228         0.383656   
     15. B(N  16,C  11)                  1.4515         0.446493   
     16. B(O  17,H  15)                  0.9714         0.498678   
     17. B(O  17,C  14)                  1.3371         0.679627   
     18. B(H  18,C   0)                  1.0937         0.355299   
     19. B(H  19,C   0)                  1.0935         0.355511   
     20. B(H  20,N  16)                  1.0148         0.425198   
     21. B(O  21,C  14)                  1.2034         1.110498   
     22. B(H  22,C  11)                  1.0946         0.354124   
     23. B(H  23,N  16)                  1.0160         0.423252   
     24. A(C   1,C   0,H  19)          109.4307         0.322530   
     25. A(C   1,C   0,N   4)          114.8463         0.371035   
     26. A(N   4,C   0,H  18)          107.4647         0.331319   
     27. A(C   1,C   0,H  18)          109.4782         0.322498   
     28. A(H  18,C   0,H  19)          107.9066         0.289644   
     29. A(N   4,C   0,H  19)          107.4828         0.331351   
     30. A(C   5,C   1,H   6)          109.4631         0.324307   
     31. A(C   5,C   1,H   7)          109.4054         0.324339   
     32. A(C   0,C   1,H   6)          109.1134         0.322463   
     33. A(C   0,C   1,C   5)          111.9151         0.362917   
     34. A(H   6,C   1,H   7)          107.7123         0.289582   
     35. A(C   0,C   1,H   7)          109.1367         0.322494   
     36. A(C   0,N   4,H   3)          110.1738         0.338379   
     37. A(C   0,N   4,H   2)          110.1831         0.338372   
     38. A(H   2,N   4,H   3)          107.4558         0.301471   
     39. A(C   8,C   5,H  10)          110.0175         0.324976   
     40. A(C   1,C   5,H  10)          109.2152         0.324783   
     41. A(C   8,C   5,H   9)          109.2858         0.324849   
     42. A(C   1,C   5,H   9)          109.2499         0.324656   
     43. A(C   1,C   5,C   8)          111.5449         0.365307   
     44. A(H   9,C   5,H  10)          107.4336         0.290259   
     45. A(H  12,C   8,H  13)          107.7948         0.290136   
     46. A(C  11,C   8,H  12)          108.8738         0.321923   
     47. A(C  11,C   8,H  13)          106.7332         0.322241   
     48. A(C   5,C   8,H  13)          109.8835         0.325001   
     49. A(C   5,C   8,H  12)          110.0872         0.324680   
     50. A(C   5,C   8,C  11)          113.2768         0.362299   
     51. A(C  14,C  11,N  16)          111.8900         0.374012   
     52. A(C   8,C  11,N  16)          108.9003         0.370097   
     53. A(C   8,C  11,C  14)          109.0061         0.362864   
     54. A(N  16,C  11,H  22)          108.9054         0.331075   
     55. A(C  14,C  11,H  22)          108.7759         0.324846   
     56. A(C   8,C  11,H  22)          109.3314         0.321606   
     57. A(C  11,C  14,O  17)          113.1143         0.402444   
     58. A(O  17,C  14,O  21)          122.6842         0.484406   
     59. A(C  11,C  14,O  21)          124.2014         0.439288   
     60. A(H  20,N  16,H  23)          107.0463         0.301345   
     61. A(C  11,N  16,H  23)          109.1319         0.338108   
     62. A(C  11,N  16,H  20)          110.4728         0.338367   
     63. A(C  14,O  17,H  15)          110.5587         0.373318   
     64. D(H   6,C   1,C   0,H  19)   -179.6864         0.010715   
     65. D(H   6,C   1,C   0,N   4)    -58.7289         0.010715   
     66. D(H   6,C   1,C   0,H  18)     62.2406         0.010715   
     67. D(C   5,C   1,C   0,N   4)    179.9708         0.010715   
     68. D(C   5,C   1,C   0,H  18)    -59.0596         0.010715   
     69. D(C   5,C   1,C   0,H  19)     59.0134         0.010715   
     70. D(H   2,N   4,C   0,C   1)     58.9997         0.017042   
     71. D(H   3,N   4,C   0,H  18)    178.5387         0.017042   
     72. D(H   3,N   4,C   0,C   1)    -59.3948         0.017042   
     73. D(H   2,N   4,C   0,H  19)   -178.9815         0.017042   
     74. D(H   2,N   4,C   0,H  18)    -63.0668         0.017042   
     75. D(H   9,C   5,C   1,C   0)    -58.3649         0.011440   
     76. D(C   8,C   5,C   1,H   6)     59.6067         0.011440   
     77. D(C   8,C   5,C   1,C   0)   -179.2951         0.011440   
     78. D(C   8,C   5,C   1,H   7)    -58.2069         0.011440   
     79. D(H   9,C   5,C   1,H   7)     62.7233         0.011440   
     80. D(H   9,C   5,C   1,H   6)   -179.4631         0.011440   
     81. D(H  12,C   8,C   5,H   9)   -178.5217         0.011518   
     82. D(H  12,C   8,C   5,C   1)    -57.6125         0.011518   
     83. D(C  11,C   8,C   5,H  10)    -58.4106         0.011518   
     84. D(C  11,C   8,C   5,H   9)     59.3192         0.011518   
     85. D(H  12,C   8,C   5,H  10)     63.7485         0.011518   
     86. D(C  11,C   8,C   5,C   1)   -179.7716         0.011518   
     87. D(N  16,C  11,C   8,H  13)    -42.3444         0.010447   
     88. D(N  16,C  11,C   8,H  12)     73.7617         0.010447   
     89. D(N  16,C  11,C   8,C   5)   -163.4053         0.010447   
     90. D(C  14,C  11,C   8,H  13)   -164.6698         0.010447   
     91. D(C  14,C  11,C   8,H  12)    -48.5637         0.010447   
     92. D(C  14,C  11,C   8,C   5)     74.2693         0.010447   
     93. D(O  17,C  14,C  11,N  16)    152.3617         0.010971   
     94. D(O  17,C  14,C  11,C   8)    -87.1330         0.010971   
     95. D(O  21,C  14,C  11,N  16)    -27.4858         0.010971   
     96. D(O  21,C  14,C  11,C   8)     93.0194         0.010971   
     97. D(O  17,C  14,C  11,H  22)     32.0037         0.010971   
     98. D(H  23,N  16,C  11,C  14)     55.2607         0.017003   
     99. D(H  23,N  16,C  11,C   8)    -65.3061         0.017003   
    100. D(H  20,N  16,C  11,H  22)     58.1100         0.017003   
    101. D(H  20,N  16,C  11,C  14)    -62.1725         0.017003   
    102. D(H  20,N  16,C  11,C   8)    177.2607         0.017003   
    103. D(H  15,O  17,C  14,O  21)     -1.0672         0.034399   
    104. D(H  15,O  17,C  14,C  11)    179.0827         0.034399   
    -----------------------------------------------------------------

Number of atoms                         .... 24
Number of degrees of freedom            .... 104


         *************************************************************
         *                GEOMETRY OPTIMIZATION CYCLE   1            *
         *************************************************************
---------------------------------
CARTESIAN COORDINATES (ANGSTROEM)
---------------------------------
  C    -13.851986    7.254313    0.562341
  C    -12.823895    6.314767    1.209344
  H    -14.713251    7.988295    2.257069
  H    -15.500105    6.700031    1.624665
  N    -15.007225    7.555053    1.387466
  C    -11.639642    6.043444    0.285611
  H    -12.464813    6.763254    2.140149
  H    -13.311668    5.369094    1.462149
  C    -10.632576    5.096064    0.929532
  H    -12.002918    5.604686   -0.646112
  H    -11.155648    6.988993    0.034889
  C     -9.417153    4.799129    0.032710
  H    -10.279802    5.510834    1.877154
  H    -11.108246    4.137099    1.141706
  C     -8.504828    6.018183    0.014292
  H     -8.242573    7.675871   -0.895057
  N     -8.736275    3.621253    0.538437
  O     -8.837911    6.908925   -0.925643
  H    -13.371157    8.204182    0.312080
  H    -14.218691    6.808189   -0.366219
  H     -7.955753    3.377124   -0.062343
  O     -7.573828    6.177682    0.759993
  H     -9.759742    4.600033   -0.987606
  H     -8.352565    3.826880    1.456462

----------------------------
CARTESIAN COORDINATES (A.U.)
----------------------------
  NO LB      ZA    FRAG     MASS         X           Y           Z
   0 C     6.0000    0    12.011  -26.176461   13.708665    1.062670
   1 C     6.0000    0    12.011  -24.233650   11.933180    2.285328
   2 H     1.0000    0     1.008  -27.804016   15.095690    4.265243
   3 H     1.0000    0     1.008  -29.290954   12.661225    3.070173
   4 N     7.0000    0    14.007  -28.359546   14.276981    2.621932
   5 C     6.0000    0    12.011  -21.995736   11.420454    0.539726
   6 H     1.0000    0     1.008  -23.555083   12.780698    4.044295
   7 H     1.0000    0     1.008  -25.155406   10.146118    2.763061
   8 C     6.0000    0    12.011  -20.092657    9.630166    1.756561
   9 H     1.0000    0     1.008  -22.682227   10.591322   -1.220975
  10 H     1.0000    0     1.008  -21.081120   13.207282    0.065931
  11 C     6.0000    0    12.011  -17.795841    9.069040    0.061814
  12 H     1.0000    0     1.008  -19.426011   10.413966    3.547306
  13 H     1.0000    0     1.008  -20.991543    7.817984    2.157511
  14 C     6.0000    0    12.011  -16.071795   11.372718    0.027008
  15 H     1.0000    0     1.008  -15.576206   14.505293   -1.691412
  16 N     7.0000    0    14.007  -16.509168    6.843176    1.017498
  17 O     8.0000    0    15.999  -16.701231   13.055976   -1.749212
  18 H     1.0000    0     1.008  -25.267825   15.503658    0.589745
  19 H     1.0000    0     1.008  -26.869433   12.865612   -0.692054
  20 H     1.0000    0     1.008  -15.034195    6.381840   -0.117811
  21 O     8.0000    0    15.999  -14.312460   11.674127    1.436179
  22 H     1.0000    0     1.008  -18.443240    8.692803   -1.866305
  23 H     1.0000    0     1.008  -15.784061    7.231755    2.752314

--------------------------------
INTERNAL COORDINATES (ANGSTROEM)
--------------------------------
 C      0   0   0     0.000000000000     0.00000000     0.00000000
 C      1   0   0     1.535686108340     0.00000000     0.00000000
 H      1   2   0     2.037795908974    98.79663884     0.00000000
 H      3   1   2     1.636672592867    66.31787327   265.91274761
 N      4   3   1     1.015015358744    36.27285689   320.82042547
 C      2   1   3     1.526222026926   111.91514055   203.89427920
 H      2   1   3     1.093836662839   109.11337368   325.19453393
 H      2   1   3     1.093676912045   109.13672881    82.65080745
 C      6   2   1     1.525235913595   111.54485888   180.70486625
 H      6   2   1     1.092055228866   109.24986107   301.63506710
 H      6   2   1     1.091408850003   109.21523225    58.87890157
 C      9   6   2     1.539386989270   113.27678588   180.22840179
 H      9   6   2     1.092917981266   110.08720994   302.38749756
 H      9   6   2     1.091280739783   109.88347573    60.96131593
 C     12   9   6     1.522751198482   109.00605798    74.26928166
 H     15  12   9     1.908826704136   141.56460664   273.57008602
 N     12   9   6     1.451463493308   108.90033010   196.59471962
 O     16  15  12     0.971374256140    40.98581694   358.64270172
 H      1   2   3     1.093653759508   109.47821479    97.04611248
 H      1   2   3     1.093491290841   109.43067083   215.11908546
 H     17  12   9     1.014765835571   110.47279171   177.26069066
 O     15  12   9     1.203441470328   124.20137759    93.01944822
 H     12   9   6     1.094555720321   109.33140920   315.47921611
 H     17  12   9     1.016014713739   109.13187416   294.69394571

---------------------------
INTERNAL COORDINATES (A.U.)
---------------------------
 C      0   0   0     0.000000000000     0.00000000     0.00000000
 C      1   0   0     2.902026172430     0.00000000     0.00000000
 H      1   2   0     3.850876184786    98.79663884     0.00000000
 H      3   1   2     3.092862971414    66.31787327   265.91274761
 N      4   3   1     1.918101049750    36.27285689   320.82042547
 C      2   1   3     2.884141650447   111.91514055   203.89427920
 H      2   1   3     2.067051728008   109.11337368   325.19453393
 H      2   1   3     2.066749842758   109.13672881    82.65080745
 C      6   2   1     2.882278166316   111.54485888   180.70486625
 H      6   2   1     2.063685305674   109.24986107   301.63506710
 H      6   2   1     2.062463826643   109.21523225    58.87890157
 C      9   6   2     2.909019823843   113.27678588   180.22840179
 H      9   6   2     2.065315671431   110.08720994   302.38749756
 H      9   6   2     2.062221733413   109.88347573    60.96131593
 C     12   9   6     2.877582735230   109.00605798    74.26928166
 H     15  12   9     3.607159707932   141.56460664   273.57008602
 N     12   9   6     2.742868495737   108.90033010   196.59471962
 O     16  15  12     1.835631317647    40.98581694   358.64270172
 H      1   2   3     2.066706090803   109.47821479    97.04611248
 H      1   2   3     2.066399069517   109.43067083   215.11908546
 H     17  12   9     1.917629519290   110.47279171   177.26069066
 O     15  12   9     2.274174797123   124.20137759    93.01944822
 H     12   9   6     2.068410549724   109.33140920   315.47921611
 H     17  12   9     1.919989557001   109.13187416   294.69394571

---------------------
BASIS SET INFORMATION
---------------------
There are 4 groups of distinct atoms

 Group   1 Type C   : 10s4p1d contracted to 3s2p1d pattern {631/31/1}
 Group   2 Type H   : 4s1p contracted to 2s1p pattern {31/1}
 Group   3 Type N   : 10s4p1d contracted to 3s2p1d pattern {631/31/1}
 Group   4 Type O   : 10s4p1d contracted to 3s2p1d pattern {631/31/1}

Atom   0C    basis set group =>   1
Atom   1C    basis set group =>   1
Atom   2H    basis set group =>   2
Atom   3H    basis set group =>   2
Atom   4N    basis set group =>   3
Atom   5C    basis set group =>   1
Atom   6H    basis set group =>   2
Atom   7H    basis set group =>   2
Atom   8C    basis set group =>   1
Atom   9H    basis set group =>   2
Atom  10H    basis set group =>   2
Atom  11C    basis set group =>   1
Atom  12H    basis set group =>   2
Atom  13H    basis set group =>   2
Atom  14C    basis set group =>   1
Atom  15H    basis set group =>   2
Atom  16N    basis set group =>   3
Atom  17O    basis set group =>   4
Atom  18H    basis set group =>   2
Atom  19H    basis set group =>   2
Atom  20H    basis set group =>   2
Atom  21O    basis set group =>   4
Atom  22H    basis set group =>   2
Atom  23H    basis set group =>   2
---------------------------------
AUXILIARY/J BASIS SET INFORMATION
---------------------------------
There are 4 groups of distinct atoms

 Group   1 Type C   : 12s5p4d2f1g contracted to 6s4p3d1f1g pattern {711111/2111/211/2/1}
 Group   2 Type H   : 5s2p1d contracted to 3s1p1d pattern {311/2/1}
 Group   3 Type N   : 12s5p4d2f1g contracted to 6s4p3d1f1g pattern {711111/2111/211/2/1}
 Group   4 Type O   : 12s5p4d2f1g contracted to 6s4p3d1f1g pattern {711111/2111/211/2/1}

Atom   0C    basis set group =>   1
Atom   1C    basis set group =>   1
Atom   2H    basis set group =>   2
Atom   3H    basis set group =>   2
Atom   4N    basis set group =>   3
Atom   5C    basis set group =>   1
Atom   6H    basis set group =>   2
Atom   7H    basis set group =>   2
Atom   8C    basis set group =>   1
Atom   9H    basis set group =>   2
Atom  10H    basis set group =>   2
Atom  11C    basis set group =>   1
Atom  12H    basis set group =>   2
Atom  13H    basis set group =>   2
Atom  14C    basis set group =>   1
Atom  15H    basis set group =>   2
Atom  16N    basis set group =>   3
Atom  17O    basis set group =>   4
Atom  18H    basis set group =>   2
Atom  19H    basis set group =>   2
Atom  20H    basis set group =>   2
Atom  21O    basis set group =>   4
Atom  22H    basis set group =>   2
Atom  23H    basis set group =>   2
------------------------------------------------------------------------------
                             ORCA STARTUP CALCULATIONS
                           -- RI-GTO INTEGRALS CHOSEN --
------------------------------------------------------------------------------
------------------------------------------------------------------------------
                   ___                                                        
                  /   \      - P O W E R E D   B Y -                         
                 /     \                                                     
                 |  |  |   _    _      __       _____    __    __             
                 |  |  |  | |  | |    /  \     |  _  \  |  |  /  |          
                  \  \/   | |  | |   /    \    | | | |  |  | /  /          
                 / \  \   | |__| |  /  /\  \   | |_| |  |  |/  /          
                |  |  |   |  __  | /  /__\  \  |    /   |      \           
                |  |  |   | |  | | |   __   |  |    \   |  |\   \          
                \     /   | |  | | |  |  |  |  | |\  \  |  | \   \       
                 \___/    |_|  |_| |__|  |__|  |_| \__\ |__|  \__/        
                                                                              
                      - O R C A' S   B I G   F R I E N D -                    
                                      &                                       
                       - I N T E G R A L  F E E D E R -                       
                                                                              
 v1 FN, 2020, v2 2021, v3 2022-2024                                           
------------------------------------------------------------------------------


----------------------
SHARK INTEGRAL PACKAGE
----------------------

Number of atoms                             ...     24
Number of basis functions                   ...    210
Number of shells                            ...    102
Maximum angular momentum                    ...      2
Integral batch strategy                     ... SHARK/LIBINT Hybrid
RI-J (if used) integral strategy            ... SPLIT-RIJ (Revised 2003 algorithm where possible)
Printlevel                                  ...      1
Contraction scheme used                     ... SEGMENTED contraction
Prescreening option                         ... SCHWARTZ
   Thresh                                   ... 2.500e-11
   Tcut                                     ... 2.500e-12
   Tpresel                                  ... 2.500e-12 
Coulomb Range Separation                    ... NOT USED
Exchange Range Separation                   ... NOT USED
Multipole approximations                    ... NOT USED
Finite Nucleus Model                        ... NOT USED
CABS basis                                  ... NOT available
Auxiliary Coulomb fitting basis             ... AVAILABLE
   # of basis functions in Aux-J            ...    644
   # of shells in Aux-J                     ...    220
   Maximum angular momentum in Aux-J        ...      4
Auxiliary J/K fitting basis                 ... NOT available
Auxiliary Correlation fitting basis         ... NOT available
Auxiliary 'external' fitting basis          ... NOT available

Checking pre-screening integrals            ... done (  0.0 sec) Dimension = 102
   => SHARK Basis and OBASIS are compatible. Storing Pre-screening
Shell pair information
Shell pair cut-off parameter TPreSel        ...   2.5e-12
Total number of shell pairs                 ...      5253
Shell pairs after pre-screening             ...      4301
Total number of primitive shell pairs       ...     24562
Primitive shell pairs kept                  ...     13154
          la=0 lb=0:   1429 shell pairs
          la=1 lb=0:   1618 shell pairs
          la=1 lb=1:    481 shell pairs
          la=2 lb=0:    464 shell pairs
          la=2 lb=1:    267 shell pairs
          la=2 lb=2:     42 shell pairs

Checking whether 4 symmetric matrices of dimension 210 fit in memory
:Max Core in MB      =   4096.00
 MB in use           =      9.14
 MB left             =   4086.86
 MB needed           =      0.68
 Data fit in memory  = YES
Calculating RI/J V-Matrix + Cholesky decomp.... done (  0.0 sec)
Calculating Nuclear repulsion               ... done (  0.0 sec) ENN=    550.812511994560 Eh

Diagonalization of the overlap matrix:
Smallest eigenvalue                        ... 2.817e-03
Time for diagonalization                   ...    0.002 sec
Threshold for overlap eigenvalues          ... 1.000e-07
Number of eigenvalues below threshold      ... 0
Time for construction of square roots      ...    0.001 sec
Total time needed                          ...    0.003 sec

-------------------
DFT GRID GENERATION
-------------------

General Integration Accuracy     IntAcc      ... 4.388
Radial Grid Type                 RadialGrid  ... OptM3 with GC (2021)
Angular Grid (max. ang.)         AngularGrid ... 4 (Lebedev-302)
Angular grid pruning method      GridPruning ... 4 (adaptive)
Weight generation scheme         WeightScheme... mBecke (2022)
Basis function cutoff            BFCut       ... 1.0000e-11
Integration weight cutoff        WCut        ... 1.0000e-14
Partially contracted basis set               ... off
Rotationally invariant grid construction     ... off
Angular grids for H and He will be reduced by one unit

Total number of grid points                  ...   105014
Total number of batches                      ...     1653
Average number of points per batch           ...       63
Average number of grid points per atom       ...     4376
Grids setup in   0.4 sec
Initializing property integral containers    ... done (  0.0 sec)

SHARK setup successfully completed in   0.5 seconds

Maximum memory used throughout the entire STARTUP-calculation: 44.0 MB
-------------------------------------------------------------------------------
                                 ORCA GUESS
                   Start orbitals & Density for SCF / CASSCF
-------------------------------------------------------------------------------

------------
SCF SETTINGS
------------
Hamiltonian:
 Density Functional     Method          .... DFT(GTOs)
 Exchange Functional    Exchange        .... B97(D)
 Correlation Functional Correlation     .... B97(D)
 Gradients option       PostSCFGGA      .... off
 RI-approximation to the Coulomb term is turned on
   Number of AuxJ basis functions       .... 644


General Settings:
 Integral files         IntName         .... 4
 Hartree-Fock type      HFTyp           .... RHF
 Total Charge           Charge          ....    0
 Multiplicity           Mult            ....    1
 Number of Electrons    NEL             ....   80
 Basis Dimension        Dim             ....  210
 Nuclear Repulsion      ENuc            ....    550.8125119946 Eh

Convergence Acceleration:
 AO-DIIS                CNVDIIS         .... on
   Start iteration      DIISMaxIt       ....    12
   Startup error        DIISStart       ....  0.200000
   # of expansion vecs  DIISMaxEq       ....     5
   Bias factor          DIISBfac        ....   1.050
   Max. coefficient     DIISMaxC        ....  10.000
 MO-DIIS                CNVKDIIS        .... off
 Trust-Rad. Augm. Hess. CNVTRAH         .... auto
   Auto Start mean grad. ratio tolernc. ....  1.125000
   Auto Start start iteration           ....    50
   Auto Start num. interpolation iter.  ....    10
   Max. Number of Micro iterations      ....    24
   Max. Number of Macro iterations      .... Maxiter - #DIIS iter
   Number of Davidson start vectors     ....     2
   Converg. threshold    (grad. norm)   ....   1.000e-05
   Grad. Scal. Fac. for Micro threshold ....   0.100
   Minimum threshold for Micro iter.    ....   1.000e-02
   NR start threshold (gradient norm)   ....   1.000e-04
   Initial trust radius                 ....   0.400
   Minimum AH scaling param. (alpha)    ....   1.000
   Maximum AH scaling param. (alpha)    .... 1000.000
   Quad. conv. algorithm                .... NR
   White noise on init. David. guess    .... on
   Maximum white noise                  ....   0.010
   Pseudo random numbers                .... off
   Inactive MOs                         .... canonical
   Orbital update algorithm             .... Taylor
   Preconditioner                       .... Diag
   Full preconditioner red. dimension   ....   250
 SOSCF                 CNVSOSCF           .... on
   Start iteration     SOSCFMaxIt         ....   150
   Startup grad/error  SOSCFStart         ....  0.003300
   Hessian update      SOSCFHessUp        .... L-BFGS
   Autom. constraints  SOSCFAutoConstrain .... off
 Level Shifting         CNVShift        .... on
   Level shift para.    LevelShift      ....    0.2500
   Turn off err/grad.   ShiftErr        ....    0.0010
 Zerner damping         CNVZerner       .... off
 Static damping         CNVDamp         .... on
   Fraction old density DampFac         ....    0.7000
   Max. Damping (<1)    DampMax         ....    0.9800
   Min. Damping (>=0)   DampMin         ....    0.0000
   Turn off err/grad.   DampErr         ....    0.1000

SCF Procedure:
 Maximum # iterations   MaxIter         ....   125
 SCF integral mode      SCFMode         .... Direct
   Integral package                     .... SHARK and LIBINT hybrid scheme
 Reset frequency        DirectResetFreq ....    20
 Integral Threshold     Thresh          ....  2.500e-11 Eh
 Primitive CutOff       TCut            ....  2.500e-12 Eh

Convergence Tolerance:
 Convergence Check Mode ConvCheckMode   .... Total+1el-Energy
 Convergence forced     ConvForced      .... 0
 Energy Change          TolE            ....  1.000e-08 Eh
 1-El. energy change                    ....  1.000e-05 Eh
 Orbital Gradient       TolG            ....  1.000e-05
 Orbital Rotation angle TolX            ....  1.000e-05
 DIIS Error             TolErr          ....  5.000e-07

------------------------------
INITIAL GUESS: MODEL POTENTIAL
------------------------------
Loading Hartree-Fock densities                     ... done
Calculating cut-offs                               ... done
Initializing the effective Hamiltonian             ... done
Setting up the integral package (SHARK)            ... done
Starting the Coulomb interaction                   ... done (   0.1 sec)
Making the grid                                    ... done (   0.1 sec)
Mapping shells                                     ... done
Starting the XC term evaluation                    ... done (   0.1 sec)
  promolecular density results
     # of electrons  =     79.993359027
     EX              =    -63.609963203
     EC              =     -3.477597757
     EX+EC           =    -67.087560960
Transforming the Hamiltonian                       ... done (   0.0 sec)
Diagonalizing the Hamiltonian                      ... done (   0.0 sec)
Back transforming the eigenvectors                 ... done (   0.0 sec)
Now organizing SCF variables                       ... done
                      ------------------
                      INITIAL GUESS DONE (   0.3 sec)
                      ------------------
             **** ENERGY FILE WAS UPDATED (4.en.tmp) ****
Finished Guess after   0.4 sec
Maximum memory used throughout the entire GUESS-calculation: 14.5 MB

-------------------------------------------------------------------------------------------
                                      ORCA LEAN-SCF
                              memory conserving SCF solver
-------------------------------------------------------------------------------------------

----------------------------------------D-I-I-S--------------------------------------------
Iteration    Energy (Eh)           Delta-E    RMSDP     MaxDP     DIISErr   Damp  Time(sec)
-------------------------------------------------------------------------------------------
               ***  Starting incremental Fock matrix formation  ***
    1    -496.2802471570636271     0.00e+00  3.45e-03  9.53e-02  2.57e-01  0.700   0.6
    2    -496.4805474254739011    -2.00e-01  2.28e-03  4.99e-02  1.02e-01  0.700   0.6
                               ***Turning on AO-DIIS***
    3    -496.5438944974117703    -6.33e-02  8.90e-04  1.77e-02  2.76e-02  0.700   0.6
    4    -496.5843058009469360    -4.04e-02  1.20e-03  2.11e-02  1.28e-02  0.000   0.6
    5    -496.6774192402791641    -9.31e-02  3.93e-04  8.81e-03  9.59e-03  0.000   0.6
                              *** Initializing SOSCF ***
---------------------------------------S-O-S-C-F--------------------------------------
Iteration    Energy (Eh)           Delta-E    RMSDP     MaxDP     MaxGrad    Time(sec)
--------------------------------------------------------------------------------------
    6    -496.6783794927001736    -9.60e-04  1.45e-04  2.76e-03  3.20e-03     0.6
               *** Restarting incremental Fock matrix formation ***
    7    -496.6784544476064411    -7.50e-05  1.26e-04  3.45e-03  8.95e-04     0.6
    8    -496.6784212271012393     3.32e-05  6.54e-05  2.67e-03  2.62e-03     0.5
    9    -496.6784655528523444    -4.43e-05  4.56e-05  9.97e-04  2.82e-04     0.5
   10    -496.6784627226523980     2.83e-06  2.63e-05  5.40e-04  2.37e-04     0.5
   11    -496.6784675351124179    -4.81e-06  6.86e-06  2.07e-04  2.98e-05     0.5
   12    -496.6784674550286809     8.01e-08  3.89e-06  1.34e-04  4.91e-05     0.5
   13    -496.6784675931045285    -1.38e-07  9.11e-07  2.65e-05  4.39e-06     0.5
   14    -496.6784675904197002     2.68e-09  5.13e-07  1.47e-05  6.10e-06     0.5
                 **** Energy Check signals convergence ****

               *****************************************************
               *                     SUCCESS                       *
               *           SCF CONVERGED AFTER  14 CYCLES          *
               *****************************************************

             **** ENERGY FILE WAS UPDATED (4.en.tmp) ****

----------------
TOTAL SCF ENERGY
----------------

Total Energy       :       -496.67846759115184 Eh          -13515.30821 eV

Components:
Nuclear Repulsion  :        550.81251199456017 Eh           14988.37045 eV
Electronic Energy  :      -1047.49097958571201 Eh          -28503.67865 eV
One Electron Energy:      -1768.14225287258796 Eh          -48113.59675 eV
Two Electron Energy:        720.65127328687595 Eh           19609.91810 eV

Virial components:
Potential Energy   :       -990.78598061551475 Eh          -26960.65719 eV
Kinetic Energy     :        494.10751302436296 Eh           13445.34898 eV
Virial Ratio       :          2.00520322905242

DFT components:
N(Alpha)           :       39.999917050000 electrons
N(Beta)            :       39.999917050000 electrons
N(Total)           :       79.999834100000 electrons
E(X)               :      -65.197401204705 Eh       
E(C)               :       -3.468835320845 Eh       
E(XC)              :      -68.666236525550 Eh       

---------------
SCF CONVERGENCE
---------------

  Last Energy change         ...   -2.6848e-09  Tolerance :   1.0000e-08
  Last MAX-Density change    ...    1.4718e-05  Tolerance :   1.0000e-07
  Last RMS-Density change    ...    5.1294e-07  Tolerance :   5.0000e-09
  Last DIIS Error            ...    3.2001e-03  Tolerance :   5.0000e-07
  Last Orbital Gradient      ...    6.0994e-06  Tolerance :   1.0000e-05
  Last Orbital Rotation      ...    6.0096e-06  Tolerance :   1.0000e-05


----------------
ORBITAL ENERGIES
----------------

  NO   OCC          E(Eh)            E(eV) 
   0   2.0000     -18.816312      -512.0179 
   1   2.0000     -18.753713      -510.3145 
   2   2.0000     -13.986160      -380.5828 
   3   2.0000     -13.977335      -380.3426 
   4   2.0000     -10.027499      -272.8621 
   5   2.0000      -9.945878      -270.6411 
   6   2.0000      -9.922004      -269.9915 
   7   2.0000      -9.907575      -269.5988 
   8   2.0000      -9.901167      -269.4245 
   9   2.0000      -9.898031      -269.3391 
  10   2.0000      -1.022204       -27.8156 
  11   2.0000      -0.932454       -25.3734 
  12   2.0000      -0.814787       -22.1715 
  13   2.0000      -0.800055       -21.7706 
  14   2.0000      -0.722512       -19.6606 
  15   2.0000      -0.666227       -18.1289 
  16   2.0000      -0.615705       -16.7542 
  17   2.0000      -0.567666       -15.4470 
  18   2.0000      -0.529669       -14.4130 
  19   2.0000      -0.520077       -14.1520 
  20   2.0000      -0.463314       -12.6074 
  21   2.0000      -0.446227       -12.1424 
  22   2.0000      -0.431114       -11.7312 
  23   2.0000      -0.421334       -11.4651 
  24   2.0000      -0.407420       -11.0865 
  25   2.0000      -0.398002       -10.8302 
  26   2.0000      -0.382956       -10.4208 
  27   2.0000      -0.373695       -10.1688 
  28   2.0000      -0.354157        -9.6371 
  29   2.0000      -0.351241        -9.5577 
  30   2.0000      -0.331524        -9.0212 
  31   2.0000      -0.315117        -8.5748 
  32   2.0000      -0.301399        -8.2015 
  33   2.0000      -0.297792        -8.1033 
  34   2.0000      -0.291722        -7.9381 
  35   2.0000      -0.286319        -7.7911 
  36   2.0000      -0.270783        -7.3684 
  37   2.0000      -0.225949        -6.1484 
  38   2.0000      -0.195356        -5.3159 
  39   2.0000      -0.178031        -4.8445 
  40   0.0000      -0.017784        -0.4839 
  41   0.0000       0.050394         1.3713 
  42   0.0000       0.064666         1.7596 
  43   0.0000       0.074273         2.0211 
  44   0.0000       0.087836         2.3901 
  45   0.0000       0.091677         2.4946 
  46   0.0000       0.106971         2.9108 
  47   0.0000       0.120964         3.2916 
  48   0.0000       0.137881         3.7519 
  49   0.0000       0.143782         3.9125 
  50   0.0000       0.160438         4.3657 
*Only the first 10 virtual orbitals were printed.

                    ********************************
                    * MULLIKEN POPULATION ANALYSIS *
                    ********************************

-----------------------
MULLIKEN ATOMIC CHARGES
-----------------------
   0 C :   -0.082962
   1 C :   -0.195004
   2 H :    0.231293
   3 H :    0.231669
   4 N :   -0.573377
   5 C :   -0.193059
   6 H :    0.089424
   7 H :    0.090192
   8 C :   -0.191580
   9 H :    0.099917
  10 H :    0.110433
  11 C :   -0.042826
  12 H :    0.104603
  13 H :    0.123934
  14 C :    0.491558
  15 H :    0.315705
  16 N :   -0.555941
  17 O :   -0.449918
  18 H :    0.104306
  19 H :    0.105136
  20 H :    0.239760
  21 O :   -0.420899
  22 H :    0.120793
  23 H :    0.246842
Sum of atomic charges:   -0.0000000

--------------------------------
MULLIKEN REDUCED ORBITAL CHARGES
--------------------------------
  0 C s       :     3.196391  s :     3.196391
      pz      :     0.946927  p :     2.834081
      px      :     0.877245
      py      :     1.009909
      dz2     :     0.010467  d :     0.052489
      dxz     :     0.012486
      dyz     :     0.007178
      dx2y2   :     0.008742
      dxy     :     0.013615

  1 C s       :     3.228116  s :     3.228116
      pz      :     0.984137  p :     2.930557
      px      :     0.952569
      py      :     0.993851
      dz2     :     0.007002  d :     0.036332
      dxz     :     0.008353
      dyz     :     0.006326
      dx2y2   :     0.005933
      dxy     :     0.008718

  2 H s       :     0.744744  s :     0.744744
      pz      :     0.009965  p :     0.023962
      px      :     0.006042
      py      :     0.007956

  3 H s       :     0.744368  s :     0.744368
      pz      :     0.005690  p :     0.023963
      px      :     0.008249
      py      :     0.010023

  4 N s       :     3.588172  s :     3.588172
      pz      :     1.236497  p :     3.956437
      px      :     1.352671
      py      :     1.367268
      dz2     :     0.007046  d :     0.028768
      dxz     :     0.005791
      dyz     :     0.005058
      dx2y2   :     0.005195
      dxy     :     0.005677

  5 C s       :     3.226165  s :     3.226165
      pz      :     0.977819  p :     2.929872
      px      :     0.946106
      py      :     1.005948
      dz2     :     0.007283  d :     0.037022
      dxz     :     0.008366
      dyz     :     0.006435
      dx2y2   :     0.006026
      dxy     :     0.008911

  6 H s       :     0.899110  s :     0.899110
      pz      :     0.005375  p :     0.011467
      px      :     0.002925
      py      :     0.003167

  7 H s       :     0.898347  s :     0.898347
      pz      :     0.002763  p :     0.011460
      px      :     0.003279
      py      :     0.005417

  8 C s       :     3.237648  s :     3.237648
      pz      :     0.970014  p :     2.917709
      px      :     0.925138
      py      :     1.022558
      dz2     :     0.007403  d :     0.036223
      dxz     :     0.008440
      dyz     :     0.005713
      dx2y2   :     0.006594
      dxy     :     0.008072

  9 H s       :     0.888525  s :     0.888525
      pz      :     0.005420  p :     0.011559
      px      :     0.002997
      py      :     0.003142

 10 H s       :     0.877663  s :     0.877663
      pz      :     0.002866  p :     0.011904
      px      :     0.003602
      py      :     0.005436

 11 C s       :     3.199303  s :     3.199303
      pz      :     1.025710  p :     2.786263
      px      :     0.930660
      py      :     0.829893
      dz2     :     0.012252  d :     0.057260
      dxz     :     0.008401
      dyz     :     0.007499
      dx2y2   :     0.013200
      dxy     :     0.015909

 12 H s       :     0.883802  s :     0.883802
      pz      :     0.005540  p :     0.011595
      px      :     0.002883
      py      :     0.003172

 13 H s       :     0.864465  s :     0.864465
      pz      :     0.002653  p :     0.011601
      px      :     0.003035
      py      :     0.005913

 14 C s       :     2.988033  s :     2.988033
      pz      :     0.735003  p :     2.395732
      px      :     0.831574
      py      :     0.829155
      dz2     :     0.029183  d :     0.124677
      dxz     :     0.020960
      dyz     :     0.027025
      dx2y2   :     0.018750
      dxy     :     0.028759

 15 H s       :     0.646431  s :     0.646431
      pz      :     0.008005  p :     0.037864
      px      :     0.013485
      py      :     0.016374

 16 N s       :     3.592993  s :     3.592993
      pz      :     1.144999  p :     3.934306
      px      :     1.345286
      py      :     1.444021
      dz2     :     0.003806  d :     0.028642
      dxz     :     0.009357
      dyz     :     0.004437
      dx2y2   :     0.007114
      dxy     :     0.003928

 17 O s       :     3.824826  s :     3.824826
      pz      :     1.621399  p :     4.602300
      px      :     1.647335
      py      :     1.333566
      dz2     :     0.006375  d :     0.022792
      dxz     :     0.003937
      dyz     :     0.003957
      dx2y2   :     0.001677
      dxy     :     0.006846

 18 H s       :     0.884916  s :     0.884916
      pz      :     0.002514  p :     0.010779
      px      :     0.002849
      py      :     0.005415

 19 H s       :     0.884075  s :     0.884075
      pz      :     0.005274  p :     0.010789
      px      :     0.002431
      py      :     0.003083

 20 H s       :     0.736349  s :     0.736349
      pz      :     0.007061  p :     0.023891
      px      :     0.009503
      py      :     0.007327

 21 O s       :     3.857157  s :     3.857157
      pz      :     1.460411  p :     4.535695
      px      :     1.391498
      py      :     1.683787
      dz2     :     0.006929  d :     0.028046
      dxz     :     0.007328
      dyz     :     0.003430
      dx2y2   :     0.005606
      dxy     :     0.004754

 22 H s       :     0.868264  s :     0.868264
      pz      :     0.006163  p :     0.010943
      px      :     0.002716
      py      :     0.002064

 23 H s       :     0.729229  s :     0.729229
      pz      :     0.010708  p :     0.023929
      px      :     0.006792
      py      :     0.006428



                     *******************************
                     * LOEWDIN POPULATION ANALYSIS *
                     *******************************

----------------------
LOEWDIN ATOMIC CHARGES
----------------------
   0 C :   -0.074251
   1 C :   -0.143849
   2 H :    0.119219
   3 H :    0.119404
   4 N :   -0.268374
   5 C :   -0.128177
   6 H :    0.060373
   7 H :    0.060410
   8 C :   -0.114339
   9 H :    0.066177
  10 H :    0.068055
  11 C :   -0.049810
  12 H :    0.068521
  13 H :    0.078333
  14 C :    0.102008
  15 H :    0.180671
  16 N :   -0.244953
  17 O :   -0.137319
  18 H :    0.064943
  19 H :    0.065410
  20 H :    0.125154
  21 O :   -0.225108
  22 H :    0.079359
  23 H :    0.128142

-------------------------------
LOEWDIN REDUCED ORBITAL CHARGES
-------------------------------
  0 C s       :     2.890954  s :     2.890954
      pz      :     1.023166  p :     3.067858
      px      :     0.980697
      py      :     1.063995
      dz2     :     0.021952  d :     0.115439
      dxz     :     0.029261
      dyz     :     0.015188
      dx2y2   :     0.017868
      dxy     :     0.031170

  1 C s       :     2.912408  s :     2.912408
      pz      :     1.056212  p :     3.149638
      px      :     1.032446
      py      :     1.060980
      dz2     :     0.014382  d :     0.081804
      dxz     :     0.020504
      dyz     :     0.013644
      dx2y2   :     0.012852
      dxy     :     0.020421

  2 H s       :     0.802179  s :     0.802179
      pz      :     0.036693  p :     0.078602
      px      :     0.018641
      py      :     0.023267

  3 H s       :     0.801975  s :     0.801975
      pz      :     0.015673  p :     0.078620
      px      :     0.025532
      py      :     0.037416

  4 N s       :     3.197476  s :     3.197476
      pz      :     1.274435  p :     4.012644
      px      :     1.366509
      py      :     1.371700
      dz2     :     0.013315  d :     0.058254
      dxz     :     0.012943
      dyz     :     0.010232
      dx2y2   :     0.009601
      dxy     :     0.012163

  5 C s       :     2.895800  s :     2.895800
      pz      :     1.056629  p :     3.149585
      px      :     1.028321
      py      :     1.064635
      dz2     :     0.014803  d :     0.082791
      dxz     :     0.020482
      dyz     :     0.013728
      dx2y2   :     0.013221
      dxy     :     0.020557

  6 H s       :     0.900738  s :     0.900738
      pz      :     0.020114  p :     0.038890
      px      :     0.008975
      py      :     0.009800

  7 H s       :     0.900639  s :     0.900639
      pz      :     0.008084  p :     0.038951
      px      :     0.010436
      py      :     0.020430

  8 C s       :     2.904577  s :     2.904577
      pz      :     1.047565  p :     3.128569
      px      :     1.009465
      py      :     1.071540
      dz2     :     0.015035  d :     0.081192
      dxz     :     0.020762
      dyz     :     0.012413
      dx2y2   :     0.014112
      dxy     :     0.018871

  9 H s       :     0.894736  s :     0.894736
      pz      :     0.020196  p :     0.039087
      px      :     0.009084
      py      :     0.009808

 10 H s       :     0.891449  s :     0.891449
      pz      :     0.008201  p :     0.040496
      px      :     0.011250
      py      :     0.021044

 11 C s       :     2.882402  s :     2.882402
      pz      :     1.061623  p :     3.037530
      px      :     1.011129
      py      :     0.964777
      dz2     :     0.026642  d :     0.129878
      dxz     :     0.019430
      dyz     :     0.015508
      dx2y2   :     0.029367
      dxy     :     0.038931

 12 H s       :     0.891887  s :     0.891887
      pz      :     0.021139  p :     0.039592
      px      :     0.008603
      py      :     0.009850

 13 H s       :     0.881496  s :     0.881496
      pz      :     0.007716  p :     0.040171
      px      :     0.010302
      py      :     0.022153

 14 C s       :     2.858482  s :     2.858482
      pz      :     0.871609  p :     2.742138
      px      :     0.948915
      py      :     0.921614
      dz2     :     0.066400  d :     0.297371
      dxz     :     0.053114
      dyz     :     0.065806
      dx2y2   :     0.042726
      dxy     :     0.069325

 15 H s       :     0.703808  s :     0.703808
      pz      :     0.022743  p :     0.115521
      px      :     0.042218
      py      :     0.050560

 16 N s       :     3.199130  s :     3.199130
      pz      :     1.170091  p :     3.987841
      px      :     1.364507
      py      :     1.453243
      dz2     :     0.010021  d :     0.057983
      dxz     :     0.017618
      dyz     :     0.009620
      dx2y2   :     0.011922
      dxy     :     0.008801

 17 O s       :     3.472383  s :     3.472383
      pz      :     1.622833  p :     4.613692
      px      :     1.637629
      py      :     1.353231
      dz2     :     0.011541  d :     0.051244
      dxz     :     0.006606
      dyz     :     0.012861
      dx2y2   :     0.005588
      dxy     :     0.014647

 18 H s       :     0.897355  s :     0.897355
      pz      :     0.007727  p :     0.037702
      px      :     0.009105
      py      :     0.020870

 19 H s       :     0.896862  s :     0.896862
      pz      :     0.020268  p :     0.037727
      px      :     0.007939
      py      :     0.009521

 20 H s       :     0.796108  s :     0.796108
      pz      :     0.022605  p :     0.078738
      px      :     0.034460
      py      :     0.021673

 21 O s       :     3.554445  s :     3.554445
      pz      :     1.490600  p :     4.612662
      px      :     1.450881
      py      :     1.671180
      dz2     :     0.010650  d :     0.058001
      dxz     :     0.020232
      dyz     :     0.006292
      dx2y2   :     0.011511
      dxy     :     0.009315

 22 H s       :     0.881084  s :     0.881084
      pz      :     0.023627  p :     0.039557
      px      :     0.009468
      py      :     0.006462

 23 H s       :     0.792401  s :     0.792401
      pz      :     0.039409  p :     0.079457
      px      :     0.020414
      py      :     0.019634



                      *****************************
                      * MAYER POPULATION ANALYSIS *
                      *****************************

  NA   - Mulliken gross atomic population
  ZA   - Total nuclear charge
  QA   - Mulliken gross atomic charge
  VA   - Mayer's total valence
  BVA  - Mayer's bonded valence
  FA   - Mayer's free valence

  ATOM       NA         ZA         QA         VA         BVA        FA
  0 C      6.0830     6.0000    -0.0830     3.9091     3.9091    -0.0000
  1 C      6.1950     6.0000    -0.1950     3.8718     3.8718     0.0000
  2 H      0.7687     1.0000     0.2313     0.9237     0.9237    -0.0000
  3 H      0.7683     1.0000     0.2317     0.9235     0.9235    -0.0000
  4 N      7.5734     7.0000    -0.5734     2.8886     2.8886    -0.0000
  5 C      6.1931     6.0000    -0.1931     3.8821     3.8821    -0.0000
  6 H      0.9106     1.0000     0.0894     0.9582     0.9582     0.0000
  7 H      0.9098     1.0000     0.0902     0.9580     0.9580    -0.0000
  8 C      6.1916     6.0000    -0.1916     3.8656     3.8656    -0.0000
  9 H      0.9001     1.0000     0.0999     0.9546     0.9546    -0.0000
 10 H      0.8896     1.0000     0.1104     0.9631     0.9631    -0.0000
 11 C      6.0428     6.0000    -0.0428     3.8633     3.8633     0.0000
 12 H      0.8954     1.0000     0.1046     0.9577     0.9577     0.0000
 13 H      0.8761     1.0000     0.1239     0.9589     0.9589    -0.0000
 14 C      5.5084     6.0000     0.4916     3.9471     3.9471     0.0000
 15 H      0.6843     1.0000     0.3157     0.9196     0.9196    -0.0000
 16 N      7.5559     7.0000    -0.5559     2.9081     2.9081    -0.0000
 17 O      8.4499     8.0000    -0.4499     2.0430     2.0430     0.0000
 18 H      0.8957     1.0000     0.1043     0.9512     0.9512     0.0000
 19 H      0.8949     1.0000     0.1051     0.9511     0.9511     0.0000
 20 H      0.7602     1.0000     0.2398     0.9212     0.9212     0.0000
 21 O      8.4209     8.0000    -0.4209     2.1121     2.1121    -0.0000
 22 H      0.8792     1.0000     0.1208     0.9527     0.9527     0.0000
 23 H      0.7532     1.0000     0.2468     0.9304     0.9304     0.0000

  Mayer bond orders larger than 0.100000
B(  0-C ,  1-C ) :   0.9824 B(  0-C ,  4-N ) :   1.0285 B(  0-C , 18-H ) :   0.9505 
B(  0-C , 19-H ) :   0.9506 B(  1-C ,  5-C ) :   0.9896 B(  1-C ,  6-H ) :   0.9488 
B(  1-C ,  7-H ) :   0.9487 B(  2-H ,  4-N ) :   0.9152 B(  3-H ,  4-N ) :   0.9150 
B(  5-C ,  8-C ) :   0.9973 B(  5-C ,  9-H ) :   0.9483 B(  5-C , 10-H ) :   0.9403 
B(  8-C , 11-C ) :   0.9713 B(  8-C , 12-H ) :   0.9423 B(  8-C , 13-H ) :   0.9374 
B( 11-C , 14-C ) :   0.8939 B( 11-C , 16-N ) :   1.0533 B( 11-C , 22-H ) :   0.9262 
B( 14-C , 17-O ) :   1.0803 B( 14-C , 21-O ) :   1.9227 B( 15-H , 17-O ) :   0.8512 
B( 16-N , 20-H ) :   0.9094 B( 16-N , 23-H ) :   0.8977 

-------
TIMINGS
-------

Total SCF time: 0 days 0 hours 0 min 8 sec 

Total time                  ....       8.189 sec
Sum of individual times     ....       7.667 sec  ( 93.6%)

SCF preparation             ....       0.030 sec  (  0.4%)
Fock matrix formation       ....       7.540 sec  ( 92.1%)
  Startup                   ....       0.001 sec  (  0.0% of F)
  Split-RI-J                ....       2.770 sec  ( 36.7% of F)
  XC integration            ....       5.207 sec  ( 69.1% of F)
    Basis function eval.    ....       1.866 sec  ( 35.8% of XC)
    Density eval.           ....       1.140 sec  ( 21.9% of XC)
    XC-Functional eval.     ....       0.962 sec  ( 18.5% of XC)
    XC-Potential eval.      ....       1.097 sec  ( 21.1% of XC)
Diagonalization             ....       0.000 sec  (  0.0%)
Density matrix formation    ....       0.007 sec  (  0.1%)
Total Energy calculation    ....       0.001 sec  (  0.0%)
Population analysis         ....       0.015 sec  (  0.2%)
Orbital Transformation      ....       0.014 sec  (  0.2%)
Orbital Orthonormalization  ....       0.000 sec  (  0.0%)
DIIS solution               ....       0.034 sec  (  0.4%)
SOSCF solution              ....       0.026 sec  (  0.3%)
Finished LeanSCF after   8.2 sec

Maximum memory used throughout the entire LEANSCF-calculation: 22.9 MB



-------------------------------------------------------------------------------
                          DFT DISPERSION CORRECTION                            
-------------------------------------------------------------------------------
Active option DFTDOPT                   ...         2   
Final C6-coefficient scaling factor     ...     1.250
Final VDW-radii scaling factor          ...     1.100
Damping factor alpha                    ...    20.000
-------------------------   ----------------
Dispersion correction           -0.033650642
-------------------------   ----------------


-------------------------   --------------------
FINAL SINGLE POINT ENERGY      -496.712118232770
-------------------------   --------------------

------------------------------------------------------------------------------
                         ORCA SCF GRADIENT CALCULATION
------------------------------------------------------------------------------

Nuc. rep. gradient        (SHARK) ... done (  0.0 sec)
HCore & Overlap gradient  (SHARK) ... done (  0.2 sec)
Split-RIJ-J gradient      (SHARK) ... done (  0.7 sec)
XC gradient                       ... done (  3.0 sec)
Dispersion correction             ... done (  0.0 sec)

-------------------
DISPERSION GRADIENT
-------------------

   1   C   :   -0.000445656   -0.000284448    0.001116075
   2   C   :   -0.000265373    0.000813383   -0.001405827
   3   H   :   -0.000893511    0.000157105    0.000333656
   4   H   :   -0.000724602    0.000432731    0.000470461
   5   N   :    0.000040597    0.000268368   -0.000606379
   6   C   :   -0.000445239   -0.000860328    0.001543763
   7   H   :   -0.000359983   -0.000463145    0.000084226
   8   H   :    0.000139610    0.000329190    0.000467584
   9   C   :   -0.000019788   -0.000019569   -0.001122759
  10   H   :    0.000083986    0.000458702   -0.000067107
  11   H   :   -0.000607480   -0.000268961   -0.000354554
  12   C   :    0.000549798   -0.000271648    0.000904675
  13   H   :   -0.000267791   -0.000610249    0.000009433
  14   H   :    0.000737436    0.000010300    0.000334258
  15   C   :    0.000427782   -0.000249335   -0.000378485
  16   H   :    0.000364870   -0.000095109    0.000247981
  17   N   :    0.000041454    0.000348248   -0.000413485
  18   O   :    0.000975144    0.000370144   -0.000350452
  19   H   :   -0.000856660   -0.000064017   -0.000454573
  20   H   :   -0.000245186    0.000935494    0.000027868
  21   H   :    0.000321919   -0.000704256    0.000305448
  22   O   :    0.000338512    0.000752269   -0.000626729
  23   H   :    0.000545993   -0.000154251    0.000012594
  24   H   :    0.000564166   -0.000830617   -0.000077673

Difference to translation invariance:
           :    0.0000000000    0.0000000000    0.0000000000

Difference to rotation invariance:
           :    0.0000000000    0.0000000000   -0.0000000000

Norm of the Dispersion gradient    ...    0.0046890139
RMS gradient                       ...    0.0005526056
MAX gradient                       ...    0.0015437635

------------------
CARTESIAN GRADIENT
------------------

   1   C   :   -0.000915586    0.003495933   -0.006300078
   2   C   :   -0.000343875   -0.003324429    0.008233737
   3   H   :   -0.001271529    0.000269752   -0.004076260
   4   H   :    0.000634186    0.003382361   -0.002584334
   5   N   :    0.011810301   -0.007786840    0.001262057
   6   C   :    0.000433100    0.000333612   -0.007504390
   7   H   :   -0.001244462   -0.001882985   -0.006194355
   8   H   :    0.003251258    0.005150690   -0.002957196
   9   C   :    0.000942822   -0.001944456    0.007514267
  10   H   :    0.001386592    0.002002943    0.006598267
  11   H   :   -0.002165624   -0.004782761    0.002803418
  12   C   :   -0.000569393    0.003018961   -0.002905120
  13   H   :   -0.001953221   -0.001419561   -0.006208035
  14   H   :    0.002274716    0.005167685   -0.001730527
  15   C   :    0.005110456    0.006307258    0.005010164
  16   H   :   -0.004645772   -0.000284445   -0.004727801
  17   N   :    0.004621906    0.011480224    0.000323211
  18   O   :    0.015793413   -0.010872734    0.022916124
  19   H   :   -0.003558851   -0.003970518    0.003563383
  20   H   :   -0.000081003    0.001446025    0.006272408
  21   H   :   -0.004472000   -0.000793356    0.001019088
  22   O   :   -0.023827152   -0.003603338   -0.021762575
  23   H   :    0.002125807    0.000820910    0.003406392
  24   H   :   -0.003336092   -0.002210928   -0.001971844

Difference to translation invariance:
           :   -0.0000000000   -0.0000000000    0.0000000000

Difference to rotation invariance:
           :   -0.0003974507    0.0000681778    0.0001865074

Norm of the Cartesian gradient     ...    0.0559970429
RMS gradient                       ...    0.0065993148
MAX gradient                       ...    0.0238271516

-------
TIMINGS
-------

Total SCF gradient time     ....        3.869 sec

Densities                   ....       0.000 sec  (  0.0%)
One electron gradient       ....       0.161 sec  (  4.2%)
RI-J Coulomb gradient       ....       0.729 sec  ( 18.8%)
XC gradient                 ....       2.979 sec  ( 77.0%)

Maximum memory used throughout the entire SCFGRAD-calculation: 28.8 MB
------------------------------------------------------------------------------
                         ORCA GEOMETRY RELAXATION STEP
------------------------------------------------------------------------------

Reading the OPT-File                    .... done
Getting information on internals        .... done
Copying old internal coords+grads       .... done
Making the new internal coordinates     .... (2022 redundants) done
Validating the new internal coordinates .... (2022 redundants) done
Calculating the B-matrix                .... done
Calculating the G,G- and P matrices     .... done
Transforming gradient to internals      .... done
Projecting the internal gradient        .... done
Number of atoms                         ....  24
Number of internal coordinates          .... 104
Current Energy                          ....  -496.712118233 Eh
Current gradient norm                   ....     0.055997043 Eh/bohr
Maximum allowed component of the step   ....  0.300
Current trust radius                    ....  0.300
Evaluating the initial hessian          ....  (Almloef) done
Projecting the Hessian                  .... done
Forming the augmented Hessian           .... done
Diagonalizing the augmented Hessian     .... done
Last element of RFO vector              ....  0.985253717
Lowest eigenvalues of augmented Hessian:
 -0.005922731  0.010502722  0.010715178  0.011063226  0.011439767
Length of the computed step             ....  0.173660564
The final length of the internal step   ....  0.173660564
Converting the step to Cartesian space:
 Initial RMS(Int)=    0.0170288194
Transforming coordinates:
 Iter   0:  RMS(Cart)=    0.0458502934 RMS(Int)=    0.8702223713
 Iter   5:  RMS(Cart)=    0.0000000134 RMS(Int)=    0.0000000091
done
Storing new coordinates                 .... done

                                .--------------------.
          ----------------------|Geometry convergence|-------------------------
          Item                value                   Tolerance       Converged
          ---------------------------------------------------------------------
          RMS gradient        0.0053161044            0.0001000000      NO
          MAX gradient        0.0323923725            0.0003000000      NO
          RMS step            0.0170288194            0.0020000000      NO
          MAX step            0.0713472483            0.0040000000      NO
          -------------------------------------------------------------------------
          ........................................................
          Max(Bonds)      0.0178      Max(Angles)    1.60
          Max(Dihed)        4.09      Max(Improp)    0.00
          ---------------------------------------------------------------------

The optimization has not yet converged - more geometry cycles are needed


    ---------------------------------------------------------------------------
                         Redundant Internal Coordinates
                            (Angstroem and degrees)

        Definition                    Value    dE/dq     Step     New-Value
    ----------------------------------------------------------------------------
     1. B(C   1,C   0)                1.5357 -0.005583  0.0079    1.5436   
     2. B(N   4,H   2)                1.0151 -0.003743  0.0046    1.0197   
     3. B(N   4,C   0)                1.4512 -0.012820  0.0150    1.4661   
     4. B(N   4,H   3)                1.0150 -0.003762  0.0046    1.0196   
     5. B(C   5,C   1)                1.5262 -0.008678  0.0119    1.5382   
     6. B(H   6,C   1)                1.0938 -0.006453  0.0095    1.1033   
     7. B(H   7,C   1)                1.0937 -0.006586  0.0096    1.1033   
     8. B(C   8,C   5)                1.5252 -0.008384  0.0115    1.5367   
     9. B(H   9,C   5)                1.0921 -0.006896  0.0100    1.1021   
    10. B(H  10,C   5)                1.0914 -0.005746  0.0083    1.0998   
    11. B(C  11,C   8)                1.5394 -0.008771  0.0127    1.5520   
    12. B(H  12,C   8)                1.0929 -0.006556  0.0096    1.1025   
    13. B(H  13,C   8)                1.0913 -0.005867  0.0085    1.0998   
    14. B(C  14,C  11)                1.5228 -0.011313  0.0154    1.5381   
    15. B(N  16,C  11)                1.4515 -0.008594  0.0101    1.4615   
    16. B(O  17,H  15)                0.9714 -0.003215  0.0034    0.9747   
    17. B(O  17,C  14)                1.3371 -0.023006  0.0178    1.3549   
    18. B(H  18,C   0)                1.0937 -0.005826  0.0085    1.1022   
    19. B(H  19,C   0)                1.0935 -0.005893  0.0086    1.1021   
    20. B(H  20,N  16)                1.0148 -0.003849  0.0047    1.0195   
    21. B(O  21,C  14)                1.2034 -0.032392  0.0154    1.2188   
    22. B(H  22,C  11)                1.0946 -0.003987  0.0059    1.1004   
    23. B(H  23,N  16)                1.0160 -0.003497  0.0043    1.0203   
    24. A(C   1,C   0,H  19)          109.43  0.001374   -0.31    109.12   
    25. A(C   1,C   0,N   4)          114.85 -0.004516    0.94    115.79   
    26. A(N   4,C   0,H  18)          107.46 -0.000037    0.25    107.71   
    27. A(C   1,C   0,H  18)          109.48  0.001971   -0.38    109.10   
    28. A(H  18,C   0,H  19)          107.91  0.001448   -0.83    107.07   
    29. A(N   4,C   0,H  19)          107.48  0.000029    0.25    107.73   
    30. A(C   5,C   1,H   6)          109.46  0.000623   -0.02    109.44   
    31. A(C   5,C   1,H   7)          109.41 -0.001039    0.13    109.53   
    32. A(C   0,C   1,H   6)          109.11  0.001700   -0.22    108.90   
    33. A(C   0,C   1,C   5)          111.92 -0.004202    0.79    112.71   
    34. A(H   6,C   1,H   7)          107.71  0.001466   -0.56    107.15   
    35. A(C   0,C   1,H   7)          109.14  0.001674   -0.17    108.96   
    36. A(C   0,N   4,H   3)          110.17  0.000745   -0.34    109.84   
    37. A(C   0,N   4,H   2)          110.18  0.000787   -0.34    109.84   
    38. A(H   2,N   4,H   3)          107.46  0.001394   -0.73    106.72   
    39. A(C   8,C   5,H  10)          110.02 -0.000475    0.05    110.06   
    40. A(C   1,C   5,H  10)          109.22  0.000980    0.01    109.23   
    41. A(C   8,C   5,H   9)          109.29  0.001156   -0.21    109.08   
    42. A(C   1,C   5,H   9)          109.25  0.000822   -0.04    109.21   
    43. A(C   1,C   5,C   8)          111.54 -0.003654    0.72    112.26   
    44. A(H   9,C   5,H  10)          107.43  0.001369   -0.57    106.86   
    45. A(H  12,C   8,H  13)          107.79  0.000758   -0.53    107.27   
    46. A(C  11,C   8,H  12)          108.87  0.001874   -0.24    108.63   
    47. A(C  11,C   8,H  13)          106.73  0.000893   -0.22    106.51   
    48. A(C   5,C   8,H  13)          109.88  0.001482   -0.10    109.79   
    49. A(C   5,C   8,H  12)          110.09  0.002151   -0.24    109.84   
    50. A(C   5,C   8,C  11)          113.28 -0.006873    1.25    114.53   
    51. A(C  14,C  11,N  16)          111.89 -0.000149    0.33    112.22   
    52. A(C   8,C  11,N  16)          108.90 -0.001459    0.49    109.39   
[...]
      dz2     :     0.007683  d :     0.023195
      dxz     :     0.004484
      dyz     :     0.004260
      dx2y2   :     0.001283
      dxy     :     0.005485

 18 H s       :     0.883918  s :     0.883918
      pz      :     0.002308  p :     0.010647
      px      :     0.002911
      py      :     0.005428

 19 H s       :     0.883282  s :     0.883282
      pz      :     0.005691  p :     0.010650
      px      :     0.002203
      py      :     0.002756

 20 H s       :     0.736922  s :     0.736922
      pz      :     0.007019  p :     0.023554
      px      :     0.009265
      py      :     0.007270

 21 O s       :     3.872415  s :     3.872415
      pz      :     1.486079  p :     4.528852
      px      :     1.406413
      py      :     1.636360
      dz2     :     0.006848  d :     0.027294
      dxz     :     0.006849
      dyz     :     0.004907
      dx2y2   :     0.004935
      dxy     :     0.003756

 22 H s       :     0.866783  s :     0.866783
      pz      :     0.006034  p :     0.010762
      px      :     0.002549
      py      :     0.002180

 23 H s       :     0.728739  s :     0.728739
      pz      :     0.010162  p :     0.023606
      px      :     0.006572
      py      :     0.006871



                     *******************************
                     * LOEWDIN POPULATION ANALYSIS *
                     *******************************

----------------------
LOEWDIN ATOMIC CHARGES
----------------------
   0 C :   -0.073782
   1 C :   -0.144666
   2 H :    0.121093
   3 H :    0.121110
   4 N :   -0.274126
   5 C :   -0.128405
   6 H :    0.061635
   7 H :    0.061321
   8 C :   -0.115585
   9 H :    0.067640
  10 H :    0.067260
  11 C :   -0.047103
  12 H :    0.070663
  13 H :    0.078823
  14 C :    0.124712
  15 H :    0.182574
  16 N :   -0.250517
  17 O :   -0.156554
  18 H :    0.065593
  19 H :    0.065940
  20 H :    0.127264
  21 O :   -0.234233
  22 H :    0.079382
  23 H :    0.129964

-------------------------------
LOEWDIN REDUCED ORBITAL CHARGES
-------------------------------
  0 C s       :     2.900602  s :     2.900602
      pz      :     1.029064  p :     3.063334
      px      :     0.972543
      py      :     1.061728
      dz2     :     0.024901  d :     0.109846
      dxz     :     0.025047
      dyz     :     0.010154
      dx2y2   :     0.017661
      dxy     :     0.032082

  1 C s       :     2.920186  s :     2.920186
      pz      :     1.057155  p :     3.144917
      px      :     1.029347
      py      :     1.058415
      dz2     :     0.018633  d :     0.079563
      dxz     :     0.017709
      dyz     :     0.008810
      dx2y2   :     0.013194
      dxy     :     0.021217

  2 H s       :     0.802248  s :     0.802248
      pz      :     0.039174  p :     0.076659
      px      :     0.017338
      py      :     0.020147

  3 H s       :     0.802227  s :     0.802227
      pz      :     0.013648  p :     0.076664
      px      :     0.024082
      py      :     0.038934

  4 N s       :     3.226034  s :     3.226034
      pz      :     1.244614  p :     3.990978
      px      :     1.334953
      py      :     1.411411
      dz2     :     0.017261  d :     0.057114
      dxz     :     0.012107
      dyz     :     0.005059
      dx2y2   :     0.010724
      dxy     :     0.011964

  5 C s       :     2.904787  s :     2.904787
      pz      :     1.058943  p :     3.143633
      px      :     1.027379
      py      :     1.057310
      dz2     :     0.018641  d :     0.079986
      dxz     :     0.017554
      dyz     :     0.009212
      dx2y2   :     0.013474
      dxy     :     0.021105

  6 H s       :     0.900626  s :     0.900626
      pz      :     0.021699  p :     0.037739
      px      :     0.007984
      py      :     0.008057

  7 H s       :     0.900947  s :     0.900947
      pz      :     0.006962  p :     0.037732
      px      :     0.010511
      py      :     0.020259

  8 C s       :     2.912633  s :     2.912633
      pz      :     1.050190  p :     3.124031
      px      :     1.009299
      py      :     1.064542
      dz2     :     0.016867  d :     0.078921
      dxz     :     0.018761
      dyz     :     0.009721
      dx2y2   :     0.013741
      dxy     :     0.019832

  9 H s       :     0.894420  s :     0.894420
      pz      :     0.021816  p :     0.037940
      px      :     0.008070
      py      :     0.008054

 10 H s       :     0.894032  s :     0.894032
      pz      :     0.007071  p :     0.038708
      px      :     0.010913
      py      :     0.020724

 11 C s       :     2.892108  s :     2.892108
      pz      :     1.058362  p :     3.030300
      px      :     1.005581
      py      :     0.966357
      dz2     :     0.024249  d :     0.124695
      dxz     :     0.019669
      dyz     :     0.017401
      dx2y2   :     0.028065
      dxy     :     0.035313

 12 H s       :     0.890882  s :     0.890882
      pz      :     0.021990  p :     0.038455
      px      :     0.008145
      py      :     0.008320

 13 H s       :     0.882206  s :     0.882206
      pz      :     0.007089  p :     0.038971
      px      :     0.010520
      py      :     0.021362

 14 C s       :     2.875345  s :     2.875345
      pz      :     0.886880  p :     2.722931
      px      :     0.905960
      py      :     0.930091
      dz2     :     0.083410  d :     0.277012
      dxz     :     0.053512
      dyz     :     0.064619
      dx2y2   :     0.029029
      dxy     :     0.046442

 15 H s       :     0.703770  s :     0.703770
      pz      :     0.020983  p :     0.113656
      px      :     0.039776
      py      :     0.052897

 16 N s       :     3.225827  s :     3.225827
      pz      :     1.180147  p :     3.967469
      px      :     1.320187
      py      :     1.467135
      dz2     :     0.007428  d :     0.057221
      dxz     :     0.018132
      dyz     :     0.011598
      dx2y2   :     0.010573
      dxy     :     0.009490

 17 O s       :     3.499567  s :     3.499567
      pz      :     1.567361  p :     4.608171
      px      :     1.650429
      py      :     1.390381
      dz2     :     0.014823  d :     0.048816
      dxz     :     0.007171
      dyz     :     0.012218
      dx2y2   :     0.003541
      dxy     :     0.011062

 18 H s       :     0.897486  s :     0.897486
      pz      :     0.006735  p :     0.036921
      px      :     0.009487
      py      :     0.020699

 19 H s       :     0.897124  s :     0.897124
      pz      :     0.022093  p :     0.036937
      px      :     0.006956
      py      :     0.007887

 20 H s       :     0.795818  s :     0.795818
      pz      :     0.022324  p :     0.076918
      px      :     0.033525
      py      :     0.021069

 21 O s       :     3.569223  s :     3.569223
      pz      :     1.529200  p :     4.609389
      px      :     1.444734
      py      :     1.635455
      dz2     :     0.011650  d :     0.055621
      dxz     :     0.018250
      dyz     :     0.009387
      dx2y2   :     0.008060
      dxy     :     0.008275

 22 H s       :     0.881613  s :     0.881613
      pz      :     0.022984  p :     0.039005
      px      :     0.008903
      py      :     0.007117

 23 H s       :     0.792206  s :     0.792206
      pz      :     0.036475  p :     0.077830
      px      :     0.019828
      py      :     0.021527



                      *****************************
                      * MAYER POPULATION ANALYSIS *
                      *****************************

  NA   - Mulliken gross atomic population
  ZA   - Total nuclear charge
  QA   - Mulliken gross atomic charge
  VA   - Mayer's total valence
  BVA  - Mayer's bonded valence
  FA   - Mayer's free valence

  ATOM       NA         ZA         QA         VA         BVA        FA
  0 C      6.0865     6.0000    -0.0865     3.9001     3.9001    -0.0000
  1 C      6.1971     6.0000    -0.1971     3.8682     3.8682     0.0000
  2 H      0.7692     1.0000     0.2308     0.9224     0.9224     0.0000
  3 H      0.7692     1.0000     0.2308     0.9223     0.9223     0.0000
  4 N      7.5694     7.0000    -0.5694     2.8847     2.8847     0.0000
  5 C      6.1930     6.0000    -0.1930     3.8783     3.8783    -0.0000
  6 H      0.9087     1.0000     0.0913     0.9576     0.9576    -0.0000
  7 H      0.9091     1.0000     0.0909     0.9578     0.9578    -0.0000
  8 C      6.1844     6.0000    -0.1844     3.8630     3.8630    -0.0000
  9 H      0.8979     1.0000     0.1021     0.9543     0.9543     0.0000
 10 H      0.8950     1.0000     0.1050     0.9595     0.9595    -0.0000
 11 C      6.0448     6.0000    -0.0448     3.8601     3.8601    -0.0000
 12 H      0.8930     1.0000     0.1070     0.9585     0.9585     0.0000
 13 H      0.8779     1.0000     0.1221     0.9573     0.9573    -0.0000
 14 C      5.5004     6.0000     0.4996     3.9076     3.9076    -0.0000
 15 H      0.6827     1.0000     0.3173     0.9185     0.9185     0.0000
 16 N      7.5540     7.0000    -0.5540     2.8956     2.8956    -0.0000
 17 O      8.4606     8.0000    -0.4606     2.0352     2.0352     0.0000
 18 H      0.8946     1.0000     0.1054     0.9513     0.9513     0.0000
 19 H      0.8939     1.0000     0.1061     0.9511     0.9511    -0.0000
 20 H      0.7605     1.0000     0.2395     0.9188     0.9188    -0.0000
 21 O      8.4286     8.0000    -0.4286     2.0997     2.0997    -0.0000
 22 H      0.8775     1.0000     0.1225     0.9517     0.9517     0.0000
 23 H      0.7523     1.0000     0.2477     0.9298     0.9298    -0.0000

  Mayer bond orders larger than 0.100000
B(  0-C ,  1-C ) :   0.9789 B(  0-C ,  4-N ) :   1.0235 B(  0-C , 18-H ) :   0.9499 
B(  0-C , 19-H ) :   0.9499 B(  1-C ,  5-C ) :   0.9866 B(  1-C ,  6-H ) :   0.9473 
B(  1-C ,  7-H ) :   0.9473 B(  2-H ,  4-N ) :   0.9137 B(  3-H ,  4-N ) :   0.9137 
B(  5-C ,  8-C ) :   0.9926 B(  5-C ,  9-H ) :   0.9466 B(  5-C , 10-H ) :   0.9416 
B(  8-C , 11-C ) :   0.9725 B(  8-C , 12-H ) :   0.9405 B(  8-C , 13-H ) :   0.9379 
B( 11-C , 14-C ) :   0.8946 B( 11-C , 16-N ) :   1.0405 B( 11-C , 22-H ) :   0.9259 
B( 14-C , 17-O ) :   1.0633 B( 14-C , 21-O ) :   1.8970 B( 15-H , 17-O ) :   0.8523 
B( 16-N , 20-H ) :   0.9082 B( 16-N , 23-H ) :   0.8946 

-------
TIMINGS
-------

Total SCF time: 0 days 0 hours 0 min 3 sec 

Total time                  ....       3.676 sec
Sum of individual times     ....       3.163 sec  ( 86.1%)

SCF preparation             ....       0.034 sec  (  0.9%)
Fock matrix formation       ....       3.090 sec  ( 84.1%)
  Startup                   ....       0.001 sec  (  0.0% of F)
  Split-RI-J                ....       1.206 sec  ( 39.0% of F)
  XC integration            ....       2.323 sec  ( 75.2% of F)
    Basis function eval.    ....       0.867 sec  ( 37.3% of XC)
    Density eval.           ....       0.514 sec  ( 22.1% of XC)
    XC-Functional eval.     ....       0.449 sec  ( 19.3% of XC)
    XC-Potential eval.      ....       0.428 sec  ( 18.4% of XC)
Diagonalization             ....       0.000 sec  (  0.0%)
Density matrix formation    ....       0.002 sec  (  0.1%)
Total Energy calculation    ....       0.001 sec  (  0.0%)
Population analysis         ....       0.010 sec  (  0.3%)
Orbital Transformation      ....       0.004 sec  (  0.1%)
Orbital Orthonormalization  ....       0.000 sec  (  0.0%)
DIIS solution               ....       0.005 sec  (  0.1%)
SOSCF solution              ....       0.017 sec  (  0.5%)
Finished LeanSCF after   3.7 sec

Maximum memory used throughout the entire LEANSCF-calculation: 23.4 MB



-------------------------------------------------------------------------------
                          DFT DISPERSION CORRECTION                            
-------------------------------------------------------------------------------
Active option DFTDOPT                   ...         2   
Final C6-coefficient scaling factor     ...     1.250
Final VDW-radii scaling factor          ...     1.100
Damping factor alpha                    ...    20.000
-------------------------   ----------------
Dispersion correction           -0.033133755
-------------------------   ----------------


-------------------------   --------------------
FINAL SINGLE POINT ENERGY      -496.716559020956
-------------------------   --------------------

                                *** OPTIMIZATION RUN DONE ***


------------------------------------------------------------------------------
                              ORCA PROPERTY CALCULATIONS
------------------------------------------------------------------------------

GBWName                                 ... 4.gbw
Number of atoms                         ...     24
Number of basis functions               ...    210
Max core memory                         ...   4096 MB

Electric properties:
Dipole moment                           ... YES
Quadrupole moment                       ...  NO
Static polarizability (Dipole/Dipole)   ...  NO
Static polarizability (Dipole/Quad.)    ...  NO
Static polarizability (Quad./Quad.)     ...  NO
Static polarizability (Velocity)        ...  NO
Static hyperpolarizability              ...  NO

Atomic electric properties:
Dipole moment                           ...  NO
Quadrupole moment                       ...  NO
Static polarizability                   ...  NO

Choice of electric origin               ... Center of mass
Position of electric origin             ...   -20.219867    11.348389     0.885228

General magnetic properties:
Magnetizability                         ...  NO

EPR properties:
g-Tensor (aka g-matrix)                 ...  NO
Zero-Field splitting spin-orbit         ...  NO
Zero-field splitting spin-spin          ...  NO
Hyperfine couplings                     ...  NO (   0 nuclei)
Quadrupole couplings                    ...  NO (   0 nuclei)
Contact density                         ...  NO (   0 nuclei)

NMR properties:
Chemical shifts                         ...  NO (   0 nuclei)
Spin-rotation constants                 ...  NO (   0 nuclei)
Spin-spin couplings                     ...  NO (   0 nuclei,    0 pairs)

Choice of magnetic origin               ... GIAO
Position of magnetic origin             ...     0.000000     0.000000     0.000000

Properties with geometric perturbations:
SCF Hessian                             ...  NO
IR spectrum                             ...  NO
VCD spectrum                            ...  NO
X-ray spectroscopy properties:
SCF XES/XAS/RIXS spectra                ...  NO

SCF SOC stabilization energy            ...  NO
Diagonal Born-Oppenheimer correction    ...  NO

-------------
DIPOLE MOMENT
-------------

Method             : SCF
Type of density    : Electron Density
Multiplicity       :   1
Irrep              :   0
Energy             :  -496.6834252656425406 Eh
Basis              : AO
                                X                 Y                 Z
Electronic contribution:     11.878163376       0.470614295      -2.863001826
Nuclear contribution   :    -11.656107039      -0.548768595       2.691434825
                        -----------------------------------------
Total Dipole Moment    :      0.222056336      -0.078154300      -0.171567001
                        -----------------------------------------
Magnitude (a.u.)       :      0.291294262
Magnitude (Debye)      :      0.740411173



--------------------
Rotational spectrum 
--------------------
 
Rotational constants in cm-1:             0.081891             0.016515             0.014982 
Rotational constants in MHz :          2455.038456           495.111117           449.154678 

Dipole components along the rotational axes: 
x,y,z [a.u.] :    -0.259689     0.046723    -0.123413 
x,y,z [Debye]:    -0.660078     0.118760    -0.313691 

 

Dipole moment calculation done in   0.0 sec 

Maximum memory used throughout the entire PROP-calculation: 13.1 MB

--------------------------------
SUGGESTED CITATIONS FOR THIS RUN
--------------------------------

Below you find a list of papers that are relevant to this ORCA run
We neither can nor want to force you to cite these papers, but we appreciate if you do
You receive ORCA, which is the product of decades of hard work by many enthusiastic individuals, for free
The only thing we kindly ask in return is that you cite our papers,
We deeply appreciate it, if you show your appreciation for ORCA by not just citing the generic ORCA reference.

Please note that relegating all ORCA citations to the supporting information does *not* help us.
SI sections are not indexed - citations you put there will not count into any citation statistics
But we need these citations in order to attract the funding resources that allow us to do what we are doing

Therefore, if you are a happy ORCA user, please consider citing a few of the papers listed below in the main body of your paper

In addition to the list printed below, the program has created the file 4.bibtex that contains the list in bibtex format
You can import this file easily into all common literature databanks and citation aid programs


List of essential papers. We consider these as the minimum necessary citations

  1. Neese, F.
     Software update: the ORCA program system, version 6.0
     WIRES Comput. Molec. Sci. 2025 15(1), e70019
     doi.org/10.1002/wcms.7019

List of papers to cite with high priority. The work reported in these papers was absolutely
necessary for this run to complete.
Our perspective: the developers of density functionals and basis sets usually get cited in chemistry papers
Good! But without the algorithms to do something with them, the functionals or basis sets would not do anything.
Hence, in our opinion, the algorithm design and method developments papers are equally worthy of getting cited

  1. Neese, F.
     An improvement of the resolution of the identity approximation for the formation of the Coulomb matrix
     J. Comp. Chem. 2003 24(14), 1740-1747
     doi.org/10.1002/jcc.10318
  2. Grimme, S.
     Semiempirical GGA-type density functional constructed with a long-range dispersion correction
     J.Comput.Chem. 2006 27(15), 1787-1799
     doi.org/10.1002/jcc.20495
  3. Neese, F.
     The SHARK Integral Generation and Digestion System
     J. Comp. Chem. 2022 44(3), 381
     doi.org/10.1002/jcc.26942

List of suggested additional citations. These are papers that are important in the 'surrounding' of 
of this run, or papers that preceded the highly important papers. If you like your results we are grateful for a citation.

  1. Neese, F.
     The ORCA program system
     WIRES Comput. Molec. Sci. 2012 2(1), 73-78
     doi.org/10.1002/wcms.81
  2. Neese, F.
     Software update: the ORCA program system, version 4.0
     WIRES Comput. Molec. Sci. 2018 8(1), 1-6
     doi.org/10.1002/wcms.1327
  3. Neese, F.; Wennmohs, F.; Becker, U.; Riplinger, C.
     The ORCA quantum chemistry program package
     J. Chem. Phys. 2020 152(22), 224108
     doi.org/10.1063/5.0004608
  4. Neese, F.
     Software update: The ORCA program system—Version 5.0
     WIRES Comput. Molec. Sci. 2022 12(1), e1606
     doi.org/10.1002/wcms.1606

List of optional additional citations

  1. Neese, F.
     Approximate second-order SCF convergence for spin unrestricted wavefunctions
     Chem. Phys. Lett. 2000 325(1-3), 93-98
     doi.org/10.1016/s0009-2614(00)00662-x

Timings for individual modules:

Sum of individual times          ...       98.324 sec (=   1.639 min)
Startup calculation              ...        5.209 sec (=   0.087 min)   5.3 %
SCF iterations                   ...       58.020 sec (=   0.967 min)  59.0 %
Property calculations            ...        0.039 sec (=   0.001 min)   0.0 %
SCF Gradient evaluation          ...       35.036 sec (=   0.584 min)  35.6 %
Geometry relaxation              ...        0.019 sec (=   0.000 min)   0.0 %
                             ****ORCA TERMINATED NORMALLY****
TOTAL RUN TIME: 0 days 0 hours 1 minutes 38 seconds 568 msec
