
                                 *****************
                                 * O   R   C   A *
                                 *****************

                                            #,                                       
                                            ###                                      
                                            ####                                     
                                            #####                                    
                                            ######                                   
                                           ########,                                 
                                     ,,################,,,,,                         
                               ,,#################################,,                 
                          ,,##########################################,,             
                       ,#########################################, ''#####,          
                    ,#############################################,,   '####,        
                  ,##################################################,,,,####,       
                ,###########''''           ''''###############################       
              ,#####''   ,,,,##########,,,,          '''####'''          '####       
            ,##' ,,,,###########################,,,                        '##       
           ' ,,###''''                  '''############,,,                           
         ,,##''                                '''############,,,,        ,,,,,,###''
      ,#''                                            '''#######################'''  
     '                                                          ''''####''''         
             ,#######,   #######,   ,#######,      ##                                
            ,#'     '#,  ##    ##  ,#'     '#,    #''#        ,####,    ,#,          
            ##       ##  ##   ,#'  ##            #'  '#       #'       ,# #          
            ##       ##  #######   ##           ,######,      #####,      #          
            '#,     ,#'  ##    ##  '#,     ,#' ,#      #,     #,   #      #          
             '#######'   ##     ##  '#######'  #'      '#     '####' #    #          



                #########################################################
                #                        -***-                          #
                #          Department of theory and spectroscopy        #
                #                                                       #
                #                      Frank Neese                      #
                #                                                       #
                #     Directorship, Architecture, Infrastructure        #
                #                    SHARK, DRIVERS                     #
                #        Core code/Algorithms in most modules           #
                #                                                       #
                #        Max Planck Institute fuer Kohlenforschung      #
                #                Kaiser Wilhelm Platz 1                 #
                #                 D-45470 Muelheim/Ruhr                 #
                #                      Germany                          #
                #                                                       #
                #                  All rights reserved                  #
                #                        -***-                          #
                #########################################################


                         Program Version 6.1.0  -  RELEASE   -
                                (GIT: $679e74b$)
                          ($2025-06-10 18:02:51 +0200$)


 With contributions from (in alphabetic order):
[Max-Planck-Institut fuer Kohlenforschung]                               
  Daniel Aravena         : Magnetic Suceptibility                        
  Michael Atanasov       : Ab Initio Ligand Field Theory (pilot matlab implementation)
  Alexander A. Auer      : GIAO ZORA, VPT2 properties, NMR spectrum      
  Ute Becker             : All parallelization in ORCA, NUMFREQ, NUMCALC 
  Giovanni Bistoni       : ED, misc. LED, open-shell LED, HFLD           
  Dmytro Bykov           : pre 5.0 version of the SCF Hessian            
  Marcos Casanova-Páez   : Triplet and SCS-CIS(D). UHF-(DLPNO)-IP/EA/STEOM-CCSD. UHF-CVS-IP/STEOM-CCSD   
  Vijay G. Chilkuri      : MRCI spin determinant printing, contributions to CSF-ICE 
  Pauline Colinet        : FMM embedding                                 
  Dipayan Datta          : RHF DLPNO-CCSD density                        
  Achintya Kumar Dutta   : EOM-CC, STEOM-CC                              
  Nicolas Foglia         : Exact transition moments, OPA infrastructure, MCD improvements    
  Dmitry Ganyushin       : Spin-Orbit,Spin-Spin,Magnetic field MRCI      
  Miquel Garcia-Rates    : C-PCM and meta-GGA Hessian, CCSD/C-PCM, Gaussian charge scheme 
  Tiago L. C. Gouveia    : GS-ROHF, GS-ROCIS                             
  Yang Guo               : DLPNO-NEVPT2, F12-NEVPT2, CIM, IAO-localization        
  Andreas Hansen         : Spin unrestricted coupled pair/coupled cluster methods 
  Ingolf Harden          : AUTO-CI MPn and infrastructure                
  Benjamin Helmich-Paris : MC-RPA, TRAH-(SCF,CASSCF), AVAS, COSX integrals, SCF dyn. polar., MC-PDFT, srDFT 
  Lee Huntington         : MR-EOM, pCC                                   
  Robert Izsak           : Overlap fitted RIJCOSX, COSX-SCS-MP3, EOM     
  Riya Kayal             : Wick's Theorem for AUTO-CI, AUTO-CI UHF-CCSDT 
  Emily Kempfer          : AUTO-CI RHF CISDT and CCSDT, approximate NEVPT4
  Christian Kollmar      : KDIIS, OOCD, Brueckner-CCSD(T), CCSD density, CASPT2, CASPT2-K, improved NEVPT2 
  Axel Koslowski         : Symmetry handling                             
  Simone Kossmann        : meta-GGA functionals, TD-DFT gradient, OOMP2, (MP2 Hessian; deprecated post 5.0) 
  Lucas Lang             : DCDCAS, Hyperfine gauge corrections, ICE-SOC+SSC
  Marvin Lechner         : AUTO-CI (C++ implementation), FIC-MRCC        
  Spencer Leger          : CASSCF response                               
  Dagmar Lenk            : GEPOL surface, SMD, ORCA-2-JSON               
  Dimitrios Liakos       : Extrapolation schemes; Compound Job, Property file
  Dimitrios Manganas     : Further ROCIS development; embedding schemes. LFT, Crystal Embedding 
  Dimitrios Pantazis     : SARC Basis sets                               
  Anastasios Papadopoulos: AUTO-CI, single reference methods and gradients 
  Taras Petrenko         : pre 6.0 DFT Hessian and TD-DFT gradient,  ECA, NRVS 
  Petra Pikulova         : Analytic Raman intensities                    
  Peter Pinski           : DLPNO-MP2, DLPNO-MP2 Gradient                 
  Shashank Vittal Rao    : ES-AILFT, MagRelax                            
  Christoph Reimann      : Effective Core Potentials                     
  Marius Retegan         : Local ZFS, SOC                                
  Christoph Riplinger    : Optimizer, TS searches, QM/MM, DLPNO-CCSD(T), (RO)-DLPNO pert. Triples 
  Michael Roemelt        : Original ROCIS implementation, recursive CI coupling coefficients
  Masaaki Saitow         : Open-shell DLPNO-CCSD energy and density      
  Barbara Sandhoefer     : DKH picture change effects                    
  Yorick L. A. Schmerwitz: GMF and freeze-and-release deltaSCF, NEB S-IDPP initial path                    
  Kantharuban Sivalingam : CASSCF convergence/infrastructure, NEVPT2, NEVPT3, NEVPT4(SD), FIC-MRCI and CEPA variants
  Bernardo de Souza      : ESD, SOC TD-DFT                               
  Georgi L. Stoychev     : AutoAux, RI-MP2 NMR, DLPNO-MP2 response, X2C  
  Van Anh Tran           : RI-MP2 g-tensors                              
  Willem Van den Heuvel  : Paramagnetic NMR                              
  Zikuan Wang            : NOTCH, Electric field optimization            
  Frank Wennmohs         : Technical directorship and infrastructure     
  Hang Xu                : AUTO-CI-Response properties                   
                                                                         
[FACCTs GmbH]                                                            
  Markus Bursch, Nicolas Foglia, Miquel Garcia-Rates, Ingolf Harden, Hagen Neugebauer, Anastasios Papadopoulos, 
  Christoph Riplinger, Bernardo de Souza, Georgi L. Stoychev                                                    
                                                                 
  APM, various basis sets, CI-OPT, improved COSX, DLPNO-Multilevel,           
  DOCKER, DRACO, updates on ESD, Fragmentator, GOAT, IRC, LR-CPCM, L-BFGS, MBIS, meta-GGA TD-DFT gradient, ML-optimized integration grids, 
  MM, NACMEs, nearIR, NEB, NEB-TS, NL-DFT gradient (VV10), 2- and 3-layer-ONIOM, interface openCOSMO-RS, QMMM,   
  Crystal-QMMM, RESP, rigid body optimization, SF, symmetry and pop. for TD-DFT, various functionals, SOLVATOR                                   
                                                                         
[Other institutions]                                                     
  V. Asgeirsson          : NEB                                           
  Christoph Bannwarth    : sTDA-DFT, sTD-DFT, PBEh-3c, B97-3c, D3        
  Giovanni Bistoni       : ETS/NOCV, ADLD/ADEX, COVALED                  
  Martin Brehm           : Molecular dynamics                            
  Ronald Cardenas        : ETS/NOCV                                      
  Martina Colucci        : COVALED                                       
  Sebastian Ehlert       : rSCAN, r2SCAN, r2SCAN-3c, D4, dhf basis sets  
  Marvin Friede          : D4 for Fr, Ra, Ac-Lr                          
  Lars Goerigk           : TD-DFT with DH, B97 family of functionals     
  Stefan Grimme          : VdW corrections, initial TS optimization, DFT functionals, gCP, sTDA/sTD-DF 
  Waldemar Hujo          : DFT-NL                                        
  H. Jonsson             : NEB                                           
  Holger Kruse           : gCP                                           
  Marcel Mueller         : wB97X-3c, vDZP basis set                      
  Hagen Neugebauer       : wr2SCAN, Native XTB                           
  Gianluca Regni         : ADLD/ADEX                                     
  Tobias Risthaus        : pre 6.0 range-separated hybrid DFT and stability analysis
  Lukas Wittmann         : regularized MP2, r2SCAN double-hybrids, wr2SCAN        
                                                                         
We gratefully acknowledge several colleagues who have allowed us to      
interface, adapt or use parts of their codes:                            
  Ed Valeev, F. Pavosevic, A. Kumar             : LibInt (2-el integral package), F12 methods 
  Garnet Chan, S. Sharma, J. Yang, R. Olivares  : DMRG                   
  Ulf Ekstrom                                   : XCFun DFT Library      
  Mihaly Kallay                                 : mrcc  (arbitrary order and MRCC methods)
  Frank Weinhold                                : gennbo (NPA and NBO analysis)           
  Simon Mueller                                 : openCOSMO-RS                            
  Christopher J. Cramer and Donald G. Truhlar   : smd solvation model                     
  S Lehtola, MJT Oliveira, MAL Marques          : LibXC Library                           
  Liviu Ungur et al                             : ANISO software                          


 Your calculation uses the libint2 library for the computation of 2-el integrals
 For citations please refer to: http://libint.valeyev.net

 Your ORCA version has been built with support for libXC version: 7.0.0
 For citations please refer to: https://libxc.gitlab.io

 This ORCA versions uses:
   CBLAS   interface :  Fast vector & matrix operations
   LAPACKE interface :  Fast linear algebra routines
   SCALAPACK package :  Parallel linear algebra routines
   Shared memory     :  Shared parallel matrices
   BLAS/LAPACK       :  OpenBLAS 0.3.29  USE64BITINT DYNAMIC_ARCH NO_AFFINITY Haswell SINGLE_THREADED
        Core in use  :  Haswell
   Copyright (c) 2011-2014, The OpenBLAS Project


  ***********************************
  * Starting time: Sat Aug 16 15:52:15 2025
  * Host name:     CHEMLAB02
  * Process ID:    1906902
  * Working dir.:  /home/vivek/mm-project/vivek/xtb-goat/B97-D/a/5
  ***********************************



***************************************
The coordinates will be read from file: /home/vivek/mm-project/vivek/xtb-goat/xtb-goat/a/A_CONF/5.xyz
***************************************


Your calculation utilizes empirical dispersion correction


Warning: RI is on but no J-basis has been assigned. Assigning Def2/J (nothing to worry about!)
================================================================================

----- Orbital basis set information -----
Your calculation utilizes the basis: 6-31G**
   H-He, Li-Ne : W. J. Hehre, R. Ditchfield and J.A. Pople, J. Chem. Phys. 56, 2257 (1972).
                 Note: He and Ne are unpublished basis sets taken from the Gaussian program.
                 Note: Li and B from J. D. Dill and J. A. Pople, J. Chem. Phys. 62, 2921 (1975).
   Na - Ar     : M. M. Francl, W. J. Pietro, W. J. Hehre, J. S. Binkley, M. S. Gordon, 
                 D. J. DeFrees and J. A. Pople, J. Chem. Phys. 77, 3654 (1982).
   K - Zn      : V. A. Rassolov, J. A. Pople, M. A. Ratner, and T. L. Windus, J. Chem. Phys. 109, 1223 (1998).

----- AuxJ basis set information -----
Your calculation utilizes the auxiliary basis: def2/J
   H-Rn: F. Weigend, Phys. Chem. Chem. Phys. 8, 1057 (2006).
   Fr-Lr: K. Eichkorn, F. Weigend, O. Treutler, R. Ahlrichs; Theor. Chem. Acc. 97, 119 (1997).

================================================================================
                                        WARNINGS
                       Please study these warnings very carefully!
================================================================================


INFO   : The exchange functional is Grimme's B97(-D)
         As described in S. Grimme, J. Comput. Chem. 27, 1787 (2006).
         Note that this functional defaults to a pure GGA. 

INFO   : The correlation functional is Grimme's B97(-D)
         As described in S. Grimme, J. Comput. Chem. 27, 1787 (2006).

================================================================================
                                       INPUT FILE
================================================================================
NAME = 5.inp
|  1> ! B97-D 6-31G** 
|  2> 
|  3> * xyzfile 0 1 /home/vivek/mm-project/vivek/xtb-goat/xtb-goat/a/A_CONF/5.xyz
|  4> 
|  5>                          ****END OF INPUT****
================================================================================

                       ****************************
                       * Single Point Calculation *
                       ****************************

---------------------------------
CARTESIAN COORDINATES (ANGSTROEM)
---------------------------------
  C     -4.756615    0.669171   -1.827477
  O     -4.966392    1.818114   -2.090026
  O     -3.587185    0.221083   -1.382421
  C     -5.827010   -0.435985   -1.941375
  H     -3.665923   -0.751744   -1.265421
  C     -6.724371   -0.189689   -3.152691
  H     -7.099768    0.828836   -3.120598
  N     -5.143094   -1.727602   -1.926420
  H     -6.155424   -0.315545   -4.072573
  H     -7.564857   -0.880800   -3.159157
  H     -6.425010   -0.362509   -1.024121
  H     -5.772167   -2.472904   -1.652982
  H     -4.797906   -1.945998   -2.857162

----------------------------
CARTESIAN COORDINATES (A.U.)
----------------------------
  NO LB      ZA    FRAG     MASS         X           Y           Z
   0 C     6.0000    0    12.011   -8.988699    1.264550   -3.453432
   1 O     8.0000    0    15.999   -9.385121    3.435738   -3.949577
   2 O     8.0000    0    15.999   -6.778797    0.417786   -2.612396
   3 C     6.0000    0    12.011  -11.011453   -0.823892   -3.668667
   4 H     1.0000    0     1.008   -6.927591   -1.420590   -2.391299
   5 C     6.0000    0    12.011  -12.707220   -0.358460   -5.957722
   6 H     1.0000    0     1.008  -13.416617    1.566274   -5.897075
   7 N     7.0000    0    14.007   -9.719039   -3.264695   -3.640406
   8 H     1.0000    0     1.008  -11.632066   -0.596294   -7.696047
   9 H     1.0000    0     1.008  -14.295508   -1.664471   -5.969942
  10 H     1.0000    0     1.008  -12.141509   -0.685043   -1.935308
  11 H     1.0000    0     1.008  -10.907815   -4.673111   -3.123684
  12 H     1.0000    0     1.008   -9.066729   -3.677403   -5.399254

--------------------------------
INTERNAL COORDINATES (ANGSTROEM)
--------------------------------
 C      0   0   0     0.000000000000     0.00000000     0.00000000
 O      1   0   0     1.197083627916     0.00000000     0.00000000
 O      1   2   0     1.329069050244   123.45085987     0.00000000
 C      1   2   3     1.542753687488   123.35105102   178.56137859
 H      3   1   2     0.982995466286   107.63994481   181.41280094
 C      4   1   2     1.527482968625   110.52666623    37.04273608
 H      6   4   1     1.085977340438   109.32156267   308.50542927
 N      4   1   2     1.461588111080   107.91668124   163.80949538
 H      6   4   1     1.088909204757   110.14084580    67.38575894
 H      6   4   1     1.088160146454   110.85883802   188.07341668
 H      4   1   2     1.097432069767   105.56916452   278.86416435
 H      8   4   1     1.012904464613   111.24705153   158.76016393
 H      8   4   1     1.016431105128   109.84154648   277.60964793

---------------------------
INTERNAL COORDINATES (A.U.)
---------------------------
 C      0   0   0     0.000000000000     0.00000000     0.00000000
 O      1   0   0     2.262160216162     0.00000000     0.00000000
 O      1   2   0     2.511576518032   123.45085987     0.00000000
 C      1   2   3     2.915381961450   123.35105102   178.56137859
 H      3   1   2     1.857592222167   107.63994481   181.41280094
 C      4   1   2     2.886524484930   110.52666623    37.04273608
 H      6   4   1     2.052199761072   109.32156267   308.50542927
 N      4   1   2     2.762001250536   107.91668124   163.80949538
 H      6   4   1     2.057740181696   110.14084580    67.38575894
 H      6   4   1     2.056324666645   110.85883802   188.07341668
 H      4   1   2     2.073846062442   105.56916452   278.86416435
 H      8   4   1     1.914112037944   111.24705153   158.76016393
 H      8   4   1     1.920776422691   109.84154648   277.60964793

---------------------
BASIS SET INFORMATION
---------------------
There are 4 groups of distinct atoms

 Group   1 Type C   : 10s4p1d contracted to 3s2p1d pattern {631/31/1}
 Group   2 Type O   : 10s4p1d contracted to 3s2p1d pattern {631/31/1}
 Group   3 Type H   : 4s1p contracted to 2s1p pattern {31/1}
 Group   4 Type N   : 10s4p1d contracted to 3s2p1d pattern {631/31/1}

Atom   0C    basis set group =>   1
Atom   1O    basis set group =>   2
Atom   2O    basis set group =>   2
Atom   3C    basis set group =>   1
Atom   4H    basis set group =>   3
Atom   5C    basis set group =>   1
Atom   6H    basis set group =>   3
Atom   7N    basis set group =>   4
Atom   8H    basis set group =>   3
Atom   9H    basis set group =>   3
Atom  10H    basis set group =>   3
Atom  11H    basis set group =>   3
Atom  12H    basis set group =>   3
---------------------------------
AUXILIARY/J BASIS SET INFORMATION
---------------------------------
There are 4 groups of distinct atoms

 Group   1 Type C   : 12s5p4d2f1g contracted to 6s4p3d1f1g pattern {711111/2111/211/2/1}
 Group   2 Type O   : 12s5p4d2f1g contracted to 6s4p3d1f1g pattern {711111/2111/211/2/1}
 Group   3 Type H   : 5s2p1d contracted to 3s1p1d pattern {311/2/1}
 Group   4 Type N   : 12s5p4d2f1g contracted to 6s4p3d1f1g pattern {711111/2111/211/2/1}

Atom   0C    basis set group =>   1
Atom   1O    basis set group =>   2
Atom   2O    basis set group =>   2
Atom   3C    basis set group =>   1
Atom   4H    basis set group =>   3
Atom   5C    basis set group =>   1
Atom   6H    basis set group =>   3
Atom   7N    basis set group =>   4
Atom   8H    basis set group =>   3
Atom   9H    basis set group =>   3
Atom  10H    basis set group =>   3
Atom  11H    basis set group =>   3
Atom  12H    basis set group =>   3
------------------------------------------------------------------------------
                             ORCA STARTUP CALCULATIONS
                           -- RI-GTO INTEGRALS CHOSEN --
------------------------------------------------------------------------------
------------------------------------------------------------------------------
                   ___                                                        
                  /   \      - P O W E R E D   B Y -                         
                 /     \                                                     
                 |  |  |   _    _      __       _____    __    __             
                 |  |  |  | |  | |    /  \     |  _  \  |  |  /  |          
                  \  \/   | |  | |   /    \    | | | |  |  | /  /          
                 / \  \   | |__| |  /  /\  \   | |_| |  |  |/  /          
                |  |  |   |  __  | /  /__\  \  |    /   |      \           
                |  |  |   | |  | | |   __   |  |    \   |  |\   \          
                \     /   | |  | | |  |  |  |  | |\  \  |  | \   \       
                 \___/    |_|  |_| |__|  |__|  |_| \__\ |__|  \__/        
                                                                              
                      - O R C A' S   B I G   F R I E N D -                    
                                      &                                       
                       - I N T E G R A L  F E E D E R -                       
                                                                              
 v1 FN, 2020, v2 2021, v3 2022-2024                                           
------------------------------------------------------------------------------


----------------------
SHARK INTEGRAL PACKAGE
----------------------

Number of atoms                             ...     13
Number of basis functions                   ...    119
Number of shells                            ...     57
Maximum angular momentum                    ...      2
Integral batch strategy                     ... SHARK/LIBINT Hybrid
RI-J (if used) integral strategy            ... SPLIT-RIJ (Revised 2003 algorithm where possible)
Printlevel                                  ...      1
Contraction scheme used                     ... SEGMENTED contraction
Prescreening option                         ... SCHWARTZ
   Thresh                                   ... 1.000e-10
   Tcut                                     ... 1.000e-11
   Tpresel                                  ... 1.000e-11 
Coulomb Range Separation                    ... NOT USED
Exchange Range Separation                   ... NOT USED
Multipole approximations                    ... NOT USED
Finite Nucleus Model                        ... NOT USED
CABS basis                                  ... NOT available
Auxiliary Coulomb fitting basis             ... AVAILABLE
   # of basis functions in Aux-J            ...    371
   # of shells in Aux-J                     ...    125
   Maximum angular momentum in Aux-J        ...      4
Auxiliary J/K fitting basis                 ... NOT available
Auxiliary Correlation fitting basis         ... NOT available
Auxiliary 'external' fitting basis          ... NOT available

Checking pre-screening integrals            ... done (  0.0 sec) Dimension = 57
   => SHARK Basis and OBASIS are compatible. Storing Pre-screening
Shell pair information
Shell pair cut-off parameter TPreSel        ...   1.0e-11
Total number of shell pairs                 ...      1653
Shell pairs after pre-screening             ...      1590
Total number of primitive shell pairs       ...      8022
Primitive shell pairs kept                  ...      5519
          la=0 lb=0:    505 shell pairs
          la=1 lb=0:    580 shell pairs
          la=1 lb=1:    184 shell pairs
          la=2 lb=0:    188 shell pairs
          la=2 lb=1:    112 shell pairs
          la=2 lb=2:     21 shell pairs

Checking whether 4 symmetric matrices of dimension 119 fit in memory
:Max Core in MB      =   4096.00
 MB in use           =      5.52
 MB left             =   4090.48
 MB needed           =      0.22
 Data fit in memory  = YES
Calculating RI/J V-Matrix + Cholesky decomp.... done (  0.0 sec)
Calculating Nuclear repulsion               ... done (  0.0 sec) ENN=    251.323939742135 Eh

Diagonalization of the overlap matrix:
Smallest eigenvalue                        ... 3.452e-03
Time for diagonalization                   ...    0.001 sec
Threshold for overlap eigenvalues          ... 1.000e-07
Number of eigenvalues below threshold      ... 0
Time for construction of square roots      ...    0.000 sec
Total time needed                          ...    0.001 sec

-------------------
DFT GRID GENERATION
-------------------

General Integration Accuracy     IntAcc      ... 4.388
Radial Grid Type                 RadialGrid  ... OptM3 with GC (2021)
Angular Grid (max. ang.)         AngularGrid ... 4 (Lebedev-302)
Angular grid pruning method      GridPruning ... 4 (adaptive)
Weight generation scheme         WeightScheme... mBecke (2022)
Basis function cutoff            BFCut       ... 1.0000e-10
Integration weight cutoff        WCut        ... 1.0000e-14
Partially contracted basis set               ... off
Rotationally invariant grid construction     ... off
Angular grids for H and He will be reduced by one unit

Total number of grid points                  ...    58878
Total number of batches                      ...      926
Average number of points per batch           ...       63
Average number of grid points per atom       ...     4529
Grids setup in   0.2 sec
Initializing property integral containers    ... done (  0.0 sec)

SHARK setup successfully completed in   0.2 seconds

Maximum memory used throughout the entire STARTUP-calculation: 24.8 MB
-------------------------------------------------------------------------------
                                 ORCA GUESS
                   Start orbitals & Density for SCF / CASSCF
-------------------------------------------------------------------------------

------------
SCF SETTINGS
------------
Hamiltonian:
 Density Functional     Method          .... DFT(GTOs)
 Exchange Functional    Exchange        .... B97(D)
 Correlation Functional Correlation     .... B97(D)
 Gradients option       PostSCFGGA      .... off
 RI-approximation to the Coulomb term is turned on
   Number of AuxJ basis functions       .... 371


General Settings:
 Integral files         IntName         .... 5
 Hartree-Fock type      HFTyp           .... RHF
 Total Charge           Charge          ....    0
 Multiplicity           Mult            ....    1
 Number of Electrons    NEL             ....   48
 Basis Dimension        Dim             ....  119
 Nuclear Repulsion      ENuc            ....    251.3239397421 Eh

Convergence Acceleration:
 AO-DIIS                CNVDIIS         .... on
   Start iteration      DIISMaxIt       ....    12
   Startup error        DIISStart       ....  0.200000
   # of expansion vecs  DIISMaxEq       ....     5
   Bias factor          DIISBfac        ....   1.050
   Max. coefficient     DIISMaxC        ....  10.000
 MO-DIIS                CNVKDIIS        .... off
 Trust-Rad. Augm. Hess. CNVTRAH         .... auto
   Auto Start mean grad. ratio tolernc. ....  1.125000
   Auto Start start iteration           ....    50
   Auto Start num. interpolation iter.  ....    10
   Max. Number of Micro iterations      ....    24
   Max. Number of Macro iterations      .... Maxiter - #DIIS iter
   Number of Davidson start vectors     ....     2
   Converg. threshold    (grad. norm)   ....   5.000e-05
   Grad. Scal. Fac. for Micro threshold ....   0.100
   Minimum threshold for Micro iter.    ....   1.000e-02
   NR start threshold (gradient norm)   ....   1.000e-04
   Initial trust radius                 ....   0.400
   Minimum AH scaling param. (alpha)    ....   1.000
   Maximum AH scaling param. (alpha)    .... 1000.000
   Quad. conv. algorithm                .... NR
   White noise on init. David. guess    .... on
   Maximum white noise                  ....   0.010
   Pseudo random numbers                .... off
   Inactive MOs                         .... canonical
   Orbital update algorithm             .... Taylor
   Preconditioner                       .... Diag
   Full preconditioner red. dimension   ....   250
 SOSCF                 CNVSOSCF           .... on
   Start iteration     SOSCFMaxIt         ....   150
   Startup grad/error  SOSCFStart         ....  0.003300
   Hessian update      SOSCFHessUp        .... L-BFGS
   Autom. constraints  SOSCFAutoConstrain .... off
 Level Shifting         CNVShift        .... on
   Level shift para.    LevelShift      ....    0.2500
   Turn off err/grad.   ShiftErr        ....    0.0010
 Zerner damping         CNVZerner       .... off
 Static damping         CNVDamp         .... on
   Fraction old density DampFac         ....    0.7000
   Max. Damping (<1)    DampMax         ....    0.9800
   Min. Damping (>=0)   DampMin         ....    0.0000
   Turn off err/grad.   DampErr         ....    0.1000

SCF Procedure:
 Maximum # iterations   MaxIter         ....   125
 SCF integral mode      SCFMode         .... Direct
   Integral package                     .... SHARK and LIBINT hybrid scheme
 Reset frequency        DirectResetFreq ....    20
 Integral Threshold     Thresh          ....  1.000e-10 Eh
 Primitive CutOff       TCut            ....  1.000e-11 Eh

Convergence Tolerance:
 Convergence Check Mode ConvCheckMode   .... Total+1el-Energy
 Convergence forced     ConvForced      .... 0
 Energy Change          TolE            ....  1.000e-06 Eh
 1-El. energy change                    ....  1.000e-03 Eh
 Orbital Gradient       TolG            ....  5.000e-05
 Orbital Rotation angle TolX            ....  5.000e-05
 DIIS Error             TolErr          ....  1.000e-06

------------------------------
INITIAL GUESS: MODEL POTENTIAL
------------------------------
Loading Hartree-Fock densities                     ... done
Calculating cut-offs                               ... done
Initializing the effective Hamiltonian             ... done
Setting up the integral package (SHARK)            ... done
Starting the Coulomb interaction                   ... done (   0.0 sec)
Making the grid                                    ... done (   0.0 sec)
Mapping shells                                     ... done
Starting the XC term evaluation                    ... done (   0.0 sec)
  promolecular density results
     # of electrons  =     47.996567156
     EX              =    -39.868813804
     EC              =     -2.124093999
     EX+EC           =    -41.992907803
Transforming the Hamiltonian                       ... done (   0.0 sec)
Diagonalizing the Hamiltonian                      ... done (   0.0 sec)
Back transforming the eigenvectors                 ... done (   0.0 sec)
Now organizing SCF variables                       ... done
                      ------------------
                      INITIAL GUESS DONE (   0.1 sec)
                      ------------------
             **** ENERGY FILE WAS UPDATED (5.en.tmp) ****
Finished Guess after   0.1 sec
Maximum memory used throughout the entire GUESS-calculation: 9.4 MB

-------------------------------------------------------------------------------------------
                                      ORCA LEAN-SCF
                              memory conserving SCF solver
-------------------------------------------------------------------------------------------

----------------------------------------D-I-I-S--------------------------------------------
Iteration    Energy (Eh)           Delta-E    RMSDP     MaxDP     DIISErr   Damp  Time(sec)
-------------------------------------------------------------------------------------------
               ***  Starting incremental Fock matrix formation  ***
    1    -323.2798564924794391     0.00e+00  4.97e-03  1.12e-01  2.65e-01  0.700   0.2
    2    -323.4072591045141962    -1.27e-01  3.05e-03  5.93e-02  9.68e-02  0.700   0.2
                               ***Turning on AO-DIIS***
    3    -323.4452045659490977    -3.79e-02  1.12e-03  1.70e-02  2.56e-02  0.700   0.2
    4    -323.4707031575820793    -2.55e-02  1.50e-03  1.96e-02  1.61e-02  0.000   0.2
    5    -323.5299027622247650    -5.92e-02  5.12e-04  9.38e-03  1.04e-02  0.000   0.2
                              *** Initializing SOSCF ***
---------------------------------------S-O-S-C-F--------------------------------------
Iteration    Energy (Eh)           Delta-E    RMSDP     MaxDP     MaxGrad    Time(sec)
--------------------------------------------------------------------------------------
    6    -323.5305119277873018    -6.09e-04  1.76e-04  2.78e-03  2.82e-03     0.2
               *** Restarting incremental Fock matrix formation ***
    7    -323.5305545590724705    -4.26e-05  1.55e-04  3.14e-03  6.54e-04     0.2
    8    -323.5305398207775625     1.47e-05  8.70e-05  2.39e-03  1.90e-03     0.2
    9    -323.5305604215237736    -2.06e-05  5.85e-05  1.05e-03  3.00e-04     0.2
   10    -323.5305586195609067     1.80e-06  3.34e-05  5.95e-04  2.78e-04     0.2
   11    -323.5305617739717263    -3.15e-06  1.18e-05  2.20e-04  4.12e-05     0.2
   12    -323.5305617024773710     7.15e-08  6.95e-06  1.48e-04  7.35e-05     0.2
                 **** Energy Check signals convergence ****

               *****************************************************
               *                     SUCCESS                       *
               *           SCF CONVERGED AFTER  12 CYCLES          *
               *****************************************************

             **** ENERGY FILE WAS UPDATED (5.en.tmp) ****

----------------
TOTAL SCF ENERGY
----------------

Total Energy       :       -323.53056182142279 Eh           -8803.71416 eV

Components:
Nuclear Repulsion  :        251.32393974213485 Eh            6838.87208 eV
Electronic Energy  :       -574.85450156355762 Eh          -15642.58624 eV
One Electron Energy:       -938.97298756643181 Eh          -25550.75397 eV
Two Electron Energy:        364.11848600287419 Eh            9908.16773 eV

Virial components:
Potential Energy   :       -645.40830270673541 Eh          -17562.45277 eV
Kinetic Energy     :        321.87774088531256 Eh            8758.73862 eV
Virial Ratio       :          2.00513493393971

DFT components:
N(Alpha)           :       23.999984807788 electrons
N(Beta)            :       23.999984807788 electrons
N(Total)           :       47.999969615577 electrons
E(X)               :      -40.770714970916 Eh       
E(C)               :       -2.116856412625 Eh       
E(XC)              :      -42.887571383541 Eh       

---------------
SCF CONVERGENCE
---------------

  Last Energy change         ...   -7.1494e-08  Tolerance :   1.0000e-06
  Last MAX-Density change    ...    1.4774e-04  Tolerance :   1.0000e-05
  Last RMS-Density change    ...    6.9450e-06  Tolerance :   1.0000e-06
  Last DIIS Error            ...    2.8218e-03  Tolerance :   1.0000e-06
  Last Orbital Gradient      ...    7.3512e-05  Tolerance :   5.0000e-05
  Last Orbital Rotation      ...    6.3502e-05  Tolerance :   5.0000e-05


----------------
ORBITAL ENERGIES
----------------

  NO   OCC          E(Eh)            E(eV) 
   0   2.0000     -18.790646      -511.3195 
   1   2.0000     -18.736273      -509.8399 
   2   2.0000     -14.024456      -381.6249 
   3   2.0000     -10.016217      -272.5551 
   4   2.0000      -9.958880      -270.9949 
   5   2.0000      -9.908344      -269.6198 
   6   2.0000      -1.001576       -27.2543 
   7   2.0000      -0.922609       -25.1055 
   8   2.0000      -0.840247       -22.8643 
   9   2.0000      -0.686154       -18.6712 
  10   2.0000      -0.593077       -16.1384 
  11   2.0000      -0.533231       -14.5099 
  12   2.0000      -0.493907       -13.4399 
  13   2.0000      -0.441892       -12.0245 
  14   2.0000      -0.413711       -11.2577 
  15   2.0000      -0.395862       -10.7719 
  16   2.0000      -0.369578       -10.0567 
  17   2.0000      -0.361888        -9.8475 
  18   2.0000      -0.350648        -9.5416 
  19   2.0000      -0.324428        -8.8281 
  20   2.0000      -0.301290        -8.1985 
  21   2.0000      -0.255656        -6.9567 
  22   2.0000      -0.242029        -6.5859 
  23   2.0000      -0.202758        -5.5173 
  24   0.0000      -0.007796        -0.2121 
  25   0.0000       0.044649         1.2150 
  26   0.0000       0.085611         2.3296 
  27   0.0000       0.105565         2.8726 
  28   0.0000       0.116303         3.1648 
  29   0.0000       0.131149         3.5687 
  30   0.0000       0.144020         3.9190 
  31   0.0000       0.146350         3.9824 
  32   0.0000       0.182947         4.9782 
  33   0.0000       0.204058         5.5527 
  34   0.0000       0.226997         6.1769 
*Only the first 10 virtual orbitals were printed.

                    ********************************
                    * MULLIKEN POPULATION ANALYSIS *
                    ********************************

-----------------------
MULLIKEN ATOMIC CHARGES
-----------------------
   0 C :    0.538318
   1 O :   -0.409593
   2 O :   -0.456109
   3 C :   -0.088400
   4 H :    0.327158
   5 C :   -0.324941
   6 H :    0.149914
   7 N :   -0.613252
   8 H :    0.111119
   9 H :    0.103093
  10 H :    0.145394
  11 H :    0.259439
  12 H :    0.257861
Sum of atomic charges:   -0.0000000

--------------------------------
MULLIKEN REDUCED ORBITAL CHARGES
--------------------------------
  0 C s       :     2.971197  s :     2.971197
      pz      :     0.789853  p :     2.363487
      px      :     0.763659
      py      :     0.809975
      dz2     :     0.011348  d :     0.126998
      dxz     :     0.015551
      dyz     :     0.020926
      dx2y2   :     0.033231
      dxy     :     0.045943

  1 O s       :     3.861167  s :     3.861167
      pz      :     1.426357  p :     4.519987
      px      :     1.719248
      py      :     1.374382
      dz2     :     0.003199  d :     0.028439
      dxz     :     0.000641
      dyz     :     0.009764
      dx2y2   :     0.007159
      dxy     :     0.007675

  2 O s       :     3.829400  s :     3.829400
      pz      :     1.693797  p :     4.602424
      px      :     1.508791
      py      :     1.399837
      dz2     :     0.003854  d :     0.024284
      dxz     :     0.005761
      dyz     :     0.000995
      dx2y2   :     0.009586
      dxy     :     0.004087

  3 C s       :     3.206926  s :     3.206926
      pz      :     1.026724  p :     2.826316
      px      :     0.975702
      py      :     0.823891
      dz2     :     0.010859  d :     0.055158
      dxz     :     0.010753
      dyz     :     0.007602
      dx2y2   :     0.009539
      dxy     :     0.016406

  4 H s       :     0.632148  s :     0.632148
      pz      :     0.008723  p :     0.040693
      px      :     0.007957
      py      :     0.024014

  5 C s       :     3.250341  s :     3.250341
      pz      :     0.967031  p :     3.045605
      px      :     1.002552
      py      :     1.076022
      dz2     :     0.008140  d :     0.028995
      dxz     :     0.007697
      dyz     :     0.001521
      dx2y2   :     0.004081
      dxy     :     0.007557

  6 H s       :     0.838232  s :     0.838232
      pz      :     0.002459  p :     0.011854
      px      :     0.002933
      py      :     0.006462

  7 N s       :     3.601687  s :     3.601687
      pz      :     1.390484  p :     3.984112
      px      :     1.473647
      py      :     1.119980
      dz2     :     0.008744  d :     0.027453
      dxz     :     0.002110
      dyz     :     0.003503
      dx2y2   :     0.002855
      dxy     :     0.010240

  8 H s       :     0.877294  s :     0.877294
      pz      :     0.005461  p :     0.011587
      px      :     0.003414
      py      :     0.002712

  9 H s       :     0.885336  s :     0.885336
      pz      :     0.002482  p :     0.011571
      px      :     0.004996
      py      :     0.004093

 10 H s       :     0.843466  s :     0.843466
      pz      :     0.005365  p :     0.011140
      px      :     0.003798
      py      :     0.001977

 11 H s       :     0.716687  s :     0.716687
      pz      :     0.006974  p :     0.023874
      px      :     0.008420
      py      :     0.008480

 12 H s       :     0.718722  s :     0.718722
      pz      :     0.011095  p :     0.023417
      px      :     0.007716
      py      :     0.004605



                     *******************************
                     * LOEWDIN POPULATION ANALYSIS *
                     *******************************

----------------------
LOEWDIN ATOMIC CHARGES
----------------------
   0 C :    0.101982
   1 O :   -0.203608
   2 O :   -0.136219
   3 C :   -0.065368
   4 H :    0.166791
   5 C :   -0.203356
   6 H :    0.091030
   7 N :   -0.246969
   8 H :    0.071975
   9 H :    0.068020
  10 H :    0.090335
  11 H :    0.133729
  12 H :    0.131659

-------------------------------
LOEWDIN REDUCED ORBITAL CHARGES
-------------------------------
  0 C s       :     2.852828  s :     2.852828
      pz      :     0.814175  p :     2.739946
      px      :     0.913763
      py      :     1.012008
      dz2     :     0.025761  d :     0.305244
      dxz     :     0.035268
      dyz     :     0.047177
      dx2y2   :     0.079815
      dxy     :     0.117223

  1 O s       :     3.547972  s :     3.547972
      pz      :     1.419376  p :     4.597380
      px      :     1.701512
      py      :     1.476491
      dz2     :     0.007338  d :     0.058257
      dxz     :     0.001270
      dyz     :     0.015636
      dx2y2   :     0.019950
      dxy     :     0.014064

  2 O s       :     3.472089  s :     3.472089
      pz      :     1.669984  p :     4.611382
      px      :     1.545712
      py      :     1.395686
      dz2     :     0.007257  d :     0.052749
      dxz     :     0.010648
      dyz     :     0.002368
      dx2y2   :     0.023342
      dxy     :     0.009133

  3 C s       :     2.891160  s :     2.891160
      pz      :     1.067657  p :     3.048531
      px      :     1.039450
      py      :     0.941425
      dz2     :     0.024633  d :     0.125678
      dxz     :     0.025059
      dyz     :     0.014984
      dx2y2   :     0.020768
      dxy     :     0.040233

  4 H s       :     0.704654  s :     0.704654
      pz      :     0.025298  p :     0.128554
      px      :     0.023088
      py      :     0.080168

  5 C s       :     2.922479  s :     2.922479
      pz      :     1.046739  p :     3.218001
      px      :     1.066690
      py      :     1.104572
      dz2     :     0.017053  d :     0.062876
      dxz     :     0.018456
      dyz     :     0.003398
      dx2y2   :     0.008489
      dxy     :     0.015481

  6 H s       :     0.867217  s :     0.867217
      pz      :     0.007029  p :     0.041753
      px      :     0.009173
      py      :     0.025550

  7 N s       :     3.194711  s :     3.194711
      pz      :     1.382585  p :     3.995312
      px      :     1.459443
      py      :     1.153284
      dz2     :     0.015144  d :     0.056947
      dxz     :     0.004725
      dyz     :     0.008216
      dx2y2   :     0.008262
      dxy     :     0.020600

  8 H s       :     0.888438  s :     0.888438
      pz      :     0.020456  p :     0.039587
      px      :     0.011643
      py      :     0.007487

  9 H s       :     0.892214  s :     0.892214
      pz      :     0.007043  p :     0.039766
      px      :     0.018277
      py      :     0.014446

 10 H s       :     0.870434  s :     0.870434
      pz      :     0.020090  p :     0.039231
      px      :     0.013022
      py      :     0.006119

 11 H s       :     0.786391  s :     0.786391
      pz      :     0.019655  p :     0.079881
      px      :     0.030053
      py      :     0.030172

 12 H s       :     0.789288  s :     0.789288
      pz      :     0.042565  p :     0.079053
      px      :     0.023374
      py      :     0.013114



                      *****************************
                      * MAYER POPULATION ANALYSIS *
                      *****************************

  NA   - Mulliken gross atomic population
  ZA   - Total nuclear charge
  QA   - Mulliken gross atomic charge
  VA   - Mayer's total valence
  BVA  - Mayer's bonded valence
  FA   - Mayer's free valence

  ATOM       NA         ZA         QA         VA         BVA        FA
  0 C      5.4617     6.0000     0.5383     3.9689     3.9689    -0.0000
  1 O      8.4096     8.0000    -0.4096     2.1255     2.1255     0.0000
  2 O      8.4561     8.0000    -0.4561     2.0668     2.0668    -0.0000
  3 C      6.0884     6.0000    -0.0884     3.8286     3.8286    -0.0000
  4 H      0.6728     1.0000     0.3272     0.9334     0.9334    -0.0000
  5 C      6.3249     6.0000    -0.3249     3.8717     3.8717     0.0000
  6 H      0.8501     1.0000     0.1499     0.9607     0.9607    -0.0000
  7 N      7.6133     7.0000    -0.6133     2.9208     2.9208    -0.0000
  8 H      0.8889     1.0000     0.1111     0.9585     0.9585     0.0000
  9 H      0.8969     1.0000     0.1031     0.9554     0.9554     0.0000
 10 H      0.8546     1.0000     0.1454     0.9421     0.9421    -0.0000
 11 H      0.7406     1.0000     0.2594     0.9144     0.9144    -0.0000
 12 H      0.7421     1.0000     0.2579     0.9147     0.9147    -0.0000

  Mayer bond orders larger than 0.100000
B(  0-C ,  1-O ) :   1.9265 B(  0-C ,  2-O ) :   1.1316 B(  0-C ,  3-C ) :   0.9047 
B(  1-O ,  2-O ) :   0.1024 B(  2-O ,  4-H ) :   0.7848 B(  3-C ,  5-C ) :   1.0019 
B(  3-C ,  7-N ) :   0.9675 B(  3-C , 10-H ) :   0.9304 B(  4-H ,  7-N ) :   0.1275 
B(  5-C ,  6-H ) :   0.9410 B(  5-C ,  8-H ) :   0.9590 B(  5-C ,  9-H ) :   0.9565 
B(  7-N , 11-H ) :   0.9018 B(  7-N , 12-H ) :   0.9007 

-------
TIMINGS
-------

Total SCF time: 0 days 0 hours 0 min 2 sec 

Total time                  ....       2.676 sec
Sum of individual times     ....       2.488 sec  ( 93.0%)

SCF preparation             ....       0.022 sec  (  0.8%)
Fock matrix formation       ....       2.445 sec  ( 91.4%)
  Startup                   ....       0.000 sec  (  0.0% of F)
  Split-RI-J                ....       0.646 sec  ( 26.4% of F)
  XC integration            ....       1.977 sec  ( 80.9% of F)
    XC Preparation          ....       0.000 sec  (  0.0% of XC)
    Basis function eval.    ....       0.681 sec  ( 34.4% of XC)
    Density eval.           ....       0.382 sec  ( 19.3% of XC)
    XC-Functional eval.     ....       0.447 sec  ( 22.6% of XC)
    XC-Potential eval.      ....       0.416 sec  ( 21.0% of XC)
Diagonalization             ....       0.000 sec  (  0.0%)
Density matrix formation    ....       0.002 sec  (  0.1%)
Total Energy calculation    ....       0.000 sec  (  0.0%)
Population analysis         ....       0.001 sec  (  0.1%)
Orbital Transformation      ....       0.002 sec  (  0.1%)
Orbital Orthonormalization  ....       0.000 sec  (  0.0%)
DIIS solution               ....       0.009 sec  (  0.4%)
SOSCF solution              ....       0.005 sec  (  0.2%)
Finished LeanSCF after   2.7 sec

Maximum memory used throughout the entire LEANSCF-calculation: 12.8 MB



-------------------------------------------------------------------------------
                          DFT DISPERSION CORRECTION                            
-------------------------------------------------------------------------------
Active option DFTDOPT                   ...         2   
Final C6-coefficient scaling factor     ...     1.250
Final VDW-radii scaling factor          ...     1.100
Damping factor alpha                    ...    20.000
-------------------------   ----------------
Dispersion correction           -0.013118655
-------------------------   ----------------


-------------------------   --------------------
FINAL SINGLE POINT ENERGY      -323.543680476399
-------------------------   --------------------


------------------------------------------------------------------------------
                              ORCA PROPERTY CALCULATIONS
------------------------------------------------------------------------------

GBWName                                 ... 5.gbw
Number of atoms                         ...     13
Number of basis functions               ...    119
Max core memory                         ...   4096 MB

Electric properties:
Dipole moment                           ... YES
Quadrupole moment                       ...  NO
Static polarizability (Dipole/Dipole)   ...  NO
Static polarizability (Dipole/Quad.)    ...  NO
Static polarizability (Quad./Quad.)     ...  NO
Static polarizability (Velocity)        ...  NO
Static hyperpolarizability              ...  NO

Atomic electric properties:
Dipole moment                           ...  NO
Quadrupole moment                       ...  NO
Static polarizability                   ...  NO

Choice of electric origin               ... Center of mass
Position of electric origin             ...    -9.726853     0.063656    -3.880731

General magnetic properties:
Magnetizability                         ...  NO

EPR properties:
g-Tensor (aka g-matrix)                 ...  NO
Zero-Field splitting spin-orbit         ...  NO
Zero-field splitting spin-spin          ...  NO
Hyperfine couplings                     ...  NO (   0 nuclei)
Quadrupole couplings                    ...  NO (   0 nuclei)
Contact density                         ...  NO (   0 nuclei)

NMR properties:
Chemical shifts                         ...  NO (   0 nuclei)
Spin-rotation constants                 ...  NO (   0 nuclei)
Spin-spin couplings                     ...  NO (   0 nuclei,    0 pairs)

Choice of magnetic origin               ... GIAO
Position of magnetic origin             ...     0.000000     0.000000     0.000000

Properties with geometric perturbations:
SCF Hessian                             ...  NO
IR spectrum                             ...  NO
VCD spectrum                            ...  NO
X-ray spectroscopy properties:
SCF XES/XAS/RIXS spectra                ...  NO

SCF SOC stabilization energy            ...  NO
Diagonal Born-Oppenheimer correction    ...  NO

-------------
DIPOLE MOMENT
-------------

Method             : SCF
Type of density    : Electron Density
Multiplicity       :   1
Irrep              :   0
Energy             :  -323.5305618214227934 Eh
Basis              : AO
                                X                 Y                 Z
Electronic contribution:      4.356294878       3.918966434       2.408585021
Nuclear contribution   :     -5.087715700      -5.737619647      -2.595091665
                        -----------------------------------------
Total Dipole Moment    :     -0.731420822      -1.818653213      -0.186506645
                        -----------------------------------------
Magnitude (a.u.)       :      1.969076092
Magnitude (Debye)      :      5.004993673



--------------------
Rotational spectrum 
--------------------
 
Rotational constants in cm-1:             0.163425             0.116921             0.072891 
Rotational constants in MHz :          4899.363801          3505.203408          2185.209137 

Dipole components along the rotational axes: 
x,y,z [a.u.] :     1.823638     0.741477     0.042650 
x,y,z [Debye]:     4.635318     1.884684     0.108407 

 

Dipole moment calculation done in   0.0 sec 

Maximum memory used throughout the entire PROP-calculation: 7.1 MB

--------------------------------
SUGGESTED CITATIONS FOR THIS RUN
--------------------------------

Below you find a list of papers that are relevant to this ORCA run
We neither can nor want to force you to cite these papers, but we appreciate if you do
You receive ORCA, which is the product of decades of hard work by many enthusiastic individuals, for free
The only thing we kindly ask in return is that you cite our papers,
We deeply appreciate it, if you show your appreciation for ORCA by not just citing the generic ORCA reference.

Please note that relegating all ORCA citations to the supporting information does *not* help us.
SI sections are not indexed - citations you put there will not count into any citation statistics
But we need these citations in order to attract the funding resources that allow us to do what we are doing

Therefore, if you are a happy ORCA user, please consider citing a few of the papers listed below in the main body of your paper

In addition to the list printed below, the program has created the file 5.bibtex that contains the list in bibtex format
You can import this file easily into all common literature databanks and citation aid programs


List of essential papers. We consider these as the minimum necessary citations

  1. Neese, F.
     Software update: the ORCA program system, version 6.0
     WIRES Comput. Molec. Sci. 2025 15(1), e70019
     doi.org/10.1002/wcms.7019

List of papers to cite with high priority. The work reported in these papers was absolutely
necessary for this run to complete.
Our perspective: the developers of density functionals and basis sets usually get cited in chemistry papers
Good! But without the algorithms to do something with them, the functionals or basis sets would not do anything.
Hence, in our opinion, the algorithm design and method developments papers are equally worthy of getting cited

  1. Neese, F.
     An improvement of the resolution of the identity approximation for the formation of the Coulomb matrix
     J. Comp. Chem. 2003 24(14), 1740-1747
     doi.org/10.1002/jcc.10318
  2. Grimme, S.
     Semiempirical GGA-type density functional constructed with a long-range dispersion correction
     J.Comput.Chem. 2006 27(15), 1787-1799
     doi.org/10.1002/jcc.20495
  3. Neese, F.
     The SHARK Integral Generation and Digestion System
     J. Comp. Chem. 2022 44(3), 381
     doi.org/10.1002/jcc.26942

List of suggested additional citations. These are papers that are important in the 'surrounding' of 
of this run, or papers that preceded the highly important papers. If you like your results we are grateful for a citation.

  1. Neese, F.
     The ORCA program system
     WIRES Comput. Molec. Sci. 2012 2(1), 73-78
     doi.org/10.1002/wcms.81
  2. Neese, F.
     Software update: the ORCA program system, version 4.0
     WIRES Comput. Molec. Sci. 2018 8(1), 1-6
     doi.org/10.1002/wcms.1327
  3. Neese, F.; Wennmohs, F.; Becker, U.; Riplinger, C.
     The ORCA quantum chemistry program package
     J. Chem. Phys. 2020 152(22), 224108
     doi.org/10.1063/5.0004608
  4. Neese, F.
     Software update: The ORCA program system—Version 5.0
     WIRES Comput. Molec. Sci. 2022 12(1), e1606
     doi.org/10.1002/wcms.1606

List of optional additional citations

  1. Neese, F.
     Approximate second-order SCF convergence for spin unrestricted wavefunctions
     Chem. Phys. Lett. 2000 325(1-3), 93-98
     doi.org/10.1016/s0009-2614(00)00662-x

Timings for individual modules:

Sum of individual times          ...        3.103 sec (=   0.052 min)
Startup calculation              ...        0.243 sec (=   0.004 min)   7.8 %
SCF iterations                   ...        2.831 sec (=   0.047 min)  91.2 %
Property calculations            ...        0.029 sec (=   0.000 min)   0.9 %
                             ****ORCA TERMINATED NORMALLY****
TOTAL RUN TIME: 0 days 0 hours 0 minutes 3 seconds 140 msec
