
                                 *****************
                                 * O   R   C   A *
                                 *****************

                                            #,                                       
                                            ###                                      
                                            ####                                     
                                            #####                                    
                                            ######                                   
                                           ########,                                 
                                     ,,################,,,,,                         
                               ,,#################################,,                 
                          ,,##########################################,,             
                       ,#########################################, ''#####,          
                    ,#############################################,,   '####,        
                  ,##################################################,,,,####,       
                ,###########''''           ''''###############################       
              ,#####''   ,,,,##########,,,,          '''####'''          '####       
            ,##' ,,,,###########################,,,                        '##       
           ' ,,###''''                  '''############,,,                           
         ,,##''                                '''############,,,,        ,,,,,,###''
      ,#''                                            '''#######################'''  
     '                                                          ''''####''''         
             ,#######,   #######,   ,#######,      ##                                
            ,#'     '#,  ##    ##  ,#'     '#,    #''#        ,####,    ,#,          
            ##       ##  ##   ,#'  ##            #'  '#       #'       ,# #          
            ##       ##  #######   ##           ,######,      #####,      #          
            '#,     ,#'  ##    ##  '#,     ,#' ,#      #,     #,   #      #          
             '#######'   ##     ##  '#######'  #'      '#     '####' #    #          



                #########################################################
                #                        -***-                          #
                #          Department of theory and spectroscopy        #
                #                                                       #
                #                      Frank Neese                      #
                #                                                       #
                #     Directorship, Architecture, Infrastructure        #
                #                    SHARK, DRIVERS                     #
                #        Core code/Algorithms in most modules           #
                #                                                       #
                #        Max Planck Institute fuer Kohlenforschung      #
                #                Kaiser Wilhelm Platz 1                 #
                #                 D-45470 Muelheim/Ruhr                 #
                #                      Germany                          #
                #                                                       #
                #                  All rights reserved                  #
                #                        -***-                          #
                #########################################################


                         Program Version 6.1.0  -  RELEASE   -
                                (GIT: $679e74b$)
                          ($2025-06-10 18:02:51 +0200$)


 With contributions from (in alphabetic order):
[Max-Planck-Institut fuer Kohlenforschung]                               
  Daniel Aravena         : Magnetic Suceptibility                        
  Michael Atanasov       : Ab Initio Ligand Field Theory (pilot matlab implementation)
  Alexander A. Auer      : GIAO ZORA, VPT2 properties, NMR spectrum      
  Ute Becker             : All parallelization in ORCA, NUMFREQ, NUMCALC 
  Giovanni Bistoni       : ED, misc. LED, open-shell LED, HFLD           
  Dmytro Bykov           : pre 5.0 version of the SCF Hessian            
  Marcos Casanova-Páez   : Triplet and SCS-CIS(D). UHF-(DLPNO)-IP/EA/STEOM-CCSD. UHF-CVS-IP/STEOM-CCSD   
  Vijay G. Chilkuri      : MRCI spin determinant printing, contributions to CSF-ICE 
  Pauline Colinet        : FMM embedding                                 
  Dipayan Datta          : RHF DLPNO-CCSD density                        
  Achintya Kumar Dutta   : EOM-CC, STEOM-CC                              
  Nicolas Foglia         : Exact transition moments, OPA infrastructure, MCD improvements    
  Dmitry Ganyushin       : Spin-Orbit,Spin-Spin,Magnetic field MRCI      
  Miquel Garcia-Rates    : C-PCM and meta-GGA Hessian, CCSD/C-PCM, Gaussian charge scheme 
  Tiago L. C. Gouveia    : GS-ROHF, GS-ROCIS                             
  Yang Guo               : DLPNO-NEVPT2, F12-NEVPT2, CIM, IAO-localization        
  Andreas Hansen         : Spin unrestricted coupled pair/coupled cluster methods 
  Ingolf Harden          : AUTO-CI MPn and infrastructure                
  Benjamin Helmich-Paris : MC-RPA, TRAH-(SCF,CASSCF), AVAS, COSX integrals, SCF dyn. polar., MC-PDFT, srDFT 
  Lee Huntington         : MR-EOM, pCC                                   
  Robert Izsak           : Overlap fitted RIJCOSX, COSX-SCS-MP3, EOM     
  Riya Kayal             : Wick's Theorem for AUTO-CI, AUTO-CI UHF-CCSDT 
  Emily Kempfer          : AUTO-CI RHF CISDT and CCSDT, approximate NEVPT4
  Christian Kollmar      : KDIIS, OOCD, Brueckner-CCSD(T), CCSD density, CASPT2, CASPT2-K, improved NEVPT2 
  Axel Koslowski         : Symmetry handling                             
  Simone Kossmann        : meta-GGA functionals, TD-DFT gradient, OOMP2, (MP2 Hessian; deprecated post 5.0) 
  Lucas Lang             : DCDCAS, Hyperfine gauge corrections, ICE-SOC+SSC
  Marvin Lechner         : AUTO-CI (C++ implementation), FIC-MRCC        
  Spencer Leger          : CASSCF response                               
  Dagmar Lenk            : GEPOL surface, SMD, ORCA-2-JSON               
  Dimitrios Liakos       : Extrapolation schemes; Compound Job, Property file
  Dimitrios Manganas     : Further ROCIS development; embedding schemes. LFT, Crystal Embedding 
  Dimitrios Pantazis     : SARC Basis sets                               
  Anastasios Papadopoulos: AUTO-CI, single reference methods and gradients 
  Taras Petrenko         : pre 6.0 DFT Hessian and TD-DFT gradient,  ECA, NRVS 
  Petra Pikulova         : Analytic Raman intensities                    
  Peter Pinski           : DLPNO-MP2, DLPNO-MP2 Gradient                 
  Shashank Vittal Rao    : ES-AILFT, MagRelax                            
  Christoph Reimann      : Effective Core Potentials                     
  Marius Retegan         : Local ZFS, SOC                                
  Christoph Riplinger    : Optimizer, TS searches, QM/MM, DLPNO-CCSD(T), (RO)-DLPNO pert. Triples 
  Michael Roemelt        : Original ROCIS implementation, recursive CI coupling coefficients
  Masaaki Saitow         : Open-shell DLPNO-CCSD energy and density      
  Barbara Sandhoefer     : DKH picture change effects                    
  Yorick L. A. Schmerwitz: GMF and freeze-and-release deltaSCF, NEB S-IDPP initial path                    
  Kantharuban Sivalingam : CASSCF convergence/infrastructure, NEVPT2, NEVPT3, NEVPT4(SD), FIC-MRCI and CEPA variants
  Bernardo de Souza      : ESD, SOC TD-DFT                               
  Georgi L. Stoychev     : AutoAux, RI-MP2 NMR, DLPNO-MP2 response, X2C  
  Van Anh Tran           : RI-MP2 g-tensors                              
  Willem Van den Heuvel  : Paramagnetic NMR                              
  Zikuan Wang            : NOTCH, Electric field optimization            
  Frank Wennmohs         : Technical directorship and infrastructure     
  Hang Xu                : AUTO-CI-Response properties                   
                                                                         
[FACCTs GmbH]                                                            
  Markus Bursch, Nicolas Foglia, Miquel Garcia-Rates, Ingolf Harden, Hagen Neugebauer, Anastasios Papadopoulos, 
  Christoph Riplinger, Bernardo de Souza, Georgi L. Stoychev                                                    
                                                                 
  APM, various basis sets, CI-OPT, improved COSX, DLPNO-Multilevel,           
  DOCKER, DRACO, updates on ESD, Fragmentator, GOAT, IRC, LR-CPCM, L-BFGS, MBIS, meta-GGA TD-DFT gradient, ML-optimized integration grids, 
  MM, NACMEs, nearIR, NEB, NEB-TS, NL-DFT gradient (VV10), 2- and 3-layer-ONIOM, interface openCOSMO-RS, QMMM,   
  Crystal-QMMM, RESP, rigid body optimization, SF, symmetry and pop. for TD-DFT, various functionals, SOLVATOR                                   
                                                                         
[Other institutions]                                                     
  V. Asgeirsson          : NEB                                           
  Christoph Bannwarth    : sTDA-DFT, sTD-DFT, PBEh-3c, B97-3c, D3        
  Giovanni Bistoni       : ETS/NOCV, ADLD/ADEX, COVALED                  
  Martin Brehm           : Molecular dynamics                            
  Ronald Cardenas        : ETS/NOCV                                      
  Martina Colucci        : COVALED                                       
  Sebastian Ehlert       : rSCAN, r2SCAN, r2SCAN-3c, D4, dhf basis sets  
  Marvin Friede          : D4 for Fr, Ra, Ac-Lr                          
  Lars Goerigk           : TD-DFT with DH, B97 family of functionals     
  Stefan Grimme          : VdW corrections, initial TS optimization, DFT functionals, gCP, sTDA/sTD-DF 
  Waldemar Hujo          : DFT-NL                                        
  H. Jonsson             : NEB                                           
  Holger Kruse           : gCP                                           
  Marcel Mueller         : wB97X-3c, vDZP basis set                      
  Hagen Neugebauer       : wr2SCAN, Native XTB                           
  Gianluca Regni         : ADLD/ADEX                                     
  Tobias Risthaus        : pre 6.0 range-separated hybrid DFT and stability analysis
  Lukas Wittmann         : regularized MP2, r2SCAN double-hybrids, wr2SCAN        
                                                                         
We gratefully acknowledge several colleagues who have allowed us to      
interface, adapt or use parts of their codes:                            
  Ed Valeev, F. Pavosevic, A. Kumar             : LibInt (2-el integral package), F12 methods 
  Garnet Chan, S. Sharma, J. Yang, R. Olivares  : DMRG                   
  Ulf Ekstrom                                   : XCFun DFT Library      
  Mihaly Kallay                                 : mrcc  (arbitrary order and MRCC methods)
  Frank Weinhold                                : gennbo (NPA and NBO analysis)           
  Simon Mueller                                 : openCOSMO-RS                            
  Christopher J. Cramer and Donald G. Truhlar   : smd solvation model                     
  S Lehtola, MJT Oliveira, MAL Marques          : LibXC Library                           
  Liviu Ungur et al                             : ANISO software                          


 Your calculation uses the libint2 library for the computation of 2-el integrals
 For citations please refer to: http://libint.valeyev.net

 Your ORCA version has been built with support for libXC version: 7.0.0
 For citations please refer to: https://libxc.gitlab.io

 This ORCA versions uses:
   CBLAS   interface :  Fast vector & matrix operations
   LAPACKE interface :  Fast linear algebra routines
   SCALAPACK package :  Parallel linear algebra routines
   Shared memory     :  Shared parallel matrices
   BLAS/LAPACK       :  OpenBLAS 0.3.29  USE64BITINT DYNAMIC_ARCH NO_AFFINITY Haswell SINGLE_THREADED
        Core in use  :  Haswell
   Copyright (c) 2011-2014, The OpenBLAS Project


  ***********************************
  * Starting time: Sat Aug 30 16:08:07 2025
  * Host name:     chemlab03
  * Process ID:    81602
  * Working dir.:  /home/vivek/mm-project/vivek/xtb-goat/B97-D-opt/i/0
  ***********************************



***************************************
The coordinates will be read from file: /home/vivek/mm-project/vivek/xtb-goat/xtb-goat/i/I_CONF/0.xyz
***************************************


Your calculation utilizes empirical dispersion correction


Warning: RI is on but no J-basis has been assigned. Assigning Def2/J (nothing to worry about!)
================================================================================

----- Orbital basis set information -----
Your calculation utilizes the basis: 6-31G**
   H-He, Li-Ne : W. J. Hehre, R. Ditchfield and J.A. Pople, J. Chem. Phys. 56, 2257 (1972).
                 Note: He and Ne are unpublished basis sets taken from the Gaussian program.
                 Note: Li and B from J. D. Dill and J. A. Pople, J. Chem. Phys. 62, 2921 (1975).
   Na - Ar     : M. M. Francl, W. J. Pietro, W. J. Hehre, J. S. Binkley, M. S. Gordon, 
                 D. J. DeFrees and J. A. Pople, J. Chem. Phys. 77, 3654 (1982).
   K - Zn      : V. A. Rassolov, J. A. Pople, M. A. Ratner, and T. L. Windus, J. Chem. Phys. 109, 1223 (1998).

----- AuxJ basis set information -----
Your calculation utilizes the auxiliary basis: def2/J
   H-Rn: F. Weigend, Phys. Chem. Chem. Phys. 8, 1057 (2006).
   Fr-Lr: K. Eichkorn, F. Weigend, O. Treutler, R. Ahlrichs; Theor. Chem. Acc. 97, 119 (1997).

================================================================================
                                        WARNINGS
                       Please study these warnings very carefully!
================================================================================


WARNING: Geometry Optimization
  ===> : Switching off AutoStart
         For restart on a previous wavefunction, please use MOREAD

INFO   : The exchange functional is Grimme's B97(-D)
         As described in S. Grimme, J. Comput. Chem. 27, 1787 (2006).
         Note that this functional defaults to a pure GGA. 

INFO   : The correlation functional is Grimme's B97(-D)
         As described in S. Grimme, J. Comput. Chem. 27, 1787 (2006).

================================================================================
                                       INPUT FILE
================================================================================
NAME = 0.inp
|  1> ! B97-D 6-31G** opt
|  2> 
|  3> * xyzfile 0 1 /home/vivek/mm-project/vivek/xtb-goat/xtb-goat/i/I_CONF/0.xyz
|  4> 
|  5>                          ****END OF INPUT****
================================================================================

                       *****************************
                       * Geometry Optimization Run *
                       *****************************

Geometry optimization settings:
Update method            Update   .... BFGS
Choice of coordinates    CoordSys .... (2022) Redundant Internals
Initial Hessian          InHess   .... Almloef's Model
Max. no of cycles        MaxIter  .... 66

Convergence Tolerances:
Energy Change            TolE     ....  5.0000e-06 Eh
Max. Gradient            TolMAXG  ....  3.0000e-04 Eh/bohr
RMS Gradient             TolRMSG  ....  1.0000e-04 Eh/bohr
Max. Displacement        TolMAXD  ....  4.0000e-03 bohr
RMS Displacement         TolRMSD  ....  2.0000e-03 bohr
Strict Convergence                .... False

------------------------------------------------------------------------------
                        ORCA OPTIMIZATION COORDINATE SETUP
------------------------------------------------------------------------------

The optimization will be done in redundant internal coordinates (2022)
Making redundant internal coordinates   ...  (2022 redundants) done
Evaluating the initial hessian          ...  (Almloef) done
Evaluating the coordinates              ...  done
Calculating the B-matrix                .... done
Calculating the G-matrix                .... done
The number of degrees of freedom        ....   94

    -----------------------------------------------------------------
                    Redundant Internal Coordinates


    -----------------------------------------------------------------
         Definition                    Initial Value    Approx d2E/dq
    -----------------------------------------------------------------
      1. B(C   1,C   0)                  1.5246         0.381099   
      2. B(C   2,C   0)                  1.5345         0.367489   
      3. B(C   5,C   2)                  1.5476         0.350234   
      4. B(C   7,C   2)                  1.5253         0.380071   
      5. B(C   8,C   5)                  1.5227         0.383760   
      6. B(H   9,C   7)                  1.0863         0.365008   
      7. B(N  10,H   3)                  1.0144         0.425709   
      8. B(N  10,C   5)                  1.4489         0.450796   
      9. B(N  10,H   4)                  1.0152         0.424521   
     10. B(O  11,C   8)                  1.3379         0.677713   
     11. B(O  11,H   6)                  0.9709         0.499570   
     12. B(H  12,C   1)                  1.0875         0.363363   
     13. B(O  13,C   8)                  1.2038         1.109021   
     14. B(H  14,C   2)                  1.0951         0.353383   
     15. B(H  15,C   7)                  1.0861         0.365248   
     16. B(H  16,C   7)                  1.0872         0.363823   
     17. B(H  17,C   5)                  1.0966         0.351463   
     18. B(H  18,C   0)                  1.0929         0.356222   
     19. B(H  19,C   0)                  1.0911         0.358608   
     20. B(H  20,C   1)                  1.0881         0.362610   
     21. B(H  21,C   1)                  1.0868         0.364406   
     22. A(H  18,C   0,H  19)          107.9003         0.290156   
     23. A(C   1,C   0,C   2)          112.4953         0.363570   
     24. A(C   1,C   0,H  19)          109.3371         0.325161   
     25. A(C   2,C   0,H  18)          109.4178         0.322872   
     26. A(C   2,C   0,H  19)          109.1432         0.323225   
     27. A(C   1,C   0,H  18)          108.4398         0.324805   
     28. A(C   0,C   1,H  20)          110.5787         0.325755   
     29. A(H  20,C   1,H  21)          108.3670         0.291702   
     30. A(C   0,C   1,H  12)          110.1880         0.325866   
     31. A(H  12,C   1,H  20)          108.3328         0.291570   
     32. A(H  12,C   1,H  21)          108.1258         0.291797   
     33. A(C   0,C   1,H  21)          111.1584         0.326020   
     34. A(C   0,C   2,C   7)          111.5498         0.363402   
     35. A(C   0,C   2,C   5)          111.3093         0.358371   
     36. A(C   5,C   2,H  14)          106.9449         0.319921   
     37. A(C   0,C   2,H  14)          108.6367         0.322449   
     38. A(C   5,C   2,C   7)          108.9391         0.360431   
     39. A(C   7,C   2,H  14)          109.3380         0.324234   
     40. A(C   8,C   5,H  17)          107.1982         0.324458   
     41. A(C   2,C   5,H  17)          107.7481         0.319637   
     42. A(N  10,C   5,H  17)          108.3718         0.331187   
     43. A(C   2,C   5,C   8)          109.6101         0.361025   
     44. A(C   8,C   5,N  10)          112.4720         0.374649   
     45. A(C   2,C   5,N  10)          111.2396         0.368799   
     46. A(C   2,C   7,H   9)          109.5156         0.325964   
     47. A(H  15,C   7,H  16)          108.3468         0.291961   
     48. A(H   9,C   7,H  16)          108.5485         0.291931   
     49. A(C   2,C   7,H  16)          110.5131         0.325789   
     50. A(H   9,C   7,H  15)          109.1755         0.292110   
     51. A(C   2,C   7,H  15)          110.6955         0.325999   
     52. A(C   5,C   8,O  13)          124.6139         0.439204   
     53. A(C   5,C   8,O  11)          112.7491         0.402263   
     54. A(O  11,C   8,O  13)          122.6361         0.484035   
     55. A(H   3,N  10,H   4)          106.7475         0.301547   
     56. A(H   4,N  10,C   5)          109.4157         0.338819   
     57. A(H   3,N  10,C   5)          110.0351         0.338977   
     58. A(H   6,O  11,C   8)          110.4231         0.373252   
     59. D(H  20,C   1,C   0,H  19)    179.4887         0.011572   
     60. D(H  12,C   1,C   0,H  18)    -57.6594         0.011572   
     61. D(H  12,C   1,C   0,H  19)     59.7519         0.011572   
     62. D(H  12,C   1,C   0,C   2)   -178.8165         0.011572   
     63. D(H  20,C   1,C   0,H  18)     62.0775         0.011572   
     64. D(H  20,C   1,C   0,C   2)    -59.0797         0.011572   
     65. D(C   5,C   2,C   0,C   1)    160.7542         0.010805   
     66. D(C   7,C   2,C   0,H  19)     44.2078         0.010805   
     67. D(C   7,C   2,C   0,H  18)    162.0694         0.010805   
     68. D(C   7,C   2,C   0,C   1)    -77.3344         0.010805   
     69. D(C   5,C   2,C   0,H  18)     40.1580         0.010805   
     70. D(C   5,C   2,C   0,H  19)    -77.7036         0.010805   
     71. D(C   8,C   5,C   2,H  14)     53.8255         0.010000   
     72. D(C   8,C   5,C   2,C   7)    171.8942         0.010000   
     73. D(C   8,C   5,C   2,C   0)    -64.6923         0.010000   
     74. D(N  10,C   5,C   2,H  14)    178.8421         0.010000   
     75. D(N  10,C   5,C   2,C   7)    -63.0892         0.010000   
     76. D(N  10,C   5,C   2,C   0)     60.3243         0.010000   
     77. D(H  15,C   7,C   2,H  14)    -66.6217         0.011513   
     78. D(H  15,C   7,C   2,C   5)    176.8283         0.011513   
     79. D(H  15,C   7,C   2,C   0)     53.5582         0.011513   
     80. D(H   9,C   7,C   2,H  14)    172.9529         0.011513   
     81. D(H   9,C   7,C   2,C   5)     56.4029         0.011513   
     82. D(H   9,C   7,C   2,C   0)    -66.8672         0.011513   
     83. D(O  13,C   8,C   5,N  10)     -9.3670         0.010976   
     84. D(O  13,C   8,C   5,C   2)    114.9346         0.010976   
     85. D(O  11,C   8,C   5,H  17)     51.2680         0.010976   
     86. D(O  11,C   8,C   5,N  10)    170.2854         0.010976   
     87. D(O  11,C   8,C   5,C   2)    -65.4130         0.010976   
     88. D(H   3,N  10,C   5,C   8)    -63.5557         0.017337   
     89. D(H   3,N  10,C   5,C   2)    173.0474         0.017337   
     90. D(H   4,N  10,C   5,C   8)     53.4283         0.017337   
     91. D(H   4,N  10,C   5,C   2)    -69.9686         0.017337   
     92. D(H   3,N  10,C   5,H  17)     54.7732         0.017337   
     93. D(H   6,O  11,C   8,O  13)     -0.8147         0.034189   
     94. D(H   6,O  11,C   8,C   5)    179.5250         0.034189   
    -----------------------------------------------------------------

Number of atoms                         .... 22
Number of degrees of freedom            .... 94


         *************************************************************
         *                GEOMETRY OPTIMIZATION CYCLE   1            *
         *************************************************************
---------------------------------
CARTESIAN COORDINATES (ANGSTROEM)
---------------------------------
  C     -9.138920    4.405271   -0.783659
  C    -10.571550    4.347351   -0.265455
  C     -8.131090    4.766299    0.315676
  H     -5.293806    4.850676   -1.477766
  H     -6.794588    4.672131   -2.085228
  C     -6.692374    4.360846   -0.085140
  H     -6.731524    1.258861    0.844065
  C     -8.155472    6.258681    0.629941
  C     -6.603634    2.845650   -0.207019
  H     -7.787326    6.816005   -0.226762
  N     -6.273664    5.039215   -1.294963
  O     -6.787475    2.220971    0.961687
  H    -11.250123    4.068813   -1.068392
  O     -6.386041    2.253683   -1.232383
  H     -8.381833    4.201211    1.219614
  H     -9.165015    6.585782    0.861282
  H     -7.520257    6.478500    1.484449
  H     -6.021554    4.660494    0.728961
  H     -8.883717    3.429322   -1.204289
  H     -9.074071    5.143122   -1.584868
  H    -10.661149    3.609937    0.529639
  H    -10.886899    5.311465    0.124539

----------------------------
CARTESIAN COORDINATES (A.U.)
----------------------------
  NO LB      ZA    FRAG     MASS         X           Y           Z
   0 C     6.0000    0    12.011  -17.270055    8.324755   -1.480902
   1 C     6.0000    0    12.011  -19.977334    8.215303   -0.501637
   2 C     6.0000    0    12.011  -15.365533    9.007000    0.596541
   3 H     1.0000    0     1.008  -10.003844    9.166449   -2.792574
   4 H     1.0000    0     1.008  -12.839911    8.829049   -3.940510
   5 C     6.0000    0    12.011  -12.646754    8.240805   -0.160892
   6 H     1.0000    0     1.008  -12.720738    2.378902    1.595051
   7 C     6.0000    0    12.011  -15.411608   11.827194    1.190416
   8 C     6.0000    0    12.011  -12.479059    5.377499   -0.391209
   9 H     1.0000    0     1.008  -14.715913   12.880382   -0.428517
  10 N     7.0000    0    14.007  -11.855508    9.522736   -2.447126
  11 O     8.0000    0    15.999  -12.826469    4.197028    1.817326
  12 H     1.0000    0     1.008  -21.259652    7.688942   -2.018969
  13 O     8.0000    0    15.999  -12.067869    4.258843   -2.328867
  14 H     1.0000    0     1.008  -15.839370    7.939138    2.304737
  15 H     1.0000    0     1.008  -17.319369   12.445324    1.627587
  16 H     1.0000    0     1.008  -14.211226   12.242591    2.805203
  17 H     1.0000    0     1.008  -11.379087    8.807058    1.377537
  18 H     1.0000    0     1.008  -16.787793    6.480480   -2.275777
  19 H     1.0000    0     1.008  -17.147509    9.719091   -2.994967
  20 H     1.0000    0     1.008  -20.146651    6.821792    1.000872
  21 H     1.0000    0     1.008  -20.573258   10.037215    0.235344

--------------------------------
INTERNAL COORDINATES (ANGSTROEM)
--------------------------------
 C      0   0   0     0.000000000000     0.00000000     0.00000000
 C      1   0   0     1.524571956989     0.00000000     0.00000000
 C      1   2   0     1.534470850647   112.49532690     0.00000000
 H      3   1   2     3.357637999727   100.26770050   182.31457355
 H      4   3   1     1.628875308471    54.39961357     6.85922078
 C      3   1   2     1.547562167827   111.30932479   160.75420795
 H      6   3   1     3.238405171084    99.52067749   275.48661081
 C      3   1   2     1.525307229456   111.54975449   282.66562573
 C      6   3   1     1.522677928199   109.61013718   295.30770923
 H      8   3   1     1.086314993526   109.51562380   293.13284639
 N      4   3   1     1.014438805809    24.79691856    43.41728583
 O      7   6   3     0.970887586709    23.97023430   298.86823080
 H      2   1   3     1.087544844980   110.18798551   181.18350398
 O      9   6   3     1.203803700016   124.61388226   114.93456501
 H      3   1   2     1.095125901467   108.63669848    43.25710556
 H      8   3   1     1.086135961238   110.69546459    53.55823161
 H      8   3   1     1.087199860225   110.51306669   173.59813321
 H      6   3   1     1.096608750131   107.74805539   178.97367444
 H      1   2   3     1.092947212793   108.43978738   121.15714376
 H      1   2   3     1.091129917421   109.33711424   238.56835070
 H      2   1   3     1.088109516706   110.57872135   300.92031306
 H      2   1   3     1.086764024119   111.15835783    61.33298173

---------------------------
INTERNAL COORDINATES (A.U.)
---------------------------
 C      0   0   0     0.000000000000     0.00000000     0.00000000
 C      1   0   0     2.881023470165     0.00000000     0.00000000
 C      1   2   0     2.899729668209   112.49532690     0.00000000
 H      3   1   2     6.345016276331   100.26770050   182.31457355
 H      4   3   1     3.078128239316    54.39961357     6.85922078
 C      3   1   2     2.924468672410   111.30932479   160.75420795
 H      6   3   1     6.119698884024    99.52067749   275.48661081
 C      3   1   2     2.882412933763   111.54975449   282.66562573
 C      6   3   1     2.877444274463   109.61013718   295.30770923
 H      8   3   1     2.052837832936   109.51562380   293.13284639
 N      4   3   1     1.917011522601    24.79691856    43.41728583
 O      7   6   3     1.834711645705    23.97023430   298.86823080
 H      2   1   3     2.055161915370   110.18798551   181.18350398
 O      9   6   3     2.274859312032   124.61388226   114.93456501
 H      3   1   2     2.069488035936   108.63669848    43.25710556
 H      8   3   1     2.052499510944   110.69546459    53.55823161
 H      8   3   1     2.054509988662   110.51306669   173.59813321
 H      6   3   1     2.072290213810   107.74805539   178.97367444
 H      1   2   3     2.065370911010   108.43978738   121.15714376
 H      1   2   3     2.061936720453   109.33711424   238.56835070
 H      2   1   3     2.056228990289   110.57872135   300.92031306
 H      2   1   3     2.053686377783   111.15835783    61.33298173

---------------------
BASIS SET INFORMATION
---------------------
There are 4 groups of distinct atoms

 Group   1 Type C   : 10s4p1d contracted to 3s2p1d pattern {631/31/1}
 Group   2 Type H   : 4s1p contracted to 2s1p pattern {31/1}
 Group   3 Type N   : 10s4p1d contracted to 3s2p1d pattern {631/31/1}
 Group   4 Type O   : 10s4p1d contracted to 3s2p1d pattern {631/31/1}

Atom   0C    basis set group =>   1
Atom   1C    basis set group =>   1
Atom   2C    basis set group =>   1
Atom   3H    basis set group =>   2
Atom   4H    basis set group =>   2
Atom   5C    basis set group =>   1
Atom   6H    basis set group =>   2
Atom   7C    basis set group =>   1
Atom   8C    basis set group =>   1
Atom   9H    basis set group =>   2
Atom  10N    basis set group =>   3
Atom  11O    basis set group =>   4
Atom  12H    basis set group =>   2
Atom  13O    basis set group =>   4
Atom  14H    basis set group =>   2
Atom  15H    basis set group =>   2
Atom  16H    basis set group =>   2
Atom  17H    basis set group =>   2
Atom  18H    basis set group =>   2
Atom  19H    basis set group =>   2
Atom  20H    basis set group =>   2
Atom  21H    basis set group =>   2
---------------------------------
AUXILIARY/J BASIS SET INFORMATION
---------------------------------
There are 4 groups of distinct atoms

 Group   1 Type C   : 12s5p4d2f1g contracted to 6s4p3d1f1g pattern {711111/2111/211/2/1}
 Group   2 Type H   : 5s2p1d contracted to 3s1p1d pattern {311/2/1}
 Group   3 Type N   : 12s5p4d2f1g contracted to 6s4p3d1f1g pattern {711111/2111/211/2/1}
 Group   4 Type O   : 12s5p4d2f1g contracted to 6s4p3d1f1g pattern {711111/2111/211/2/1}

Atom   0C    basis set group =>   1
Atom   1C    basis set group =>   1
Atom   2C    basis set group =>   1
Atom   3H    basis set group =>   2
Atom   4H    basis set group =>   2
Atom   5C    basis set group =>   1
Atom   6H    basis set group =>   2
Atom   7C    basis set group =>   1
Atom   8C    basis set group =>   1
Atom   9H    basis set group =>   2
Atom  10N    basis set group =>   3
Atom  11O    basis set group =>   4
Atom  12H    basis set group =>   2
Atom  13O    basis set group =>   4
Atom  14H    basis set group =>   2
Atom  15H    basis set group =>   2
Atom  16H    basis set group =>   2
Atom  17H    basis set group =>   2
Atom  18H    basis set group =>   2
Atom  19H    basis set group =>   2
Atom  20H    basis set group =>   2
Atom  21H    basis set group =>   2
------------------------------------------------------------------------------
                             ORCA STARTUP CALCULATIONS
                           -- RI-GTO INTEGRALS CHOSEN --
------------------------------------------------------------------------------
------------------------------------------------------------------------------
                   ___                                                        
                  /   \      - P O W E R E D   B Y -                         
                 /     \                                                     
                 |  |  |   _    _      __       _____    __    __             
                 |  |  |  | |  | |    /  \     |  _  \  |  |  /  |          
                  \  \/   | |  | |   /    \    | | | |  |  | /  /          
                 / \  \   | |__| |  /  /\  \   | |_| |  |  |/  /          
                |  |  |   |  __  | /  /__\  \  |    /   |      \           
                |  |  |   | |  | | |   __   |  |    \   |  |\   \          
                \     /   | |  | | |  |  |  |  | |\  \  |  | \   \       
                 \___/    |_|  |_| |__|  |__|  |_| \__\ |__|  \__/        
                                                                              
                      - O R C A' S   B I G   F R I E N D -                    
                                      &                                       
                       - I N T E G R A L  F E E D E R -                       
                                                                              
 v1 FN, 2020, v2 2021, v3 2022-2024                                           
------------------------------------------------------------------------------


----------------------
SHARK INTEGRAL PACKAGE
----------------------

Number of atoms                             ...     22
Number of basis functions                   ...    191
Number of shells                            ...     93
Maximum angular momentum                    ...      2
Integral batch strategy                     ... SHARK/LIBINT Hybrid
RI-J (if used) integral strategy            ... SPLIT-RIJ (Revised 2003 algorithm where possible)
Printlevel                                  ...      1
Contraction scheme used                     ... SEGMENTED contraction
Prescreening option                         ... SCHWARTZ
   Thresh                                   ... 2.500e-11
   Tcut                                     ... 2.500e-12
   Tpresel                                  ... 2.500e-12 
Coulomb Range Separation                    ... NOT USED
Exchange Range Separation                   ... NOT USED
Multipole approximations                    ... NOT USED
Finite Nucleus Model                        ... NOT USED
CABS basis                                  ... NOT available
Auxiliary Coulomb fitting basis             ... AVAILABLE
   # of basis functions in Aux-J            ...    584
   # of shells in Aux-J                     ...    200
   Maximum angular momentum in Aux-J        ...      4
Auxiliary J/K fitting basis                 ... NOT available
Auxiliary Correlation fitting basis         ... NOT available
Auxiliary 'external' fitting basis          ... NOT available

Checking pre-screening integrals            ... done (  0.0 sec) Dimension = 93
   => SHARK Basis and OBASIS are compatible. Storing Pre-screening
Shell pair information
Shell pair cut-off parameter TPreSel        ...   2.5e-12
Total number of shell pairs                 ...      4371
Shell pairs after pre-screening             ...      3972
Total number of primitive shell pairs       ...     20328
Primitive shell pairs kept                  ...     12355
          la=0 lb=0:   1311 shell pairs
          la=1 lb=0:   1482 shell pairs
          la=1 lb=1:    446 shell pairs
          la=2 lb=0:    434 shell pairs
          la=2 lb=1:    254 shell pairs
          la=2 lb=2:     45 shell pairs

Checking whether 4 symmetric matrices of dimension 191 fit in memory
:Max Core in MB      =   4096.00
 MB in use           =      8.70
 MB left             =   4087.30
 MB needed           =      0.56
 Data fit in memory  = YES
Calculating RI/J V-Matrix + Cholesky decomp.... done (  0.0 sec)
Calculating Nuclear repulsion               ... done (  0.0 sec) ENN=    494.580016194841 Eh

Diagonalization of the overlap matrix:
Smallest eigenvalue                        ... 2.759e-03
Time for diagonalization                   ...    0.002 sec
Threshold for overlap eigenvalues          ... 1.000e-07
Number of eigenvalues below threshold      ... 0
Time for construction of square roots      ...    0.001 sec
Total time needed                          ...    0.003 sec

-------------------
DFT GRID GENERATION
-------------------

General Integration Accuracy     IntAcc      ... 4.388
Radial Grid Type                 RadialGrid  ... OptM3 with GC (2021)
Angular Grid (max. ang.)         AngularGrid ... 4 (Lebedev-302)
Angular grid pruning method      GridPruning ... 4 (adaptive)
Weight generation scheme         WeightScheme... mBecke (2022)
Basis function cutoff            BFCut       ... 1.0000e-11
Integration weight cutoff        WCut        ... 1.0000e-14
Partially contracted basis set               ... off
Rotationally invariant grid construction     ... off
Angular grids for H and He will be reduced by one unit

Total number of grid points                  ...    95504
Total number of batches                      ...     1501
Average number of points per batch           ...       63
Average number of grid points per atom       ...     4341
Grids setup in   0.4 sec
Initializing property integral containers    ... done (  0.0 sec)

SHARK setup successfully completed in   0.5 seconds

Maximum memory used throughout the entire STARTUP-calculation: 40.6 MB
-------------------------------------------------------------------------------
                                 ORCA GUESS
                   Start orbitals & Density for SCF / CASSCF
-------------------------------------------------------------------------------

------------
SCF SETTINGS
------------
Hamiltonian:
 Density Functional     Method          .... DFT(GTOs)
 Exchange Functional    Exchange        .... B97(D)
 Correlation Functional Correlation     .... B97(D)
 Gradients option       PostSCFGGA      .... off
 RI-approximation to the Coulomb term is turned on
   Number of AuxJ basis functions       .... 584


General Settings:
 Integral files         IntName         .... 0
 Hartree-Fock type      HFTyp           .... RHF
 Total Charge           Charge          ....    0
 Multiplicity           Mult            ....    1
 Number of Electrons    NEL             ....   72
 Basis Dimension        Dim             ....  191
 Nuclear Repulsion      ENuc            ....    494.5800161948 Eh

Convergence Acceleration:
 AO-DIIS                CNVDIIS         .... on
   Start iteration      DIISMaxIt       ....    12
   Startup error        DIISStart       ....  0.200000
   # of expansion vecs  DIISMaxEq       ....     5
   Bias factor          DIISBfac        ....   1.050
   Max. coefficient     DIISMaxC        ....  10.000
 MO-DIIS                CNVKDIIS        .... off
 Trust-Rad. Augm. Hess. CNVTRAH         .... auto
   Auto Start mean grad. ratio tolernc. ....  1.125000
   Auto Start start iteration           ....    50
   Auto Start num. interpolation iter.  ....    10
   Max. Number of Micro iterations      ....    24
   Max. Number of Macro iterations      .... Maxiter - #DIIS iter
   Number of Davidson start vectors     ....     2
   Converg. threshold    (grad. norm)   ....   1.000e-05
   Grad. Scal. Fac. for Micro threshold ....   0.100
   Minimum threshold for Micro iter.    ....   1.000e-02
   NR start threshold (gradient norm)   ....   1.000e-04
   Initial trust radius                 ....   0.400
   Minimum AH scaling param. (alpha)    ....   1.000
   Maximum AH scaling param. (alpha)    .... 1000.000
   Quad. conv. algorithm                .... NR
   White noise on init. David. guess    .... on
   Maximum white noise                  ....   0.010
   Pseudo random numbers                .... off
   Inactive MOs                         .... canonical
   Orbital update algorithm             .... Taylor
   Preconditioner                       .... Diag
   Full preconditioner red. dimension   ....   250
 SOSCF                 CNVSOSCF           .... on
   Start iteration     SOSCFMaxIt         ....   150
   Startup grad/error  SOSCFStart         ....  0.003300
   Hessian update      SOSCFHessUp        .... L-BFGS
   Autom. constraints  SOSCFAutoConstrain .... off
 Level Shifting         CNVShift        .... on
   Level shift para.    LevelShift      ....    0.2500
   Turn off err/grad.   ShiftErr        ....    0.0010
 Zerner damping         CNVZerner       .... off
 Static damping         CNVDamp         .... on
   Fraction old density DampFac         ....    0.7000
   Max. Damping (<1)    DampMax         ....    0.9800
   Min. Damping (>=0)   DampMin         ....    0.0000
   Turn off err/grad.   DampErr         ....    0.1000

SCF Procedure:
 Maximum # iterations   MaxIter         ....   125
 SCF integral mode      SCFMode         .... Direct
   Integral package                     .... SHARK and LIBINT hybrid scheme
 Reset frequency        DirectResetFreq ....    20
 Integral Threshold     Thresh          ....  2.500e-11 Eh
 Primitive CutOff       TCut            ....  2.500e-12 Eh

Convergence Tolerance:
 Convergence Check Mode ConvCheckMode   .... Total+1el-Energy
 Convergence forced     ConvForced      .... 0
 Energy Change          TolE            ....  1.000e-08 Eh
 1-El. energy change                    ....  1.000e-05 Eh
 Orbital Gradient       TolG            ....  1.000e-05
 Orbital Rotation angle TolX            ....  1.000e-05
 DIIS Error             TolErr          ....  5.000e-07

------------------------------
INITIAL GUESS: MODEL POTENTIAL
------------------------------
Loading Hartree-Fock densities                     ... done
Calculating cut-offs                               ... done
Initializing the effective Hamiltonian             ... done
Setting up the integral package (SHARK)            ... done
Starting the Coulomb interaction                   ... done (   0.1 sec)
Making the grid                                    ... done (   0.1 sec)
Mapping shells                                     ... done
Starting the XC term evaluation                    ... done (   0.1 sec)
  promolecular density results
     # of electrons  =     71.999303467
     EX              =    -56.847288132
     EC              =     -3.118519034
     EX+EC           =    -59.965807166
Transforming the Hamiltonian                       ... done (   0.0 sec)
Diagonalizing the Hamiltonian                      ... done (   0.0 sec)
Back transforming the eigenvectors                 ... done (   0.0 sec)
Now organizing SCF variables                       ... done
                      ------------------
                      INITIAL GUESS DONE (   0.3 sec)
                      ------------------
             **** ENERGY FILE WAS UPDATED (0.en.tmp) ****
Finished Guess after   0.3 sec
Maximum memory used throughout the entire GUESS-calculation: 13.9 MB

-------------------------------------------------------------------------------------------
                                      ORCA LEAN-SCF
                              memory conserving SCF solver
-------------------------------------------------------------------------------------------

----------------------------------------D-I-I-S--------------------------------------------
Iteration    Energy (Eh)           Delta-E    RMSDP     MaxDP     DIISErr   Damp  Time(sec)
-------------------------------------------------------------------------------------------
               ***  Starting incremental Fock matrix formation  ***
    1    -441.0164426591832125     0.00e+00  3.59e-03  1.09e-01  2.59e-01  0.700   0.6
    2    -441.1957113529770140    -1.79e-01  2.35e-03  5.87e-02  9.62e-02  0.700   0.6
                               ***Turning on AO-DIIS***
    3    -441.2514223781037117    -5.57e-02  8.94e-04  1.55e-02  3.38e-02  0.700   0.5
    4    -441.2872470978251158    -3.58e-02  1.17e-03  1.92e-02  1.45e-02  0.000   0.5
    5    -441.3703163903421682    -8.31e-02  4.04e-04  8.15e-03  1.21e-02  0.000   0.5
    6    -441.3711995296683881    -8.83e-04  1.49e-04  2.85e-03  3.52e-03  0.000   0.5
                              *** Initializing SOSCF ***
---------------------------------------S-O-S-C-F--------------------------------------
Iteration    Energy (Eh)           Delta-E    RMSDP     MaxDP     MaxGrad    Time(sec)
--------------------------------------------------------------------------------------
    7    -441.3712700269020388    -7.05e-05  5.33e-05  1.36e-03  1.73e-03     0.5
               *** Restarting incremental Fock matrix formation ***
    8    -441.3712799650210172    -9.94e-06  3.45e-05  7.17e-04  1.16e-04     0.6
    9    -441.3712793862827084     5.79e-07  1.71e-05  6.42e-04  3.50e-04     0.5
   10    -441.3712807916995189    -1.41e-06  1.71e-05  5.22e-04  1.90e-04     0.5
   11    -441.3712806054685416     1.86e-07  8.87e-06  2.46e-04  1.33e-04     0.5
   12    -441.3712810537352880    -4.48e-07  4.00e-06  8.10e-05  1.21e-05     0.5
   13    -441.3712810453739621     8.36e-09  1.89e-06  4.24e-05  2.04e-05     0.5
                 **** Energy Check signals convergence ****

               *****************************************************
               *                     SUCCESS                       *
               *           SCF CONVERGED AFTER  13 CYCLES          *
               *****************************************************

             **** ENERGY FILE WAS UPDATED (0.en.tmp) ****

----------------
TOTAL SCF ENERGY
----------------

Total Energy       :       -441.37128106410125 Eh          -12010.32315 eV

Components:
Nuclear Repulsion  :        494.58001619484116 Eh           13458.20644 eV
Electronic Energy  :       -935.95129725894242 Eh          -25468.52959 eV
One Electron Energy:      -1581.20720120092142 Eh          -43026.83539 eV
Two Electron Energy:        645.25590394197900 Eh           17558.30579 eV

Virial components:
Potential Energy   :       -880.47736165899778 Eh          -23959.00706 eV
Kinetic Energy     :        439.10608059489658 Eh           11948.68391 eV
Virial Ratio       :          2.00515866340574

DFT components:
N(Alpha)           :       35.999985111672 electrons
N(Beta)            :       35.999985111672 electrons
N(Total)           :       71.999970223343 electrons
E(X)               :      -58.277560194634 Eh       
E(C)               :       -3.116154210276 Eh       
E(XC)              :      -61.393714404910 Eh       

---------------
SCF CONVERGENCE
---------------

  Last Energy change         ...   -8.3613e-09  Tolerance :   1.0000e-08
  Last MAX-Density change    ...    4.2426e-05  Tolerance :   1.0000e-07
  Last RMS-Density change    ...    1.8916e-06  Tolerance :   5.0000e-09
  Last DIIS Error            ...    1.7264e-03  Tolerance :   5.0000e-07
  Last Orbital Gradient      ...    2.0386e-05  Tolerance :   1.0000e-05
  Last Orbital Rotation      ...    2.1725e-05  Tolerance :   1.0000e-05


----------------
ORBITAL ENERGIES
----------------

  NO   OCC          E(Eh)            E(eV) 
   0   2.0000     -18.813105      -511.9306 
   1   2.0000     -18.752553      -510.2829 
   2   2.0000     -13.984739      -380.5441 
   3   2.0000     -10.025469      -272.8069 
   4   2.0000      -9.942948      -270.5614 
   5   2.0000      -9.910242      -269.6714 
   6   2.0000      -9.899936      -269.3910 
   7   2.0000      -9.893185      -269.2072 
   8   2.0000      -9.884688      -268.9760 
   9   2.0000      -1.019683       -27.7470 
  10   2.0000      -0.930406       -25.3176 
  11   2.0000      -0.815166       -22.1818 
  12   2.0000      -0.727094       -19.7852 
  13   2.0000      -0.664110       -18.0714 
  14   2.0000      -0.634086       -17.2543 
  15   2.0000      -0.572675       -15.5833 
  16   2.0000      -0.545872       -14.8539 
  17   2.0000      -0.497558       -13.5392 
  18   2.0000      -0.452574       -12.3152 
  19   2.0000      -0.443682       -12.0732 
  20   2.0000      -0.419876       -11.4254 
  21   2.0000      -0.410009       -11.1569 
  22   2.0000      -0.388581       -10.5738 
  23   2.0000      -0.382885       -10.4188 
  24   2.0000      -0.362663        -9.8686 
  25   2.0000      -0.353619        -9.6225 
  26   2.0000      -0.340959        -9.2780 
  27   2.0000      -0.329602        -8.9689 
  28   2.0000      -0.320254        -8.7146 
  29   2.0000      -0.312761        -8.5107 
  30   2.0000      -0.286557        -7.7976 
  31   2.0000      -0.279348        -7.6014 
  32   2.0000      -0.272432        -7.4132 
  33   2.0000      -0.270077        -7.3492 
  34   2.0000      -0.221827        -6.0362 
  35   2.0000      -0.194570        -5.2945 
  36   0.0000      -0.015721        -0.4278 
  37   0.0000       0.051163         1.3922 
  38   0.0000       0.066230         1.8022 
  39   0.0000       0.089542         2.4366 
  40   0.0000       0.098788         2.6882 
  41   0.0000       0.117990         3.2107 
  42   0.0000       0.131284         3.5724 
  43   0.0000       0.139558         3.7976 
  44   0.0000       0.143689         3.9100 
  45   0.0000       0.155419         4.2292 
  46   0.0000       0.160381         4.3642 
*Only the first 10 virtual orbitals were printed.

                    ********************************
                    * MULLIKEN POPULATION ANALYSIS *
                    ********************************

-----------------------
MULLIKEN ATOMIC CHARGES
-----------------------
   0 C :   -0.207602
   1 C :   -0.334041
   2 C :   -0.060059
   3 H :    0.245038
   4 H :    0.249737
   5 C :   -0.046972
   6 H :    0.317038
   7 C :   -0.323761
   8 C :    0.487150
   9 H :    0.134233
  10 N :   -0.554678
  11 O :   -0.453375
  12 H :    0.107593
  13 O :   -0.422521
  14 H :    0.106826
  15 H :    0.100654
  16 H :    0.098592
  17 H :    0.120688
  18 H :    0.106848
  19 H :    0.107643
  20 H :    0.108676
  21 H :    0.112295
Sum of atomic charges:   -0.0000000

--------------------------------
MULLIKEN REDUCED ORBITAL CHARGES
--------------------------------
  0 C s       :     3.229403  s :     3.229403
      pz      :     0.978980  p :     2.941213
      px      :     0.930352
      py      :     1.031881
      dz2     :     0.004924  d :     0.036985
      dxz     :     0.007959
      dyz     :     0.009973
      dx2y2   :     0.009295
      dxy     :     0.004834

  1 C s       :     3.248734  s :     3.248734
      pz      :     1.033619  p :     3.054851
      px      :     0.971244
      py      :     1.049988
      dz2     :     0.003012  d :     0.030456
      dxz     :     0.007809
      dyz     :     0.007942
      dx2y2   :     0.007213
      dxy     :     0.004480

  2 C s       :     3.213210  s :     3.213210
      pz      :     0.959191  p :     2.804320
      px      :     0.892351
      py      :     0.952778
      dz2     :     0.007263  d :     0.042529
      dxz     :     0.007633
      dyz     :     0.010035
      dx2y2   :     0.010523
      dxy     :     0.007076

  3 H s       :     0.731011  s :     0.731011
      pz      :     0.004725  p :     0.023951
      px      :     0.011265
      py      :     0.007961

  4 H s       :     0.726240  s :     0.726240
      pz      :     0.008780  p :     0.024023
      px      :     0.006876
      py      :     0.008367

  5 C s       :     3.200838  s :     3.200838
      pz      :     0.898276  p :     2.788956
      px      :     1.009738
      py      :     0.880941
      dz2     :     0.012346  d :     0.057179
      dxz     :     0.013096
      dyz     :     0.010609
      dx2y2   :     0.014923
      dxy     :     0.006204

  6 H s       :     0.645031  s :     0.645031
      pz      :     0.007442  p :     0.037931
      px      :     0.009334
      py      :     0.021155

  7 C s       :     3.241933  s :     3.241933
      pz      :     1.053656  p :     3.051679
      px      :     1.033579
      py      :     0.964443
      dz2     :     0.004727  d :     0.030148
      dxz     :     0.006204
      dyz     :     0.006946
      dx2y2   :     0.007371
      dxy     :     0.004901

  8 C s       :     2.992420  s :     2.992420
      pz      :     0.715737  p :     2.396253
      px      :     0.780913
      py      :     0.899603
      dz2     :     0.040498  d :     0.124176
      dxz     :     0.024632
      dyz     :     0.038153
      dx2y2   :     0.011169
      dxy     :     0.009725

  9 H s       :     0.853803  s :     0.853803
      pz      :     0.005273  p :     0.011964
      px      :     0.003334
      py      :     0.003357

 10 N s       :     3.587294  s :     3.587294
      pz      :     1.092047  p :     3.938872
      px      :     1.150374
      py      :     1.696451
      dz2     :     0.005074  d :     0.028512
      dxz     :     0.005392
      dyz     :     0.008376
      dx2y2   :     0.004933
      dxy     :     0.004738

 11 O s       :     3.824640  s :     3.824640
      pz      :     1.544198  p :     4.605968
      px      :     1.765628
      py      :     1.296143
      dz2     :     0.008139  d :     0.022767
      dxz     :     0.005133
      dyz     :     0.004756
      dx2y2   :     0.004166
      dxy     :     0.000572

 12 H s       :     0.880854  s :     0.880854
      pz      :     0.004601  p :     0.011552
      px      :     0.004056
      py      :     0.002895

 13 O s       :     3.859725  s :     3.859725
      pz      :     1.458128  p :     4.534790
      px      :     1.416414
      py      :     1.660248
      dz2     :     0.008025  d :     0.028007
      dxz     :     0.007728
      dyz     :     0.007434
      dx2y2   :     0.002101
      dxy     :     0.002718

 14 H s       :     0.881578  s :     0.881578
      pz      :     0.005264  p :     0.011596
      px      :     0.002602
      py      :     0.003730

 15 H s       :     0.887595  s :     0.887595
      pz      :     0.002891  p :     0.011751
      px      :     0.005913
      py      :     0.002947

 16 H s       :     0.889767  s :     0.889767
      pz      :     0.004997  p :     0.011641
      px      :     0.003952
      py      :     0.002693

 17 H s       :     0.868248  s :     0.868248
      pz      :     0.004414  p :     0.011065
      px      :     0.003918
      py      :     0.002732

 18 H s       :     0.881440  s :     0.881440
      pz      :     0.003219  p :     0.011712
      px      :     0.002847
      py      :     0.005646

 19 H s       :     0.880799  s :     0.880799
      pz      :     0.004589  p :     0.011557
      px      :     0.002610
      py      :     0.004358

 20 H s       :     0.879804  s :     0.879804
      pz      :     0.004648  p :     0.011520
      px      :     0.002538
      py      :     0.004334

 21 H s       :     0.876049  s :     0.876049
      pz      :     0.003155  p :     0.011656
      px      :     0.002935
      py      :     0.005566



                     *******************************
                     * LOEWDIN POPULATION ANALYSIS *
                     *******************************

----------------------
LOEWDIN ATOMIC CHARGES
----------------------
   0 C :   -0.130169
   1 C :   -0.199029
   2 C :   -0.063413
   3 H :    0.128528
   4 H :    0.127351
   5 C :   -0.050215
   6 H :    0.181113
   7 C :   -0.197080
   8 C :    0.099416
   9 H :    0.078805
  10 N :   -0.242283
  11 O :   -0.140611
  12 H :    0.070920
  13 O :   -0.224423
  14 H :    0.070941
  15 H :    0.066235
  16 H :    0.067175
  17 H :    0.083625
  18 H :    0.068238
  19 H :    0.068668
  20 H :    0.068023
  21 H :    0.068184

-------------------------------
LOEWDIN REDUCED ORBITAL CHARGES
-------------------------------
  0 C s       :     2.898040  s :     2.898040
      pz      :     1.053825  p :     3.150329
      px      :     1.021736
      py      :     1.074768
      dz2     :     0.010172  d :     0.081800
      dxz     :     0.019905
      dyz     :     0.020442
      dx2y2   :     0.021729
      dxy     :     0.009552

  1 C s       :     2.914465  s :     2.914465
      pz      :     1.085379  p :     3.220121
      px      :     1.042102
      py      :     1.092639
      dz2     :     0.006370  d :     0.064443
      dxz     :     0.016827
      dyz     :     0.015805
      dx2y2   :     0.016594
      dxy     :     0.008849

  2 C s       :     2.887609  s :     2.887609
      pz      :     1.047086  p :     3.077798
      px      :     0.993568
      py      :     1.037145
      dz2     :     0.016682  d :     0.098006
      dxz     :     0.018989
      dyz     :     0.020585
      dx2y2   :     0.026681
      dxy     :     0.015069

  3 H s       :     0.792494  s :     0.792494
      pz      :     0.012625  p :     0.078978
      px      :     0.041835
      py      :     0.024518

  4 H s       :     0.792776  s :     0.792776
      pz      :     0.031850  p :     0.079873
      px      :     0.021017
      py      :     0.027006

  5 C s       :     2.883043  s :     2.883043
      pz      :     0.989877  p :     3.036786
      px      :     1.050531
      py      :     0.996378
      dz2     :     0.028685  d :     0.130386
      dxz     :     0.027742
      dyz     :     0.023754
      dx2y2   :     0.037479
      dxy     :     0.012726

  6 H s       :     0.703121  s :     0.703121
      pz      :     0.021575  p :     0.115766
      px      :     0.026352
      py      :     0.067839

  7 C s       :     2.914294  s :     2.914294
      pz      :     1.095097  p :     3.218713
      px      :     1.085048
      py      :     1.038568
      dz2     :     0.010030  d :     0.064073
      dxz     :     0.012264
      dyz     :     0.014217
      dx2y2   :     0.017464
      dxy     :     0.010098

  8 C s       :     2.859990  s :     2.859990
      pz      :     0.944336  p :     2.743108
      px      :     0.788997
      py      :     1.009775
      dz2     :     0.104102  d :     0.297485
      dxz     :     0.054301
      dyz     :     0.093892
      dx2y2   :     0.026263
      dxy     :     0.018926

  9 H s       :     0.879468  s :     0.879468
      pz      :     0.019854  p :     0.041727
      px      :     0.009889
      py      :     0.011984

 10 N s       :     3.191853  s :     3.191853
      pz      :     1.146023  p :     3.992535
      px      :     1.172830
      py      :     1.673683
      dz2     :     0.012717  d :     0.057895
      dxz     :     0.014256
      dyz     :     0.015561
      dx2y2   :     0.009067
      dxy     :     0.006295

 11 O s       :     3.470363  s :     3.470363
      pz      :     1.573293  p :     4.619317
      px      :     1.731669
      py      :     1.314355
      dz2     :     0.017547  d :     0.050931
      dxz     :     0.007589
      dyz     :     0.013356
      dx2y2   :     0.010855
      dxy     :     0.001585

 12 H s       :     0.889611  s :     0.889611
      pz      :     0.016796  p :     0.039469
      px      :     0.014281
      py      :     0.008392

 13 O s       :     3.554429  s :     3.554429
      pz      :     1.529688  p :     4.612072
      px      :     1.404672
      py      :     1.677712
      dz2     :     0.018141  d :     0.057922
      dxz     :     0.011865
      dyz     :     0.019579
      dx2y2   :     0.004204
      dxy     :     0.004132

 14 H s       :     0.889421  s :     0.889421
      pz      :     0.019801  p :     0.039639
      px      :     0.007825
      py      :     0.012013

 15 H s       :     0.893490  s :     0.893490
      pz      :     0.008238  p :     0.040274
      px      :     0.022754
      py      :     0.009282

 16 H s       :     0.893295  s :     0.893295
      pz      :     0.018167  p :     0.039530
      px      :     0.013276
      py      :     0.008086

 17 H s       :     0.876909  s :     0.876909
      pz      :     0.016833  p :     0.039467
      px      :     0.014213
      py      :     0.008421

 18 H s       :     0.891892  s :     0.891892
      pz      :     0.009969  p :     0.039870
      px      :     0.008152
      py      :     0.021749

 19 H s       :     0.891679  s :     0.891679
      pz      :     0.016841  p :     0.039653
      px      :     0.007360
      py      :     0.015452

 20 H s       :     0.892619  s :     0.892619
      pz      :     0.016851  p :     0.039358
      px      :     0.007164
      py      :     0.015344

 21 H s       :     0.891822  s :     0.891822
      pz      :     0.009602  p :     0.039994
      px      :     0.008856
      py      :     0.021536



                      *****************************
                      * MAYER POPULATION ANALYSIS *
                      *****************************

  NA   - Mulliken gross atomic population
  ZA   - Total nuclear charge
  QA   - Mulliken gross atomic charge
  VA   - Mayer's total valence
  BVA  - Mayer's bonded valence
  FA   - Mayer's free valence

  ATOM       NA         ZA         QA         VA         BVA        FA
  0 C      6.2076     6.0000    -0.2076     3.8896     3.8896     0.0000
  1 C      6.3340     6.0000    -0.3340     3.9020     3.9020     0.0000
  2 C      6.0601     6.0000    -0.0601     3.8961     3.8961    -0.0000
  3 H      0.7550     1.0000     0.2450     0.9212     0.9212     0.0000
  4 H      0.7503     1.0000     0.2497     0.9286     0.9286     0.0000
  5 C      6.0470     6.0000    -0.0470     3.8600     3.8600     0.0000
  6 H      0.6830     1.0000     0.3170     0.9185     0.9185     0.0000
  7 C      6.3238     6.0000    -0.3238     3.8753     3.8753     0.0000
  8 C      5.5128     6.0000     0.4872     3.9577     3.9577    -0.0000
  9 H      0.8658     1.0000     0.1342     0.9665     0.9665     0.0000
 10 N      7.5547     7.0000    -0.5547     2.9132     2.9132    -0.0000
 11 O      8.4534     8.0000    -0.4534     2.0324     2.0324    -0.0000
 12 H      0.8924     1.0000     0.1076     0.9538     0.9538     0.0000
 13 O      8.4225     8.0000    -0.4225     2.1053     2.1053    -0.0000
 14 H      0.8932     1.0000     0.1068     0.9579     0.9579    -0.0000
 15 H      0.8993     1.0000     0.1007     0.9587     0.9587    -0.0000
 16 H      0.9014     1.0000     0.0986     0.9581     0.9581    -0.0000
 17 H      0.8793     1.0000     0.1207     0.9520     0.9520    -0.0000
 18 H      0.8932     1.0000     0.1068     0.9592     0.9592    -0.0000
 19 H      0.8924     1.0000     0.1076     0.9548     0.9548    -0.0000
 20 H      0.8913     1.0000     0.1087     0.9556     0.9556    -0.0000
 21 H      0.8877     1.0000     0.1123     0.9565     0.9565    -0.0000

  Mayer bond orders larger than 0.100000
B(  0-C ,  1-C ) :   1.0147 B(  0-C ,  2-C ) :   0.9917 B(  0-C , 18-H ) :   0.9398 
B(  0-C , 19-H ) :   0.9447 B(  1-C , 12-H ) :   0.9614 B(  1-C , 20-H ) :   0.9628 
B(  1-C , 21-H ) :   0.9593 B(  2-C ,  5-C ) :   0.9594 B(  2-C ,  7-C ) :   1.0081 
B(  2-C , 14-H ) :   0.9325 B(  3-H , 10-N ) :   0.9072 B(  4-H , 10-N ) :   0.8953 
B(  5-C ,  8-C ) :   0.9022 B(  5-C , 10-N ) :   1.0515 B(  5-C , 17-H ) :   0.9204 
B(  6-H , 11-O ) :   0.8514 B(  7-C ,  9-H ) :   0.9468 B(  7-C , 15-H ) :   0.9547 
B(  7-C , 16-H ) :   0.9598 B(  8-C , 11-O ) :   1.0833 B(  8-C , 13-O ) :   1.9109 


-------
TIMINGS
-------

Total SCF time: 0 days 0 hours 0 min 7 sec 

Total time                  ....       7.185 sec
Sum of individual times     ....       6.684 sec  ( 93.0%)

SCF preparation             ....       0.029 sec  (  0.4%)
Fock matrix formation       ....       6.592 sec  ( 91.8%)
  Startup                   ....       0.001 sec  (  0.0% of F)
  Split-RI-J                ....       2.308 sec  ( 35.0% of F)
  XC integration            ....       4.709 sec  ( 71.4% of F)
    XC Preparation          ....       0.000 sec  (  0.0% of XC)
    Basis function eval.    ....       1.656 sec  ( 35.2% of XC)
    Density eval.           ....       1.067 sec  ( 22.7% of XC)
    XC-Functional eval.     ....       0.817 sec  ( 17.3% of XC)
    XC-Potential eval.      ....       1.048 sec  ( 22.3% of XC)
Diagonalization             ....       0.000 sec  (  0.0%)
Density matrix formation    ....       0.005 sec  (  0.1%)
Total Energy calculation    ....       0.001 sec  (  0.0%)
Population analysis         ....       0.003 sec  (  0.0%)
Orbital Transformation      ....       0.006 sec  (  0.1%)
Orbital Orthonormalization  ....       0.000 sec  (  0.0%)
DIIS solution               ....       0.032 sec  (  0.5%)
SOSCF solution              ....       0.017 sec  (  0.2%)
Finished LeanSCF after   7.2 sec

Maximum memory used throughout the entire LEANSCF-calculation: 21.8 MB



-------------------------------------------------------------------------------
                          DFT DISPERSION CORRECTION                            
-------------------------------------------------------------------------------
Active option DFTDOPT                   ...         2   
Final C6-coefficient scaling factor     ...     1.250
Final VDW-radii scaling factor          ...     1.100
Damping factor alpha                    ...    20.000
-------------------------   ----------------
Dispersion correction           -0.035119598
-------------------------   ----------------


-------------------------   --------------------
FINAL SINGLE POINT ENERGY      -441.406400661664
-------------------------   --------------------

------------------------------------------------------------------------------
                         ORCA SCF GRADIENT CALCULATION
------------------------------------------------------------------------------

Nuc. rep. gradient        (SHARK) ... done (  0.0 sec)
HCore & Overlap gradient  (SHARK) ... done (  0.1 sec)
Split-RIJ-J gradient      (SHARK) ... done (  0.6 sec)
XC gradient                       ... done (  2.9 sec)
Dispersion correction             ... done (  0.0 sec)

-------------------
DISPERSION GRADIENT
-------------------

   1   C   :   -0.001410423   -0.000257732    0.000950261
   2   C   :   -0.000119002   -0.000474013   -0.000792894
   3   C   :    0.000537980    0.001091500   -0.000321208
   4   H   :    0.000332415    0.000487658   -0.000740311
   5   H   :    0.001441257    0.000401940   -0.000961698
   6   C   :    0.000236759   -0.000749644   -0.000244960
   7   H   :    0.000153008   -0.000081782   -0.000379496
   8   C   :    0.000446674    0.000036159    0.000338725
   9   C   :    0.000193015    0.000046715    0.000291539
  10   H   :   -0.000363408    0.000789817    0.001358797
  11   N   :    0.000561305   -0.000646267    0.000541204
  12   O   :    0.000442623   -0.000736230    0.000011513
  13   H   :   -0.000107342    0.000211385    0.000960779
  14   O   :    0.000512616   -0.000934626    0.000604543
  15   H   :    0.000078183    0.000215023    0.000250001
  16   H   :    0.001543281    0.001083107    0.000434489
  17   H   :   -0.000906591    0.000919382   -0.000366043
  18   H   :    0.000443964   -0.000309178   -0.000100509
  19   H   :   -0.000679921    0.000495998   -0.000307992
  20   H   :   -0.000956731   -0.000732067   -0.000340209
  21   H   :   -0.001136576    0.000494361   -0.000711534
  22   H   :   -0.001243087   -0.001351505   -0.000474995

Difference to translation invariance:
           :    0.0000000000   -0.0000000000   -0.0000000000

Difference to rotation invariance:
           :   -0.0000000000    0.0000000000   -0.0000000000

Norm of the Dispersion gradient    ...    0.0056197741
RMS gradient                       ...    0.0006917464
MAX gradient                       ...    0.0015432806

------------------
CARTESIAN GRADIENT
------------------

   1   C   :    0.001214335    0.002403286   -0.004072495
   2   C   :   -0.001730297   -0.000401501    0.003189777
   3   C   :   -0.002660768   -0.003013963    0.000677503
   4   H   :   -0.002363921    0.002460977    0.001446459
   5   H   :    0.000254126    0.003278331    0.002416025
   6   C   :   -0.000363110    0.000182547   -0.001276662
   7   H   :   -0.001076900    0.002202011    0.005944603
   8   C   :    0.002408871    0.001833636   -0.001235242
   9   C   :   -0.003271662   -0.006887163   -0.003980736
  10   H   :   -0.002637241   -0.004148854    0.005783735
  11   N   :   -0.000512900   -0.010646007    0.001238892
  12   O   :    0.005240756    0.001331251   -0.028479723
  13   H   :    0.006512100    0.001842076    0.005091622
  14   O   :   -0.004573003    0.015043651    0.028153394
  15   H   :    0.000977651    0.002528296   -0.003033297
  16   H   :    0.008098835   -0.003440971   -0.002374526
  17   H   :   -0.004949186   -0.002718795   -0.006819486
  18   H   :   -0.001764571   -0.001105455   -0.003132363
  19   H   :   -0.000985141    0.004560312    0.004362691
  20   H   :   -0.002025336   -0.003356720    0.006050913
  21   H   :    0.001109193    0.005325676   -0.006260207
  22   H   :    0.003098168   -0.007272620   -0.003690877

Difference to translation invariance:
           :   -0.0000000000   -0.0000000000   -0.0000000000

Difference to rotation invariance:
           :   -0.0002447565    0.0000228496    0.0004586064

Norm of the Cartesian gradient     ...    0.0525973039
RMS gradient                       ...    0.0064742806
MAX gradient                       ...    0.0284797229

-------
TIMINGS
-------

Total SCF gradient time     ....        3.669 sec

Densities                   ....       0.000 sec  (  0.0%)
One electron gradient       ....       0.140 sec  (  3.8%)
RI-J Coulomb gradient       ....       0.642 sec  ( 17.5%)
XC gradient                 ....       2.887 sec  ( 78.7%)

Maximum memory used throughout the entire SCFGRAD-calculation: 27.9 MB
------------------------------------------------------------------------------
                         ORCA GEOMETRY RELAXATION STEP
------------------------------------------------------------------------------

Reading the OPT-File                    .... done
Getting information on internals        .... done
Copying old internal coords+grads       .... done
Making the new internal coordinates     .... (2022 redundants) done
Validating the new internal coordinates .... (2022 redundants) done
Calculating the B-matrix                .... done
Calculating the G,G- and P matrices     .... done
Transforming gradient to internals      .... done
Projecting the internal gradient        .... done
Number of atoms                         ....  22
Number of internal coordinates          ....  94
Current Energy                          ....  -441.406400662 Eh
Current gradient norm                   ....     0.052597304 Eh/bohr
Maximum allowed component of the step   ....  0.300
Current trust radius                    ....  0.300
Evaluating the initial hessian          ....  (Almloef) done
Projecting the Hessian                  .... done
Forming the augmented Hessian           .... done
Diagonalizing the augmented Hessian     .... done
Last element of RFO vector              ....  0.980349511
Lowest eigenvalues of augmented Hessian:
 -0.005933357  0.010115783  0.010908171  0.011088673  0.011516130
Length of the computed step             ....  0.201222557
The final length of the internal step   ....  0.201222557
Converting the step to Cartesian space:
 Initial RMS(Int)=    0.0207545220
Transforming coordinates:
 Iter   0:  RMS(Cart)=    0.0585037174 RMS(Int)=    0.0208002691
done
Storing new coordinates                 .... done

                                .--------------------.
          ----------------------|Geometry convergence|-------------------------
          Item                value                   Tolerance       Converged
          ---------------------------------------------------------------------
          RMS gradient        0.0055180156            0.0001000000      NO
          MAX gradient        0.0322012116            0.0003000000      NO
          RMS step            0.0207545220            0.0020000000      NO
          MAX step            0.0555217144            0.0040000000      NO
          -------------------------------------------------------------------------
          ........................................................
          Max(Bonds)      0.0170      Max(Angles)    1.58
          Max(Dihed)        3.18      Max(Improp)    0.00
          ---------------------------------------------------------------------

The optimization has not yet converged - more geometry cycles are needed


    ---------------------------------------------------------------------------
                         Redundant Internal Coordinates
                            (Angstroem and degrees)

        Definition                    Value    dE/dq     Step     New-Value
    ----------------------------------------------------------------------------
     1. B(C   1,C   0)                1.5246 -0.008997  0.0123    1.5369   
     2. B(C   2,C   0)                1.5345 -0.008804  0.0125    1.5469   
     3. B(C   5,C   2)                1.5476 -0.009982  0.0148    1.5624   
     4. B(C   7,C   2)                1.5253 -0.009299  0.0127    1.5381   
     5. B(C   8,C   5)                1.5227 -0.011962  0.0162    1.5389   
     6. B(H   9,C   7)                1.0863 -0.007586  0.0108    1.0971   
     7. B(N  10,H   3)                1.0144 -0.003000  0.0037    1.0181   
     8. B(N  10,C   5)                1.4489 -0.007320  0.0085    1.4573   
     9. B(N  10,H   4)                1.0152 -0.003198  0.0039    1.0191   
    10. B(O  11,C   8)                1.3379 -0.021910  0.0170    1.3548   
    11. B(O  11,H   6)                0.9709 -0.002959  0.0031    0.9740   
    12. B(H  12,C   1)                1.0875 -0.008295  0.0119    1.0994   
    13. B(O  13,C   8)                1.2038 -0.032201  0.0153    1.2191   
    14. B(H  14,C   2)                1.0951 -0.004031  0.0059    1.1011   
    15. B(H  15,C   7)                1.0861 -0.009073  0.0129    1.0991   
    16. B(H  16,C   7)                1.0872 -0.008796  0.0126    1.0998   
    17. B(H  17,C   5)                1.0966 -0.003708  0.0055    1.1021   
    18. B(H  18,C   0)                1.0929 -0.005984  0.0087    1.1017   
    19. B(H  19,C   0)                1.0911 -0.006830  0.0099    1.1010   
    20. B(H  20,C   1)                1.0881 -0.008280  0.0119    1.1000   
    21. B(H  21,C   1)                1.0868 -0.008670  0.0124    1.0992   
    22. A(H  18,C   0,H  19)          107.90  0.001380   -0.65    107.25   
    23. A(C   1,C   0,C   2)          112.50 -0.000557    0.25    112.75   
    24. A(C   1,C   0,H  19)          109.34 -0.000503    0.02    109.35   
    25. A(C   2,C   0,H  18)          109.42 -0.001156    0.44    109.85   
    26. A(C   2,C   0,H  19)          109.14  0.001049   -0.33    108.81   
    27. A(C   1,C   0,H  18)          108.44 -0.000138    0.24    108.68   
    28. A(C   0,C   1,H  20)          110.58  0.000334   -0.04    110.54   
    29. A(H  20,C   1,H  21)          108.37  0.001563   -0.32    108.05   
    30. A(C   0,C   1,H  12)          110.19 -0.002709    0.49    110.68   
    31. A(H  12,C   1,H  20)          108.33  0.001008   -0.13    108.20   
    32. A(H  12,C   1,H  21)          108.13  0.000508   -0.11    108.01   
    33. A(C   0,C   1,H  21)          111.16 -0.000594    0.09    111.24   
    34. A(C   0,C   2,C   7)          111.55  0.001282   -0.03    111.52   
    35. A(C   0,C   2,C   5)          111.31 -0.000638    0.40    111.71   
    36. A(C   5,C   2,H  14)          106.94  0.001132   -0.48    106.47   
    37. A(C   0,C   2,H  14)          108.64 -0.000091   -0.35    108.28   
    38. A(C   5,C   2,C   7)          108.94 -0.002260    0.84    109.78   
    39. A(C   7,C   2,H  14)          109.34  0.000608   -0.42    108.91   
    40. A(C   8,C   5,H  17)          107.20  0.000874   -0.31    106.89   
    41. A(C   2,C   5,H  17)          107.75  0.000749   -0.46    107.29   
    42. A(N  10,C   5,H  17)          108.37 -0.000147   -0.24    108.13   
    43. A(C   2,C   5,C   8)          109.61 -0.002011    0.63    110.24   
    44. A(C   8,C   5,N  10)          112.47  0.000108    0.25    112.72   
    45. A(C   2,C   5,N  10)          111.24  0.000508    0.07    111.31   
    46. A(C   2,C   7,H   9)          109.52  0.000063   -0.00    109.51   
    47. A(H  15,C   7,H  16)          108.35  0.000811   -0.16    108.19   
    48. A(H   9,C   7,H  16)          108.55  0.000904   -0.17    108.38   
    49. A(C   2,C   7,H  16)          110.51 -0.001114    0.19    110.71   
    50. A(H   9,C   7,H  15)          109.18  0.000451   -0.07    109.11   
    51. A(C   2,C   7,H  15)          110.70 -0.001055    0.19    110.89   
    52. A(C   5,C   8,O  13)          124.61 -0.001441    0.22    124.84   
    53. A(C   5,C   8,O  11)          112.75  0.005102   -0.67    112.08   
    54. A(O  11,C   8,O  13)          122.64 -0.003666    0.46    123.10   
    55. A(H   3,N  10,H   4)          106.75  0.000959   -0.78    105.97   
    56. A(H   4,N  10,C   5)          109.42  0.001796   -0.56    108.86   
    57. A(H   3,N  10,C   5)          110.04  0.001043   -0.43    109.61   
    58. A(H   6,O  11,C   8)          110.42  0.010461   -1.58    108.84   
    59. D(H  20,C   1,C   0,H  19)    179.49  0.000211   -0.46    179.03   
    60. D(H  12,C   1,C   0,H  18)    -57.66 -0.000811    0.05    -57.61   
    61. D(H  12,C   1,C   0,H  19)     59.75  0.000484   -0.59     59.16   
    62. D(H  12,C   1,C   0,C   2)   -178.82  0.001094   -0.83   -179.65   
    63. D(H  20,C   1,C   0,H  18)     62.08 -0.001083    0.18     62.26   
    64. D(H  20,C   1,C   0,C   2)    -59.08  0.000821   -0.70    -59.78   
    65. D(C   5,C   2,C   0,C   1)    160.75  0.000219    1.84    162.59   
    66. D(C   7,C   2,C   0,H  19)     44.21 -0.002507    3.14     47.34   
    67. D(C   7,C   2,C   0,H  18)    162.07 -0.000898    2.41    164.48   
    68. D(C   7,C   2,C   0,C   1)    -77.33 -0.002234    3.18    -74.15   
    69. D(C   5,C   2,C   0,H  18)     40.16  0.001556    1.06     41.22   
    70. D(C   5,C   2,C   0,H  19)    -77.70 -0.000053    1.79    -75.91   
    71. D(C   8,C   5,C   2,H  14)     53.83  0.001137   -2.74     51.08   
    72. D(C   8,C   5,C   2,C   7)    171.89  0.001286   -3.06    168.83   
    73. D(C   8,C   5,C   2,C   0)    -64.69  0.000913   -2.25    -66.94   
    74. D(N  10,C   5,C   2,H  14)    178.84  0.000178   -1.92    176.92   
    75. D(N  10,C   5,C   2,C   7)    -63.09  0.000328   -2.24    -65.33   
    76. D(N  10,C   5,C   2,C   0)     60.32 -0.000045   -1.43     58.90   
    77. D(H  15,C   7,C   2,H  14)    -66.62 -0.000345    0.43    -66.19   
    78. D(H  15,C   7,C   2,C   5)    176.83 -0.000768    0.77    177.59   
    79. D(H  15,C   7,C   2,C   0)     53.56  0.000758   -0.31     53.25   
    80. D(H   9,C   7,C   2,H  14)    172.95 -0.000278    0.40    173.35   
    81. D(H   9,C   7,C   2,C   5)     56.40 -0.000701    0.73     57.13   
    82. D(H   9,C   7,C   2,C   0)    -66.87  0.000825   -0.35    -67.21   
    83. D(O  13,C   8,C   5,N  10)     -9.37  0.001381   -3.15    -12.51   
    84. D(O  13,C   8,C   5,C   2)    114.93  0.000621   -2.41    112.52   
    85. D(O  11,C   8,C   5,H  17)     51.27 -0.000088   -0.27     51.00   
    86. D(O  11,C   8,C   5,N  10)    170.29  0.000358   -0.62    169.66   
    87. D(O  11,C   8,C   5,C   2)    -65.41 -0.000403    0.11    -65.30   
    88. D(H   3,N  10,C   5,C   8)    -63.56 -0.002102    0.84    -62.71   
    89. D(H   3,N  10,C   5,C   2)    173.05  0.000071   -0.21    172.83   
    90. D(H   4,N  10,C   5,C   8)     53.43  0.000725   -0.68     52.75   
    91. D(H   4,N  10,C   5,C   2)    -69.97  0.002898   -1.73    -71.70   
[...]
      py      :     1.306958
      dz2     :     0.008555  d :     0.023153
      dxz     :     0.005013
      dyz     :     0.005244
      dx2y2   :     0.003991
      dxy     :     0.000351

 12 H s       :     0.881393  s :     0.881393
      pz      :     0.004501  p :     0.011267
      px      :     0.003940
      py      :     0.002826

 13 O s       :     3.874940  s :     3.874940
      pz      :     1.461026  p :     4.526124
      px      :     1.421178
      py      :     1.643919
      dz2     :     0.007658  d :     0.027245
      dxz     :     0.007402
      dyz     :     0.007495
      dx2y2   :     0.001963
      dxy     :     0.002727

 14 H s       :     0.884010  s :     0.884010
      pz      :     0.005094  p :     0.011382
      px      :     0.002530
      py      :     0.003757

 15 H s       :     0.884798  s :     0.884798
      pz      :     0.002894  p :     0.011469
      px      :     0.005864
      py      :     0.002711

 16 H s       :     0.890244  s :     0.890244
      pz      :     0.004762  p :     0.011322
      px      :     0.004016
      py      :     0.002544

 17 H s       :     0.867733  s :     0.867733
      pz      :     0.004342  p :     0.010938
      px      :     0.003882
      py      :     0.002714

 18 H s       :     0.880990  s :     0.880990
      pz      :     0.002989  p :     0.011464
      px      :     0.002629
      py      :     0.005846

 19 H s       :     0.879419  s :     0.879419
      pz      :     0.004733  p :     0.011347
      px      :     0.002577
      py      :     0.004037

 20 H s       :     0.882786  s :     0.882786
      pz      :     0.004826  p :     0.011221
      px      :     0.002504
      py      :     0.003891

 21 H s       :     0.877009  s :     0.877009
      pz      :     0.002888  p :     0.011379
      px      :     0.002681
      py      :     0.005810



                     *******************************
                     * LOEWDIN POPULATION ANALYSIS *
                     *******************************

----------------------
LOEWDIN ATOMIC CHARGES
----------------------
   0 C :   -0.131429
   1 C :   -0.202251
   2 C :   -0.061200
   3 H :    0.129141
   4 H :    0.129356
   5 C :   -0.047888
   6 H :    0.182874
   7 C :   -0.199458
   8 C :    0.124100
   9 H :    0.079953
  10 N :   -0.250476
  11 O :   -0.158727
  12 H :    0.071966
  13 O :   -0.232724
  14 H :    0.070051
  15 H :    0.068894
  16 H :    0.067993
  17 H :    0.083454
  18 H :    0.069470
  19 H :    0.069776
  20 H :    0.068139
  21 H :    0.068987

-------------------------------
LOEWDIN REDUCED ORBITAL CHARGES
-------------------------------
  0 C s       :     2.907002  s :     2.907002
      pz      :     1.052400  p :     3.145449
      px      :     1.016077
      py      :     1.076971
      dz2     :     0.011317  d :     0.078978
      dxz     :     0.019225
      dyz     :     0.017587
      dx2y2   :     0.022151
      dxy     :     0.008698

  1 C s       :     2.925239  s :     2.925239
      pz      :     1.084816  p :     3.214890
      px      :     1.038708
      py      :     1.091367
      dz2     :     0.007913  d :     0.062123
      dxz     :     0.015907
      dyz     :     0.012903
      dx2y2   :     0.017155
      dxy     :     0.008244

  2 C s       :     2.898098  s :     2.898098
      pz      :     1.044536  p :     3.068695
      px      :     0.988601
      py      :     1.035559
      dz2     :     0.015157  d :     0.094407
      dxz     :     0.018442
      dyz     :     0.021245
      dx2y2   :     0.025953
      dxy     :     0.013610

  3 H s       :     0.793525  s :     0.793525
      pz      :     0.012230  p :     0.077334
      px      :     0.042248
      py      :     0.022856

  4 H s       :     0.792032  s :     0.792032
      pz      :     0.030596  p :     0.078613
      px      :     0.019112
      py      :     0.028905

  5 C s       :     2.894162  s :     2.894162
      pz      :     0.985696  p :     3.029448
      px      :     1.051575
      py      :     0.992177
      dz2     :     0.027120  d :     0.124278
      dxz     :     0.026487
      dyz     :     0.023512
      dx2y2   :     0.035449
      dxy     :     0.011710

  6 H s       :     0.703109  s :     0.703109
      pz      :     0.021377  p :     0.114018
      px      :     0.026030
      py      :     0.066611

  7 C s       :     2.925536  s :     2.925536
      pz      :     1.090265  p :     3.212290
      px      :     1.083628
      py      :     1.038396
      dz2     :     0.008172  d :     0.061632
      dxz     :     0.012696
      dyz     :     0.015038
      dx2y2   :     0.017370
      dxy     :     0.008356

  8 C s       :     2.875734  s :     2.875734
      pz      :     0.932933  p :     2.723097
      px      :     0.781768
      py      :     1.008397
      dz2     :     0.103493  d :     0.277069
      dxz     :     0.048820
      dyz     :     0.086251
      dx2y2   :     0.023089
      dxy     :     0.015416

  9 H s       :     0.880162  s :     0.880162
      pz      :     0.018912  p :     0.039885
      px      :     0.008461
      py      :     0.012513

 10 N s       :     3.216365  s :     3.216365
      pz      :     1.143014  p :     3.976858
      px      :     1.191622
      py      :     1.642223
      dz2     :     0.012444  d :     0.057253
      dxz     :     0.010983
      dyz     :     0.017950
      dx2y2   :     0.010524
      dxy     :     0.005353

 11 O s       :     3.497246  s :     3.497246
      pz      :     1.550191  p :     4.612899
      px      :     1.739622
      py      :     1.323086
      dz2     :     0.017943  d :     0.048582
      dxz     :     0.006818
      dyz     :     0.013055
      dx2y2   :     0.009830
      dxy     :     0.000936

 12 H s       :     0.889950  s :     0.889950
      pz      :     0.016213  p :     0.038084
      px      :     0.013777
      py      :     0.008094

 13 O s       :     3.569076  s :     3.569076
      pz      :     1.534006  p :     4.608077
      px      :     1.407556
      py      :     1.666516
      dz2     :     0.017329  d :     0.055571
      dxz     :     0.010341
      dyz     :     0.019936
      dx2y2   :     0.004211
      dxy     :     0.003754

 14 H s       :     0.891278  s :     0.891278
      pz      :     0.018885  p :     0.038671
      px      :     0.007475
      py      :     0.012311

 15 H s       :     0.892153  s :     0.892153
      pz      :     0.008345  p :     0.038953
      px      :     0.022277
      py      :     0.008331

 16 H s       :     0.893978  s :     0.893978
      pz      :     0.016947  p :     0.038029
      px      :     0.013580
      py      :     0.007502

 17 H s       :     0.877444  s :     0.877444
      pz      :     0.016548  p :     0.039102
      px      :     0.014049
      py      :     0.008505

 18 H s       :     0.891706  s :     0.891706
      pz      :     0.009024  p :     0.038824
      px      :     0.007296
      py      :     0.022503

 19 H s       :     0.891611  s :     0.891611
      pz      :     0.017550  p :     0.038613
      px      :     0.007219
      py      :     0.013845

 20 H s       :     0.893982  s :     0.893982
      pz      :     0.017624  p :     0.037879
      px      :     0.007046
      py      :     0.013209

 21 H s       :     0.892371  s :     0.892371
      pz      :     0.008295  p :     0.038641
      px      :     0.007830
      py      :     0.022516



                      *****************************
                      * MAYER POPULATION ANALYSIS *
                      *****************************

  NA   - Mulliken gross atomic population
  ZA   - Total nuclear charge
  QA   - Mulliken gross atomic charge
  VA   - Mayer's total valence
  BVA  - Mayer's bonded valence
  FA   - Mayer's free valence

  ATOM       NA         ZA         QA         VA         BVA        FA
  0 C      6.2041     6.0000    -0.2041     3.8832     3.8832     0.0000
  1 C      6.3328     6.0000    -0.3328     3.8974     3.8974     0.0000
  2 C      6.0567     6.0000    -0.0567     3.8865     3.8865    -0.0000
  3 H      0.7574     1.0000     0.2426     0.9187     0.9187    -0.0000
  4 H      0.7492     1.0000     0.2508     0.9289     0.9289     0.0000
  5 C      6.0466     6.0000    -0.0466     3.8511     3.8511     0.0000
  6 H      0.6816     1.0000     0.3184     0.9176     0.9176    -0.0000
  7 C      6.3259     6.0000    -0.3259     3.8734     3.8734    -0.0000
  8 C      5.5052     6.0000     0.4948     3.9205     3.9205     0.0000
  9 H      0.8669     1.0000     0.1331     0.9636     0.9636    -0.0000
 10 N      7.5535     7.0000    -0.5535     2.9042     2.9042    -0.0000
 11 O      8.4618     8.0000    -0.4618     2.0294     2.0294     0.0000
 12 H      0.8927     1.0000     0.1073     0.9548     0.9548     0.0000
 13 O      8.4283     8.0000    -0.4283     2.0966     2.0966     0.0000
 14 H      0.8954     1.0000     0.1046     0.9566     0.9566     0.0000
 15 H      0.8963     1.0000     0.1037     0.9595     0.9595    -0.0000
 16 H      0.9016     1.0000     0.0984     0.9587     0.9587    -0.0000
 17 H      0.8787     1.0000     0.1213     0.9529     0.9529     0.0000
 18 H      0.8925     1.0000     0.1075     0.9600     0.9600    -0.0000
 19 H      0.8908     1.0000     0.1092     0.9562     0.9562     0.0000
 20 H      0.8940     1.0000     0.1060     0.9560     0.9560     0.0000
 21 H      0.8884     1.0000     0.1116     0.9571     0.9571     0.0000

  Mayer bond orders larger than 0.100000
B(  0-C ,  1-C ) :   1.0111 B(  0-C ,  2-C ) :   0.9919 B(  0-C , 18-H ) :   0.9395 
B(  0-C , 19-H ) :   0.9425 B(  1-C , 12-H ) :   0.9604 B(  1-C , 20-H ) :   0.9618 
B(  1-C , 21-H ) :   0.9581 B(  2-C ,  5-C ) :   0.9516 B(  2-C ,  7-C ) :   1.0027 
B(  2-C , 14-H ) :   0.9322 B(  3-H , 10-N ) :   0.9074 B(  4-H , 10-N ) :   0.8917 
B(  5-C ,  8-C ) :   0.9013 B(  5-C , 10-N ) :   1.0461 B(  5-C , 17-H ) :   0.9213 
B(  6-H , 11-O ) :   0.8522 B(  7-C ,  9-H ) :   0.9494 B(  7-C , 15-H ) :   0.9532 
B(  7-C , 16-H ) :   0.9582 B(  8-C , 11-O ) :   1.0696 B(  8-C , 13-O ) :   1.8863 


-------
TIMINGS
-------

Total SCF time: 0 days 0 hours 0 min 3 sec 

Total time                  ....       3.906 sec
Sum of individual times     ....       3.430 sec  ( 87.8%)

SCF preparation             ....       0.038 sec  (  1.0%)
Fock matrix formation       ....       3.356 sec  ( 85.9%)
  Startup                   ....       0.001 sec  (  0.0% of F)
  Split-RI-J                ....       1.236 sec  ( 36.8% of F)
  XC integration            ....       2.524 sec  ( 75.2% of F)
    XC Preparation          ....       0.000 sec  (  0.0% of XC)
    Basis function eval.    ....       0.937 sec  ( 37.1% of XC)
    Density eval.           ....       0.578 sec  ( 22.9% of XC)
    XC-Functional eval.     ....       0.467 sec  ( 18.5% of XC)
    XC-Potential eval.      ....       0.475 sec  ( 18.8% of XC)
Diagonalization             ....       0.000 sec  (  0.0%)
Density matrix formation    ....       0.002 sec  (  0.1%)
Total Energy calculation    ....       0.000 sec  (  0.0%)
Population analysis         ....       0.010 sec  (  0.3%)
Orbital Transformation      ....       0.003 sec  (  0.1%)
Orbital Orthonormalization  ....       0.000 sec  (  0.0%)
DIIS solution               ....       0.004 sec  (  0.1%)
SOSCF solution              ....       0.017 sec  (  0.4%)
Finished LeanSCF after   3.9 sec

Maximum memory used throughout the entire LEANSCF-calculation: 22.1 MB



-------------------------------------------------------------------------------
                          DFT DISPERSION CORRECTION                            
-------------------------------------------------------------------------------
Active option DFTDOPT                   ...         2   
Final C6-coefficient scaling factor     ...     1.250
Final VDW-radii scaling factor          ...     1.100
Damping factor alpha                    ...    20.000
-------------------------   ----------------
Dispersion correction           -0.034731190
-------------------------   ----------------


-------------------------   --------------------
FINAL SINGLE POINT ENERGY      -441.410511650528
-------------------------   --------------------

                                *** OPTIMIZATION RUN DONE ***


------------------------------------------------------------------------------
                              ORCA PROPERTY CALCULATIONS
------------------------------------------------------------------------------

GBWName                                 ... 0.gbw
Number of atoms                         ...     22
Number of basis functions               ...    191
Max core memory                         ...   4096 MB

Electric properties:
Dipole moment                           ... YES
Quadrupole moment                       ...  NO
Static polarizability (Dipole/Dipole)   ...  NO
Static polarizability (Dipole/Quad.)    ...  NO
Static polarizability (Quad./Quad.)     ...  NO
Static polarizability (Velocity)        ...  NO
Static hyperpolarizability              ...  NO

Atomic electric properties:
Dipole moment                           ...  NO
Quadrupole moment                       ...  NO
Static polarizability                   ...  NO

Choice of electric origin               ... Center of mass
Position of electric origin             ...   -14.387441     7.589429    -0.416074

General magnetic properties:
Magnetizability                         ...  NO

EPR properties:
g-Tensor (aka g-matrix)                 ...  NO
Zero-Field splitting spin-orbit         ...  NO
Zero-field splitting spin-spin          ...  NO
Hyperfine couplings                     ...  NO (   0 nuclei)
Quadrupole couplings                    ...  NO (   0 nuclei)
Contact density                         ...  NO (   0 nuclei)

NMR properties:
Chemical shifts                         ...  NO (   0 nuclei)
Spin-rotation constants                 ...  NO (   0 nuclei)
Spin-spin couplings                     ...  NO (   0 nuclei,    0 pairs)

Choice of magnetic origin               ... GIAO
Position of magnetic origin             ...     0.000000     0.000000     0.000000

Properties with geometric perturbations:
SCF Hessian                             ...  NO
IR spectrum                             ...  NO
VCD spectrum                            ...  NO
X-ray spectroscopy properties:
SCF XES/XAS/RIXS spectra                ...  NO

SCF SOC stabilization energy            ...  NO
Diagonal Born-Oppenheimer correction    ...  NO

-------------
DIPOLE MOMENT
-------------

Method             : SCF
Type of density    : Electron Density
Multiplicity       :   1
Irrep              :   0
Energy             :  -441.3757804602113879 Eh
Basis              : AO
                                X                 Y                 Z
Electronic contribution:      8.966668573      -8.592143840      -0.527715687
Nuclear contribution   :     -8.912873329       8.350910341       0.937948373
                        -----------------------------------------
Total Dipole Moment    :      0.053795245      -0.241233498       0.410232687
                        -----------------------------------------
Magnitude (a.u.)       :      0.478934637
Magnitude (Debye)      :      1.217355102



--------------------
Rotational spectrum 
--------------------
 
Rotational constants in cm-1:             0.068902             0.035973             0.032241 
Rotational constants in MHz :          2065.642154          1078.443406           966.558565 

Dipole components along the rotational axes: 
x,y,z [a.u.] :     0.172694    -0.175788    -0.410675 
x,y,z [Debye]:     0.438954    -0.446818    -1.043852 

 

Dipole moment calculation done in   0.0 sec 

Maximum memory used throughout the entire PROP-calculation: 12.4 MB

--------------------------------
SUGGESTED CITATIONS FOR THIS RUN
--------------------------------

Below you find a list of papers that are relevant to this ORCA run
We neither can nor want to force you to cite these papers, but we appreciate if you do
You receive ORCA, which is the product of decades of hard work by many enthusiastic individuals, for free
The only thing we kindly ask in return is that you cite our papers,
We deeply appreciate it, if you show your appreciation for ORCA by not just citing the generic ORCA reference.

Please note that relegating all ORCA citations to the supporting information does *not* help us.
SI sections are not indexed - citations you put there will not count into any citation statistics
But we need these citations in order to attract the funding resources that allow us to do what we are doing

Therefore, if you are a happy ORCA user, please consider citing a few of the papers listed below in the main body of your paper

In addition to the list printed below, the program has created the file 0.bibtex that contains the list in bibtex format
You can import this file easily into all common literature databanks and citation aid programs


List of essential papers. We consider these as the minimum necessary citations

  1. Neese, F.
     Software update: the ORCA program system, version 6.0
     WIRES Comput. Molec. Sci. 2025 15(1), e70019
     doi.org/10.1002/wcms.7019

List of papers to cite with high priority. The work reported in these papers was absolutely
necessary for this run to complete.
Our perspective: the developers of density functionals and basis sets usually get cited in chemistry papers
Good! But without the algorithms to do something with them, the functionals or basis sets would not do anything.
Hence, in our opinion, the algorithm design and method developments papers are equally worthy of getting cited

  1. Neese, F.
     An improvement of the resolution of the identity approximation for the formation of the Coulomb matrix
     J. Comp. Chem. 2003 24(14), 1740-1747
     doi.org/10.1002/jcc.10318
  2. Grimme, S.
     Semiempirical GGA-type density functional constructed with a long-range dispersion correction
     J.Comput.Chem. 2006 27(15), 1787-1799
     doi.org/10.1002/jcc.20495
  3. Neese, F.
     The SHARK Integral Generation and Digestion System
     J. Comp. Chem. 2022 44(3), 381
     doi.org/10.1002/jcc.26942

List of suggested additional citations. These are papers that are important in the 'surrounding' of 
of this run, or papers that preceded the highly important papers. If you like your results we are grateful for a citation.

  1. Neese, F.
     The ORCA program system
     WIRES Comput. Molec. Sci. 2012 2(1), 73-78
     doi.org/10.1002/wcms.81
  2. Neese, F.
     Software update: the ORCA program system, version 4.0
     WIRES Comput. Molec. Sci. 2018 8(1), 1-6
     doi.org/10.1002/wcms.1327
  3. Neese, F.; Wennmohs, F.; Becker, U.; Riplinger, C.
     The ORCA quantum chemistry program package
     J. Chem. Phys. 2020 152(22), 224108
     doi.org/10.1063/5.0004608
  4. Neese, F.
     Software update: The ORCA program system—Version 5.0
     WIRES Comput. Molec. Sci. 2022 12(1), e1606
     doi.org/10.1002/wcms.1606

List of optional additional citations

  1. Neese, F.
     Approximate second-order SCF convergence for spin unrestricted wavefunctions
     Chem. Phys. Lett. 2000 325(1-3), 93-98
     doi.org/10.1016/s0009-2614(00)00662-x

Timings for individual modules:

Sum of individual times          ...       89.354 sec (=   1.489 min)
Startup calculation              ...        4.733 sec (=   0.079 min)   5.3 %
SCF iterations                   ...       51.709 sec (=   0.862 min)  57.9 %
Property calculations            ...        0.043 sec (=   0.001 min)   0.0 %
SCF Gradient evaluation          ...       32.852 sec (=   0.548 min)  36.8 %
Geometry relaxation              ...        0.017 sec (=   0.000 min)   0.0 %
                             ****ORCA TERMINATED NORMALLY****
TOTAL RUN TIME: 0 days 0 hours 1 minutes 29 seconds 588 msec
