
                                 *****************
                                 * O   R   C   A *
                                 *****************

                                            #,                                       
                                            ###                                      
                                            ####                                     
                                            #####                                    
                                            ######                                   
                                           ########,                                 
                                     ,,################,,,,,                         
                               ,,#################################,,                 
                          ,,##########################################,,             
                       ,#########################################, ''#####,          
                    ,#############################################,,   '####,        
                  ,##################################################,,,,####,       
                ,###########''''           ''''###############################       
              ,#####''   ,,,,##########,,,,          '''####'''          '####       
            ,##' ,,,,###########################,,,                        '##       
           ' ,,###''''                  '''############,,,                           
         ,,##''                                '''############,,,,        ,,,,,,###''
      ,#''                                            '''#######################'''  
     '                                                          ''''####''''         
             ,#######,   #######,   ,#######,      ##                                
            ,#'     '#,  ##    ##  ,#'     '#,    #''#        ,####,    ,#,          
            ##       ##  ##   ,#'  ##            #'  '#       #'       ,# #          
            ##       ##  #######   ##           ,######,      #####,      #          
            '#,     ,#'  ##    ##  '#,     ,#' ,#      #,     #,   #      #          
             '#######'   ##     ##  '#######'  #'      '#     '####' #    #          



                #########################################################
                #                        -***-                          #
                #          Department of theory and spectroscopy        #
                #                                                       #
                #                      Frank Neese                      #
                #                                                       #
                #     Directorship, Architecture, Infrastructure        #
                #                    SHARK, DRIVERS                     #
                #        Core code/Algorithms in most modules           #
                #                                                       #
                #        Max Planck Institute fuer Kohlenforschung      #
                #                Kaiser Wilhelm Platz 1                 #
                #                 D-45470 Muelheim/Ruhr                 #
                #                      Germany                          #
                #                                                       #
                #                  All rights reserved                  #
                #                        -***-                          #
                #########################################################


                         Program Version 6.1.0  -  RELEASE   -
                                (GIT: $679e74b$)
                          ($2025-06-10 18:02:51 +0200$)


 With contributions from (in alphabetic order):
[Max-Planck-Institut fuer Kohlenforschung]                               
  Daniel Aravena         : Magnetic Suceptibility                        
  Michael Atanasov       : Ab Initio Ligand Field Theory (pilot matlab implementation)
  Alexander A. Auer      : GIAO ZORA, VPT2 properties, NMR spectrum      
  Ute Becker             : All parallelization in ORCA, NUMFREQ, NUMCALC 
  Giovanni Bistoni       : ED, misc. LED, open-shell LED, HFLD           
  Dmytro Bykov           : pre 5.0 version of the SCF Hessian            
  Marcos Casanova-Páez   : Triplet and SCS-CIS(D). UHF-(DLPNO)-IP/EA/STEOM-CCSD. UHF-CVS-IP/STEOM-CCSD   
  Vijay G. Chilkuri      : MRCI spin determinant printing, contributions to CSF-ICE 
  Pauline Colinet        : FMM embedding                                 
  Dipayan Datta          : RHF DLPNO-CCSD density                        
  Achintya Kumar Dutta   : EOM-CC, STEOM-CC                              
  Nicolas Foglia         : Exact transition moments, OPA infrastructure, MCD improvements    
  Dmitry Ganyushin       : Spin-Orbit,Spin-Spin,Magnetic field MRCI      
  Miquel Garcia-Rates    : C-PCM and meta-GGA Hessian, CCSD/C-PCM, Gaussian charge scheme 
  Tiago L. C. Gouveia    : GS-ROHF, GS-ROCIS                             
  Yang Guo               : DLPNO-NEVPT2, F12-NEVPT2, CIM, IAO-localization        
  Andreas Hansen         : Spin unrestricted coupled pair/coupled cluster methods 
  Ingolf Harden          : AUTO-CI MPn and infrastructure                
  Benjamin Helmich-Paris : MC-RPA, TRAH-(SCF,CASSCF), AVAS, COSX integrals, SCF dyn. polar., MC-PDFT, srDFT 
  Lee Huntington         : MR-EOM, pCC                                   
  Robert Izsak           : Overlap fitted RIJCOSX, COSX-SCS-MP3, EOM     
  Riya Kayal             : Wick's Theorem for AUTO-CI, AUTO-CI UHF-CCSDT 
  Emily Kempfer          : AUTO-CI RHF CISDT and CCSDT, approximate NEVPT4
  Christian Kollmar      : KDIIS, OOCD, Brueckner-CCSD(T), CCSD density, CASPT2, CASPT2-K, improved NEVPT2 
  Axel Koslowski         : Symmetry handling                             
  Simone Kossmann        : meta-GGA functionals, TD-DFT gradient, OOMP2, (MP2 Hessian; deprecated post 5.0) 
  Lucas Lang             : DCDCAS, Hyperfine gauge corrections, ICE-SOC+SSC
  Marvin Lechner         : AUTO-CI (C++ implementation), FIC-MRCC        
  Spencer Leger          : CASSCF response                               
  Dagmar Lenk            : GEPOL surface, SMD, ORCA-2-JSON               
  Dimitrios Liakos       : Extrapolation schemes; Compound Job, Property file
  Dimitrios Manganas     : Further ROCIS development; embedding schemes. LFT, Crystal Embedding 
  Dimitrios Pantazis     : SARC Basis sets                               
  Anastasios Papadopoulos: AUTO-CI, single reference methods and gradients 
  Taras Petrenko         : pre 6.0 DFT Hessian and TD-DFT gradient,  ECA, NRVS 
  Petra Pikulova         : Analytic Raman intensities                    
  Peter Pinski           : DLPNO-MP2, DLPNO-MP2 Gradient                 
  Shashank Vittal Rao    : ES-AILFT, MagRelax                            
  Christoph Reimann      : Effective Core Potentials                     
  Marius Retegan         : Local ZFS, SOC                                
  Christoph Riplinger    : Optimizer, TS searches, QM/MM, DLPNO-CCSD(T), (RO)-DLPNO pert. Triples 
  Michael Roemelt        : Original ROCIS implementation, recursive CI coupling coefficients
  Masaaki Saitow         : Open-shell DLPNO-CCSD energy and density      
  Barbara Sandhoefer     : DKH picture change effects                    
  Yorick L. A. Schmerwitz: GMF and freeze-and-release deltaSCF, NEB S-IDPP initial path                    
  Kantharuban Sivalingam : CASSCF convergence/infrastructure, NEVPT2, NEVPT3, NEVPT4(SD), FIC-MRCI and CEPA variants
  Bernardo de Souza      : ESD, SOC TD-DFT                               
  Georgi L. Stoychev     : AutoAux, RI-MP2 NMR, DLPNO-MP2 response, X2C  
  Van Anh Tran           : RI-MP2 g-tensors                              
  Willem Van den Heuvel  : Paramagnetic NMR                              
  Zikuan Wang            : NOTCH, Electric field optimization            
  Frank Wennmohs         : Technical directorship and infrastructure     
  Hang Xu                : AUTO-CI-Response properties                   
                                                                         
[FACCTs GmbH]                                                            
  Markus Bursch, Nicolas Foglia, Miquel Garcia-Rates, Ingolf Harden, Hagen Neugebauer, Anastasios Papadopoulos, 
  Christoph Riplinger, Bernardo de Souza, Georgi L. Stoychev                                                    
                                                                 
  APM, various basis sets, CI-OPT, improved COSX, DLPNO-Multilevel,           
  DOCKER, DRACO, updates on ESD, Fragmentator, GOAT, IRC, LR-CPCM, L-BFGS, MBIS, meta-GGA TD-DFT gradient, ML-optimized integration grids, 
  MM, NACMEs, nearIR, NEB, NEB-TS, NL-DFT gradient (VV10), 2- and 3-layer-ONIOM, interface openCOSMO-RS, QMMM,   
  Crystal-QMMM, RESP, rigid body optimization, SF, symmetry and pop. for TD-DFT, various functionals, SOLVATOR                                   
                                                                         
[Other institutions]                                                     
  V. Asgeirsson          : NEB                                           
  Christoph Bannwarth    : sTDA-DFT, sTD-DFT, PBEh-3c, B97-3c, D3        
  Giovanni Bistoni       : ETS/NOCV, ADLD/ADEX, COVALED                  
  Martin Brehm           : Molecular dynamics                            
  Ronald Cardenas        : ETS/NOCV                                      
  Martina Colucci        : COVALED                                       
  Sebastian Ehlert       : rSCAN, r2SCAN, r2SCAN-3c, D4, dhf basis sets  
  Marvin Friede          : D4 for Fr, Ra, Ac-Lr                          
  Lars Goerigk           : TD-DFT with DH, B97 family of functionals     
  Stefan Grimme          : VdW corrections, initial TS optimization, DFT functionals, gCP, sTDA/sTD-DF 
  Waldemar Hujo          : DFT-NL                                        
  H. Jonsson             : NEB                                           
  Holger Kruse           : gCP                                           
  Marcel Mueller         : wB97X-3c, vDZP basis set                      
  Hagen Neugebauer       : wr2SCAN, Native XTB                           
  Gianluca Regni         : ADLD/ADEX                                     
  Tobias Risthaus        : pre 6.0 range-separated hybrid DFT and stability analysis
  Lukas Wittmann         : regularized MP2, r2SCAN double-hybrids, wr2SCAN        
                                                                         
We gratefully acknowledge several colleagues who have allowed us to      
interface, adapt or use parts of their codes:                            
  Ed Valeev, F. Pavosevic, A. Kumar             : LibInt (2-el integral package), F12 methods 
  Garnet Chan, S. Sharma, J. Yang, R. Olivares  : DMRG                   
  Ulf Ekstrom                                   : XCFun DFT Library      
  Mihaly Kallay                                 : mrcc  (arbitrary order and MRCC methods)
  Frank Weinhold                                : gennbo (NPA and NBO analysis)           
  Simon Mueller                                 : openCOSMO-RS                            
  Christopher J. Cramer and Donald G. Truhlar   : smd solvation model                     
  S Lehtola, MJT Oliveira, MAL Marques          : LibXC Library                           
  Liviu Ungur et al                             : ANISO software                          


 Your calculation uses the libint2 library for the computation of 2-el integrals
 For citations please refer to: http://libint.valeyev.net

 Your ORCA version has been built with support for libXC version: 7.0.0
 For citations please refer to: https://libxc.gitlab.io

 This ORCA versions uses:
   CBLAS   interface :  Fast vector & matrix operations
   LAPACKE interface :  Fast linear algebra routines
   SCALAPACK package :  Parallel linear algebra routines
   Shared memory     :  Shared parallel matrices
   BLAS/LAPACK       :  OpenBLAS 0.3.29  USE64BITINT DYNAMIC_ARCH NO_AFFINITY Haswell SINGLE_THREADED
        Core in use  :  Haswell
   Copyright (c) 2011-2014, The OpenBLAS Project


  ***********************************
  * Starting time: Sat Aug 16 15:52:51 2025
  * Host name:     CHEMLAB02
  * Process ID:    1906990
  * Working dir.:  /home/vivek/mm-project/vivek/xtb-goat/B97-D/l/0
  ***********************************



***************************************
The coordinates will be read from file: /home/vivek/mm-project/vivek/xtb-goat/xtb-goat/l/L_CONF/0.xyz
***************************************


Your calculation utilizes empirical dispersion correction


Warning: RI is on but no J-basis has been assigned. Assigning Def2/J (nothing to worry about!)
================================================================================

----- Orbital basis set information -----
Your calculation utilizes the basis: 6-31G**
   H-He, Li-Ne : W. J. Hehre, R. Ditchfield and J.A. Pople, J. Chem. Phys. 56, 2257 (1972).
                 Note: He and Ne are unpublished basis sets taken from the Gaussian program.
                 Note: Li and B from J. D. Dill and J. A. Pople, J. Chem. Phys. 62, 2921 (1975).
   Na - Ar     : M. M. Francl, W. J. Pietro, W. J. Hehre, J. S. Binkley, M. S. Gordon, 
                 D. J. DeFrees and J. A. Pople, J. Chem. Phys. 77, 3654 (1982).
   K - Zn      : V. A. Rassolov, J. A. Pople, M. A. Ratner, and T. L. Windus, J. Chem. Phys. 109, 1223 (1998).

----- AuxJ basis set information -----
Your calculation utilizes the auxiliary basis: def2/J
   H-Rn: F. Weigend, Phys. Chem. Chem. Phys. 8, 1057 (2006).
   Fr-Lr: K. Eichkorn, F. Weigend, O. Treutler, R. Ahlrichs; Theor. Chem. Acc. 97, 119 (1997).

================================================================================
                                        WARNINGS
                       Please study these warnings very carefully!
================================================================================


INFO   : The exchange functional is Grimme's B97(-D)
         As described in S. Grimme, J. Comput. Chem. 27, 1787 (2006).
         Note that this functional defaults to a pure GGA. 

INFO   : The correlation functional is Grimme's B97(-D)
         As described in S. Grimme, J. Comput. Chem. 27, 1787 (2006).

================================================================================
                                       INPUT FILE
================================================================================
NAME = 0.inp
|  1> ! B97-D 6-31G** 
|  2> 
|  3> * xyzfile 0 1 /home/vivek/mm-project/vivek/xtb-goat/xtb-goat/l/L_CONF/0.xyz
|  4> 
|  5>                          ****END OF INPUT****
================================================================================

                       ****************************
                       * Single Point Calculation *
                       ****************************

---------------------------------
CARTESIAN COORDINATES (ANGSTROEM)
---------------------------------
  C     -9.435995    6.473816   -1.709453
  C     -8.241711    7.283351   -1.221681
  H    -10.273873    7.921700   -2.871332
  H     -9.216082    6.964191   -3.662667
  C     -8.990379    5.008430   -1.851740
  H    -10.221515    6.544445   -0.950449
  H    -10.650048    3.436747   -0.295931
  N     -9.958435    6.962435   -2.969125
  C    -10.130071    4.084177   -2.292643
  H     -8.191910    4.970203   -2.597196
  H     -8.583663    4.668825   -0.897565
  C     -9.557303    2.743575   -2.747780
  H     -8.867063    2.878144   -3.577343
  C    -11.138934    3.865432   -1.168749
  H     -9.023471    2.261352   -1.931153
  H    -10.355553    2.080786   -3.073164
  H    -10.638218    4.560999   -3.135464
  H    -11.610590    4.799935   -0.878749
  H    -11.919908    3.182069   -1.493701
  O     -7.931601    7.029202    0.054862
  H     -7.156117    7.546909    0.325315
  O     -7.626752    8.066085   -1.897704

----------------------------
CARTESIAN COORDINATES (A.U.)
----------------------------
  NO LB      ZA    FRAG     MASS         X           Y           Z
   0 C     6.0000    0    12.011  -17.831446   12.233740   -3.230398
   1 C     6.0000    0    12.011  -15.574577   13.763539   -2.308643
   2 H     1.0000    0     1.008  -19.414807   14.969843   -5.426031
   3 H     1.0000    0     1.008  -17.415872   13.160413   -6.921438
   4 C     6.0000    0    12.011  -16.989354    9.464561   -3.499281
   5 H     1.0000    0     1.008  -19.315863   12.367208   -1.796088
   6 H     1.0000    0     1.008  -20.125673    6.494511   -0.559229
   7 N     7.0000    0    14.007  -18.818715   13.157096   -5.610834
   8 C     6.0000    0    12.011  -19.143060    7.717976   -4.332468
   9 H     1.0000    0     1.008  -15.480466    9.392323   -4.907989
  10 H     1.0000    0     1.008  -16.220771    8.822801   -1.696152
  11 C     6.0000    0    12.011  -18.060685    5.184605   -5.192551
  12 H     1.0000    0     1.008  -16.756321    5.438904   -6.760198
  13 C     6.0000    0    12.011  -21.049535    7.304608   -2.208616
  14 H     1.0000    0     1.008  -17.051889    4.273336   -3.649350
  15 H     1.0000    0     1.008  -19.569159    3.932115   -5.807439
  16 H     1.0000    0     1.008  -20.103319    8.619039   -5.925168
  17 H     1.0000    0     1.008  -21.940836    9.070563   -1.660595
  18 H     1.0000    0     1.008  -22.525361    6.013239   -2.822686
  19 O     8.0000    0    15.999  -14.988554   13.283268    0.103674
  20 H     1.0000    0     1.008  -13.523101   14.261591    0.614757
  21 O     8.0000    0    15.999  -14.412473   15.242692   -3.586140

--------------------------------
INTERNAL COORDINATES (ANGSTROEM)
--------------------------------
 C      0   0   0     0.000000000000     0.00000000     0.00000000
 C      1   0   0     1.523016873848     0.00000000     0.00000000
 H      1   2   0     2.036754816907    97.32099958     0.00000000
 H      3   1   2     1.631550532359    65.96955064    90.68140819
 C      1   2   3     1.538238085031   107.98817785   146.09598467
 H      1   2   3     1.094585286420   107.84043952   264.31598453
 H      5   1   2     2.765000172975   108.39500920   123.27358922
 N      3   1   2     1.014521200342    41.83418307   125.54560963
 C      5   1   2     1.532167452827   112.69313854   177.98720298
 H      5   1   2     1.093031747646   107.94024177   298.44055387
 H      5   1   2     1.091420965329   108.87513422    55.73364595
 C      9   5   1     1.527228413061   109.65201468   165.90660466
 H     12   9   5     1.087526577466   110.90003422   300.55231839
 C      7   5   1     1.088389558515    66.07767278    69.53982080
 H     12   9   5     1.088298969028   110.44410027    60.76476294
 H     12   9   5     1.087366959775   110.42060089   180.56614342
 H      9   5   1     1.093581110629   107.72180212    47.28631839
 H     14   7   5     1.086211601348   108.65091504   266.59024268
 H     14   7   5     1.087427249762   108.34384297   149.52308628
 O      2   1   3     1.338029490537   112.72631601   142.45781584
 H     20   2   1     0.970845461950   110.46374028   178.77407788
 O      2   1   3     1.203268100049   124.51316886   322.09758824

---------------------------
INTERNAL COORDINATES (A.U.)
---------------------------
 C      0   0   0     0.000000000000     0.00000000     0.00000000
 C      1   0   0     2.878084788913     0.00000000     0.00000000
 H      1   2   0     3.848908805899    97.32099958     0.00000000
 H      3   1   2     3.083183679813    65.96955064    90.68140819
 C      1   2   3     2.906848709477   107.98817785   146.09598467
 H      1   2   3     2.068466421553   107.84043952   264.31598453
 H      5   1   2     5.225093087169   108.39500920   123.27358922
 N      3   1   2     1.917167225703    41.83418307   125.54560963
 C      5   1   2     2.895376877152   112.69313854   177.98720298
 H      5   1   2     2.065530658732   107.94024177   298.44055387
 H      5   1   2     2.062486721291   108.87513422    55.73364595
 C      9   5   1     2.886043444628   109.65201468   165.90660466
 H     12   9   5     2.055127394772   110.90003422   300.55231839
 C      7   5   1     2.056758192612    66.07767278    69.53982080
 H     12   9   5     2.056587003292   110.44410027    60.76476294
 H     12   9   5     2.054825761049   110.42060089   180.56614342
 H      9   5   1     2.066568804318   107.72180212    47.28631839
 H     14   7   5     2.052642450035   108.65091504   266.59024268
 H     14   7   5     2.054939692614   108.34384297   149.52308628
 O      2   1   3     2.528509296225   112.72631601   142.45781584
 H     20   2   1     1.834632041446   110.46374028   178.77407788
 O      2   1   3     2.273847174777   124.51316886   322.09758824

---------------------
BASIS SET INFORMATION
---------------------
There are 4 groups of distinct atoms

 Group   1 Type C   : 10s4p1d contracted to 3s2p1d pattern {631/31/1}
 Group   2 Type H   : 4s1p contracted to 2s1p pattern {31/1}
 Group   3 Type N   : 10s4p1d contracted to 3s2p1d pattern {631/31/1}
 Group   4 Type O   : 10s4p1d contracted to 3s2p1d pattern {631/31/1}

Atom   0C    basis set group =>   1
Atom   1C    basis set group =>   1
Atom   2H    basis set group =>   2
Atom   3H    basis set group =>   2
Atom   4C    basis set group =>   1
Atom   5H    basis set group =>   2
Atom   6H    basis set group =>   2
Atom   7N    basis set group =>   3
Atom   8C    basis set group =>   1
Atom   9H    basis set group =>   2
Atom  10H    basis set group =>   2
Atom  11C    basis set group =>   1
Atom  12H    basis set group =>   2
Atom  13C    basis set group =>   1
Atom  14H    basis set group =>   2
Atom  15H    basis set group =>   2
Atom  16H    basis set group =>   2
Atom  17H    basis set group =>   2
Atom  18H    basis set group =>   2
Atom  19O    basis set group =>   4
Atom  20H    basis set group =>   2
Atom  21O    basis set group =>   4
---------------------------------
AUXILIARY/J BASIS SET INFORMATION
---------------------------------
There are 4 groups of distinct atoms

 Group   1 Type C   : 12s5p4d2f1g contracted to 6s4p3d1f1g pattern {711111/2111/211/2/1}
 Group   2 Type H   : 5s2p1d contracted to 3s1p1d pattern {311/2/1}
 Group   3 Type N   : 12s5p4d2f1g contracted to 6s4p3d1f1g pattern {711111/2111/211/2/1}
 Group   4 Type O   : 12s5p4d2f1g contracted to 6s4p3d1f1g pattern {711111/2111/211/2/1}

Atom   0C    basis set group =>   1
Atom   1C    basis set group =>   1
Atom   2H    basis set group =>   2
Atom   3H    basis set group =>   2
Atom   4C    basis set group =>   1
Atom   5H    basis set group =>   2
Atom   6H    basis set group =>   2
Atom   7N    basis set group =>   3
Atom   8C    basis set group =>   1
Atom   9H    basis set group =>   2
Atom  10H    basis set group =>   2
Atom  11C    basis set group =>   1
Atom  12H    basis set group =>   2
Atom  13C    basis set group =>   1
Atom  14H    basis set group =>   2
Atom  15H    basis set group =>   2
Atom  16H    basis set group =>   2
Atom  17H    basis set group =>   2
Atom  18H    basis set group =>   2
Atom  19O    basis set group =>   4
Atom  20H    basis set group =>   2
Atom  21O    basis set group =>   4
------------------------------------------------------------------------------
                             ORCA STARTUP CALCULATIONS
                           -- RI-GTO INTEGRALS CHOSEN --
------------------------------------------------------------------------------
------------------------------------------------------------------------------
                   ___                                                        
                  /   \      - P O W E R E D   B Y -                         
                 /     \                                                     
                 |  |  |   _    _      __       _____    __    __             
                 |  |  |  | |  | |    /  \     |  _  \  |  |  /  |          
                  \  \/   | |  | |   /    \    | | | |  |  | /  /          
                 / \  \   | |__| |  /  /\  \   | |_| |  |  |/  /          
                |  |  |   |  __  | /  /__\  \  |    /   |      \           
                |  |  |   | |  | | |   __   |  |    \   |  |\   \          
                \     /   | |  | | |  |  |  |  | |\  \  |  | \   \       
                 \___/    |_|  |_| |__|  |__|  |_| \__\ |__|  \__/        
                                                                              
                      - O R C A' S   B I G   F R I E N D -                    
                                      &                                       
                       - I N T E G R A L  F E E D E R -                       
                                                                              
 v1 FN, 2020, v2 2021, v3 2022-2024                                           
------------------------------------------------------------------------------


----------------------
SHARK INTEGRAL PACKAGE
----------------------

Number of atoms                             ...     22
Number of basis functions                   ...    191
Number of shells                            ...     93
Maximum angular momentum                    ...      2
Integral batch strategy                     ... SHARK/LIBINT Hybrid
RI-J (if used) integral strategy            ... SPLIT-RIJ (Revised 2003 algorithm where possible)
Printlevel                                  ...      1
Contraction scheme used                     ... SEGMENTED contraction
Prescreening option                         ... SCHWARTZ
   Thresh                                   ... 1.000e-10
   Tcut                                     ... 1.000e-11
   Tpresel                                  ... 1.000e-11 
Coulomb Range Separation                    ... NOT USED
Exchange Range Separation                   ... NOT USED
Multipole approximations                    ... NOT USED
Finite Nucleus Model                        ... NOT USED
CABS basis                                  ... NOT available
Auxiliary Coulomb fitting basis             ... AVAILABLE
   # of basis functions in Aux-J            ...    584
   # of shells in Aux-J                     ...    200
   Maximum angular momentum in Aux-J        ...      4
Auxiliary J/K fitting basis                 ... NOT available
Auxiliary Correlation fitting basis         ... NOT available
Auxiliary 'external' fitting basis          ... NOT available

Checking pre-screening integrals            ... done (  0.0 sec) Dimension = 93
   => SHARK Basis and OBASIS are compatible. Storing Pre-screening
Shell pair information
Shell pair cut-off parameter TPreSel        ...   1.0e-11
Total number of shell pairs                 ...      4371
Shell pairs after pre-screening             ...      3847
Total number of primitive shell pairs       ...     20328
Primitive shell pairs kept                  ...     11833
          la=0 lb=0:   1275 shell pairs
          la=1 lb=0:   1443 shell pairs
          la=1 lb=1:    433 shell pairs
          la=2 lb=0:    417 shell pairs
          la=2 lb=1:    238 shell pairs
          la=2 lb=2:     41 shell pairs

Checking whether 4 symmetric matrices of dimension 191 fit in memory
:Max Core in MB      =   4096.00
 MB in use           =      8.51
 MB left             =   4087.49
 MB needed           =      0.56
 Data fit in memory  = YES
Calculating RI/J V-Matrix + Cholesky decomp.... done (  0.0 sec)
Calculating Nuclear repulsion               ... done (  0.0 sec) ENN=    482.464794012770 Eh

Diagonalization of the overlap matrix:
Smallest eigenvalue                        ... 2.701e-03
Time for diagonalization                   ...    0.002 sec
Threshold for overlap eigenvalues          ... 1.000e-07
Number of eigenvalues below threshold      ... 0
Time for construction of square roots      ...    0.001 sec
Total time needed                          ...    0.003 sec

-------------------
DFT GRID GENERATION
-------------------

General Integration Accuracy     IntAcc      ... 4.388
Radial Grid Type                 RadialGrid  ... OptM3 with GC (2021)
Angular Grid (max. ang.)         AngularGrid ... 4 (Lebedev-302)
Angular grid pruning method      GridPruning ... 4 (adaptive)
Weight generation scheme         WeightScheme... mBecke (2022)
Basis function cutoff            BFCut       ... 1.0000e-10
Integration weight cutoff        WCut        ... 1.0000e-14
Partially contracted basis set               ... off
Rotationally invariant grid construction     ... off
Angular grids for H and He will be reduced by one unit

Total number of grid points                  ...    95690
Total number of batches                      ...     1504
Average number of points per batch           ...       63
Average number of grid points per atom       ...     4350
Grids setup in   0.4 sec
Initializing property integral containers    ... done (  0.0 sec)

SHARK setup successfully completed in   0.4 seconds

Maximum memory used throughout the entire STARTUP-calculation: 40.4 MB
-------------------------------------------------------------------------------
                                 ORCA GUESS
                   Start orbitals & Density for SCF / CASSCF
-------------------------------------------------------------------------------

------------
SCF SETTINGS
------------
Hamiltonian:
 Density Functional     Method          .... DFT(GTOs)
 Exchange Functional    Exchange        .... B97(D)
 Correlation Functional Correlation     .... B97(D)
 Gradients option       PostSCFGGA      .... off
 RI-approximation to the Coulomb term is turned on
   Number of AuxJ basis functions       .... 584


General Settings:
 Integral files         IntName         .... 0
 Hartree-Fock type      HFTyp           .... RHF
 Total Charge           Charge          ....    0
 Multiplicity           Mult            ....    1
 Number of Electrons    NEL             ....   72
 Basis Dimension        Dim             ....  191
 Nuclear Repulsion      ENuc            ....    482.4647940128 Eh

Convergence Acceleration:
 AO-DIIS                CNVDIIS         .... on
   Start iteration      DIISMaxIt       ....    12
   Startup error        DIISStart       ....  0.200000
   # of expansion vecs  DIISMaxEq       ....     5
   Bias factor          DIISBfac        ....   1.050
   Max. coefficient     DIISMaxC        ....  10.000
 MO-DIIS                CNVKDIIS        .... off
 Trust-Rad. Augm. Hess. CNVTRAH         .... auto
   Auto Start mean grad. ratio tolernc. ....  1.125000
   Auto Start start iteration           ....    50
   Auto Start num. interpolation iter.  ....    10
   Max. Number of Micro iterations      ....    24
   Max. Number of Macro iterations      .... Maxiter - #DIIS iter
   Number of Davidson start vectors     ....     2
   Converg. threshold    (grad. norm)   ....   5.000e-05
   Grad. Scal. Fac. for Micro threshold ....   0.100
   Minimum threshold for Micro iter.    ....   1.000e-02
   NR start threshold (gradient norm)   ....   1.000e-04
   Initial trust radius                 ....   0.400
   Minimum AH scaling param. (alpha)    ....   1.000
   Maximum AH scaling param. (alpha)    .... 1000.000
   Quad. conv. algorithm                .... NR
   White noise on init. David. guess    .... on
   Maximum white noise                  ....   0.010
   Pseudo random numbers                .... off
   Inactive MOs                         .... canonical
   Orbital update algorithm             .... Taylor
   Preconditioner                       .... Diag
   Full preconditioner red. dimension   ....   250
 SOSCF                 CNVSOSCF           .... on
   Start iteration     SOSCFMaxIt         ....   150
   Startup grad/error  SOSCFStart         ....  0.003300
   Hessian update      SOSCFHessUp        .... L-BFGS
   Autom. constraints  SOSCFAutoConstrain .... off
 Level Shifting         CNVShift        .... on
   Level shift para.    LevelShift      ....    0.2500
   Turn off err/grad.   ShiftErr        ....    0.0010
 Zerner damping         CNVZerner       .... off
 Static damping         CNVDamp         .... on
   Fraction old density DampFac         ....    0.7000
   Max. Damping (<1)    DampMax         ....    0.9800
   Min. Damping (>=0)   DampMin         ....    0.0000
   Turn off err/grad.   DampErr         ....    0.1000

SCF Procedure:
 Maximum # iterations   MaxIter         ....   125
 SCF integral mode      SCFMode         .... Direct
   Integral package                     .... SHARK and LIBINT hybrid scheme
 Reset frequency        DirectResetFreq ....    20
 Integral Threshold     Thresh          ....  1.000e-10 Eh
 Primitive CutOff       TCut            ....  1.000e-11 Eh

Convergence Tolerance:
 Convergence Check Mode ConvCheckMode   .... Total+1el-Energy
 Convergence forced     ConvForced      .... 0
 Energy Change          TolE            ....  1.000e-06 Eh
 1-El. energy change                    ....  1.000e-03 Eh
 Orbital Gradient       TolG            ....  5.000e-05
 Orbital Rotation angle TolX            ....  5.000e-05
 DIIS Error             TolErr          ....  1.000e-06

------------------------------
INITIAL GUESS: MODEL POTENTIAL
------------------------------
Loading Hartree-Fock densities                     ... done
Calculating cut-offs                               ... done
Initializing the effective Hamiltonian             ... done
Setting up the integral package (SHARK)            ... done
Starting the Coulomb interaction                   ... done (   0.1 sec)
Making the grid                                    ... done (   0.1 sec)
Mapping shells                                     ... done
Starting the XC term evaluation                    ... done (   0.1 sec)
  promolecular density results
     # of electrons  =     71.998339884
     EX              =    -56.847917076
     EC              =     -3.116876343
     EX+EC           =    -59.964793419
Transforming the Hamiltonian                       ... done (   0.0 sec)
Diagonalizing the Hamiltonian                      ... done (   0.0 sec)
Back transforming the eigenvectors                 ... done (   0.0 sec)
Now organizing SCF variables                       ... done
                      ------------------
                      INITIAL GUESS DONE (   0.3 sec)
                      ------------------
             **** ENERGY FILE WAS UPDATED (0.en.tmp) ****
Finished Guess after   0.3 sec
Maximum memory used throughout the entire GUESS-calculation: 13.5 MB

-------------------------------------------------------------------------------------------
                                      ORCA LEAN-SCF
                              memory conserving SCF solver
-------------------------------------------------------------------------------------------

----------------------------------------D-I-I-S--------------------------------------------
Iteration    Energy (Eh)           Delta-E    RMSDP     MaxDP     DIISErr   Damp  Time(sec)
-------------------------------------------------------------------------------------------
               ***  Starting incremental Fock matrix formation  ***
    1    -441.0159108486992636     0.00e+00  3.60e-03  9.63e-02  2.54e-01  0.700   0.5
    2    -441.1968662064034561    -1.81e-01  2.37e-03  4.87e-02  9.34e-02  0.700   0.5
                               ***Turning on AO-DIIS***
    3    -441.2530373817046438    -5.62e-02  9.00e-04  1.71e-02  2.70e-02  0.700   0.5
    4    -441.2890921269977298    -3.61e-02  1.17e-03  1.86e-02  1.10e-02  0.000   0.5
    5    -441.3727419321278376    -8.36e-02  4.12e-04  8.50e-03  1.00e-02  0.000   0.5
                              *** Initializing SOSCF ***
---------------------------------------S-O-S-C-F--------------------------------------
Iteration    Energy (Eh)           Delta-E    RMSDP     MaxDP     MaxGrad    Time(sec)
--------------------------------------------------------------------------------------
    6    -441.3736667584552151    -9.25e-04  1.52e-04  3.06e-03  3.21e-03     0.5
               *** Restarting incremental Fock matrix formation ***
    7    -441.3737380876649468    -7.13e-05  1.24e-04  3.73e-03  8.84e-04     0.5
    8    -441.3737046800412145     3.34e-05  6.97e-05  2.75e-03  2.65e-03     0.4
    9    -441.3737481478320888    -4.35e-05  4.00e-05  7.25e-04  2.20e-04     0.4
   10    -441.3737463186156447     1.83e-06  2.24e-05  4.51e-04  2.04e-04     0.4
   11    -441.3737496679024161    -3.35e-06  5.39e-06  1.70e-04  2.60e-05     0.4
   12    -441.3737496037196024     6.42e-08  3.14e-06  1.12e-04  4.06e-05     0.4
                 **** Energy Check signals convergence ****

               *****************************************************
               *                     SUCCESS                       *
               *           SCF CONVERGED AFTER  12 CYCLES          *
               *****************************************************

             **** ENERGY FILE WAS UPDATED (0.en.tmp) ****

----------------
TOTAL SCF ENERGY
----------------

Total Energy       :       -441.37374969233883 Eh          -12010.39033 eV

Components:
Nuclear Repulsion  :        482.46479401277008 Eh           13128.53449 eV
Electronic Energy  :       -923.83854370510892 Eh          -25138.92481 eV
One Electron Energy:      -1556.99618313853193 Eh          -42368.02009 eV
Two Electron Energy:        633.15763943342301 Eh           17229.09528 eV

Virial components:
Potential Energy   :       -880.48114825583514 Eh          -23959.11010 eV
Kinetic Energy     :        439.10739856349630 Eh           11948.71978 eV
Virial Ratio       :          2.00516126837365

DFT components:
N(Alpha)           :       36.000039508553 electrons
N(Beta)            :       36.000039508553 electrons
N(Total)           :       72.000079017107 electrons
E(X)               :      -58.279320513713 Eh       
E(C)               :       -3.113705369662 Eh       
E(XC)              :      -61.393025883375 Eh       

---------------
SCF CONVERGENCE
---------------

  Last Energy change         ...   -6.4183e-08  Tolerance :   1.0000e-06
  Last MAX-Density change    ...    1.1241e-04  Tolerance :   1.0000e-05
  Last RMS-Density change    ...    3.1449e-06  Tolerance :   1.0000e-06
  Last DIIS Error            ...    3.2071e-03  Tolerance :   1.0000e-06
  Last Orbital Gradient      ...    4.0599e-05  Tolerance :   5.0000e-05
  Last Orbital Rotation      ...    3.8470e-05  Tolerance :   5.0000e-05


----------------
ORBITAL ENERGIES
----------------

  NO   OCC          E(Eh)            E(eV) 
   0   2.0000     -18.812649      -511.9182 
   1   2.0000     -18.751909      -510.2654 
   2   2.0000     -13.986362      -380.5883 
   3   2.0000     -10.025176      -272.7989 
   4   2.0000      -9.945162      -270.6216 
   5   2.0000      -9.904909      -269.5263 
   6   2.0000      -9.901003      -269.4200 
   7   2.0000      -9.888060      -269.0678 
   8   2.0000      -9.887927      -269.0642 
   9   2.0000      -1.019039       -27.7295 
  10   2.0000      -0.930062       -25.3083 
  11   2.0000      -0.815629       -22.1944 
  12   2.0000      -0.729167       -19.8416 
  13   2.0000      -0.666469       -18.1356 
  14   2.0000      -0.612767       -16.6742 
  15   2.0000      -0.598732       -16.2923 
  16   2.0000      -0.535085       -14.5604 
  17   2.0000      -0.498355       -13.5609 
  18   2.0000      -0.456815       -12.4306 
  19   2.0000      -0.439010       -11.9461 
  20   2.0000      -0.418747       -11.3947 
  21   2.0000      -0.398582       -10.8460 
  22   2.0000      -0.395402       -10.7594 
  23   2.0000      -0.384511       -10.4631 
  24   2.0000      -0.374242       -10.1836 
  25   2.0000      -0.349298        -9.5049 
  26   2.0000      -0.336151        -9.1471 
  27   2.0000      -0.331359        -9.0167 
  28   2.0000      -0.324866        -8.8400 
  29   2.0000      -0.310081        -8.4377 
  30   2.0000      -0.281040        -7.6475 
  31   2.0000      -0.277455        -7.5499 
  32   2.0000      -0.275230        -7.4894 
  33   2.0000      -0.270279        -7.3547 
  34   2.0000      -0.222055        -6.0424 
  35   2.0000      -0.194921        -5.3041 
  36   0.0000      -0.013980        -0.3804 
  37   0.0000       0.052191         1.4202 
  38   0.0000       0.065003         1.7688 
  39   0.0000       0.088495         2.4081 
  40   0.0000       0.097099         2.6422 
  41   0.0000       0.116919         3.1815 
  42   0.0000       0.127110         3.4588 
  43   0.0000       0.134899         3.6708 
  44   0.0000       0.145735         3.9657 
  45   0.0000       0.155964         4.2440 
  46   0.0000       0.169420         4.6101 
*Only the first 10 virtual orbitals were printed.

                    ********************************
                    * MULLIKEN POPULATION ANALYSIS *
                    ********************************

-----------------------
MULLIKEN ATOMIC CHARGES
-----------------------
   0 C :   -0.049827
   1 C :    0.483076
   2 H :    0.244302
   3 H :    0.245152
   4 C :   -0.180033
   5 H :    0.126199
   6 H :    0.100885
   7 N :   -0.549298
   8 C :   -0.065415
   9 H :    0.095519
  10 H :    0.113935
  11 C :   -0.321748
  12 H :    0.101555
  13 C :   -0.323628
  14 H :    0.100511
  15 H :    0.103281
  16 H :    0.121501
  17 H :    0.106187
  18 H :    0.105198
  19 O :   -0.455281
  20 H :    0.317144
  21 O :   -0.419213
Sum of atomic charges:   -0.0000000

--------------------------------
MULLIKEN REDUCED ORBITAL CHARGES
--------------------------------
  0 C s       :     3.197930  s :     3.197930
      pz      :     0.891894  p :     2.794349
      px      :     0.945815
      py      :     0.956639
      dz2     :     0.010533  d :     0.057549
      dxz     :     0.017335
      dyz     :     0.010743
      dx2y2   :     0.009188
      dxy     :     0.009751

  1 C s       :     2.989181  s :     2.989181
      pz      :     0.719781  p :     2.403378
      px      :     0.862521
      py      :     0.821076
      dz2     :     0.041838  d :     0.124366
      dxz     :     0.023971
      dyz     :     0.026112
      dx2y2   :     0.015550
      dxy     :     0.016895

  2 H s       :     0.731772  s :     0.731772
      pz      :     0.004691  p :     0.023926
      px      :     0.007912
      py      :     0.011323

  3 H s       :     0.730900  s :     0.730900
      pz      :     0.008491  p :     0.023948
      px      :     0.009617
      py      :     0.005840

  4 C s       :     3.233568  s :     3.233568
      pz      :     1.026525  p :     2.910215
      px      :     0.989033
      py      :     0.894657
      dz2     :     0.005884  d :     0.036250
      dxz     :     0.010512
      dyz     :     0.004488
      dx2y2   :     0.008448
      dxy     :     0.006919

  5 H s       :     0.862651  s :     0.862651
      pz      :     0.004076  p :     0.011149
      px      :     0.004582
      py      :     0.002492

  6 H s       :     0.887539  s :     0.887539
      pz      :     0.005077  p :     0.011576
      px      :     0.003244
      py      :     0.003255

  7 N s       :     3.585507  s :     3.585507
      pz      :     1.144521  p :     3.935355
      px      :     1.479029
      py      :     1.311805
      dz2     :     0.005837  d :     0.028436
      dxz     :     0.009791
      dyz     :     0.002350
      dx2y2   :     0.008492
      dxy     :     0.001966

  8 C s       :     3.204681  s :     3.204681
      pz      :     0.979067  p :     2.817477
      px      :     0.926583
      py      :     0.911828
      dz2     :     0.006827  d :     0.043258
      dxz     :     0.010748
      dyz     :     0.008372
      dx2y2   :     0.006900
      dxy     :     0.010411

  9 H s       :     0.892847  s :     0.892847
      pz      :     0.004378  p :     0.011635
      px      :     0.004750
      py      :     0.002507

 10 H s       :     0.874440  s :     0.874440
      pz      :     0.005689  p :     0.011624
      px      :     0.003146
      py      :     0.002790

 11 C s       :     3.248330  s :     3.248330
      pz      :     1.029705  p :     3.042855
      px      :     1.029114
      py      :     0.984036
      dz2     :     0.003560  d :     0.030563
      dxz     :     0.009129
      dyz     :     0.005916
      dx2y2   :     0.003722
      dxy     :     0.008236

 12 H s       :     0.886844  s :     0.886844
      pz      :     0.004851  p :     0.011601
      px      :     0.004194
      py      :     0.002556

 13 C s       :     3.246721  s :     3.246721
      pz      :     0.997057  p :     3.046481
      px      :     1.006390
      py      :     1.043034
      dz2     :     0.006016  d :     0.030427
      dxz     :     0.007425
      dyz     :     0.005424
      dx2y2   :     0.002755
      dxy     :     0.008806

 14 H s       :     0.887895  s :     0.887895
      pz      :     0.004650  p :     0.011595
      px      :     0.003563
      py      :     0.003382

 15 H s       :     0.885124  s :     0.885124
      pz      :     0.002999  p :     0.011596
      px      :     0.004580
      py      :     0.004017

 16 H s       :     0.866568  s :     0.866568
      pz      :     0.004837  p :     0.011931
      px      :     0.003264
      py      :     0.003830

 17 H s       :     0.882066  s :     0.882066
      pz      :     0.002874  p :     0.011747
      px      :     0.003426
      py      :     0.005447

 18 H s       :     0.883176  s :     0.883176
      pz      :     0.002862  p :     0.011626
      px      :     0.004592
      py      :     0.004173

 19 O s       :     3.824440  s :     3.824440
      pz      :     1.414478  p :     4.608127
      px      :     1.510369
      py      :     1.683279
      dz2     :     0.007725  d :     0.022714
      dxz     :     0.003761
      dyz     :     0.005082
      dx2y2   :     0.001617
      dxy     :     0.004530

 20 H s       :     0.644939  s :     0.644939
      pz      :     0.008234  p :     0.037917
      px      :     0.017137
      py      :     0.012546

 21 O s       :     3.855047  s :     3.855047
      pz      :     1.610241  p :     4.536137
      px      :     1.525034
      py      :     1.400862
      dz2     :     0.005108  d :     0.028029
      dxz     :     0.005335
      dyz     :     0.005713
      dx2y2   :     0.006932
      dxy     :     0.004940



                     *******************************
                     * LOEWDIN POPULATION ANALYSIS *
                     *******************************

----------------------
LOEWDIN ATOMIC CHARGES
----------------------
   0 C :   -0.051651
   1 C :    0.101183
   2 H :    0.127900
   3 H :    0.127503
   4 C :   -0.113906
   5 H :    0.081769
   6 H :    0.065227
   7 N :   -0.241645
   8 C :   -0.071348
   9 H :    0.067261
  10 H :    0.073700
  11 C :   -0.196143
  12 H :    0.066422
  13 C :   -0.196902
  14 H :    0.065087
  15 H :    0.068292
  16 H :    0.075539
  17 H :    0.067022
  18 H :    0.069949
  19 O :   -0.141916
  20 H :    0.181291
  21 O :   -0.224635

-------------------------------
LOEWDIN REDUCED ORBITAL CHARGES
-------------------------------
  0 C s       :     2.879342  s :     2.879342
      pz      :     0.985162  p :     3.041265
      px      :     1.029241
      py      :     1.026862
      dz2     :     0.024150  d :     0.131044
      dxz     :     0.038443
      dyz     :     0.023291
      dx2y2   :     0.021672
      dxy     :     0.023488

  1 C s       :     2.858244  s :     2.858244
      pz      :     0.898912  p :     2.742982
      px      :     0.941263
      py      :     0.902807
      dz2     :     0.104495  d :     0.297592
      dxz     :     0.055114
      dyz     :     0.064418
      dx2y2   :     0.031952
      dxy     :     0.041613

  2 H s       :     0.793234  s :     0.793234
      pz      :     0.012757  p :     0.078866
      px      :     0.022867
      py      :     0.043242

  3 H s       :     0.793334  s :     0.793334
      pz      :     0.029137  p :     0.079163
      px      :     0.034702
      py      :     0.015324

  4 C s       :     2.906309  s :     2.906309
      pz      :     1.077895  p :     3.126554
      px      :     1.055919
      py      :     0.992740
      dz2     :     0.013536  d :     0.081043
      dxz     :     0.021282
      dyz     :     0.009559
      dx2y2   :     0.019510
      dxy     :     0.017156

  5 H s       :     0.878126  s :     0.878126
      pz      :     0.015034  p :     0.040105
      px      :     0.017371
      py      :     0.007701

  6 H s       :     0.895217  s :     0.895217
      pz      :     0.018959  p :     0.039556
      px      :     0.010597
      py      :     0.010001

  7 N s       :     3.194566  s :     3.194566
      pz      :     1.192228  p :     3.989197
      px      :     1.470211
      py      :     1.326758
      dz2     :     0.014535  d :     0.057882
      dxz     :     0.019901
      dyz     :     0.006638
      dx2y2   :     0.012812
      dxy     :     0.003996

  8 C s       :     2.878638  s :     2.878638
      pz      :     1.052216  p :     3.093244
      px      :     1.025269
      py      :     1.015760
      dz2     :     0.014977  d :     0.099466
      dxz     :     0.025462
      dyz     :     0.018134
      dx2y2   :     0.015684
      dxy     :     0.025209

  9 H s       :     0.893190  s :     0.893190
      pz      :     0.015491  p :     0.039549
      px      :     0.017085
      py      :     0.006973

 10 H s       :     0.886130  s :     0.886130
      pz      :     0.021540  p :     0.040170
      px      :     0.009841
      py      :     0.008789

 11 C s       :     2.918693  s :     2.918693
      pz      :     1.081363  p :     3.212716
      px      :     1.081586
      py      :     1.049767
      dz2     :     0.007501  d :     0.064734
      dxz     :     0.018466
      dyz     :     0.012579
      dx2y2   :     0.008435
      dxy     :     0.017753

 12 H s       :     0.894115  s :     0.894115
      pz      :     0.017570  p :     0.039463
      px      :     0.014455
      py      :     0.007439

 13 C s       :     2.916995  s :     2.916995
      pz      :     1.062794  p :     3.215460
      px      :     1.067182
      py      :     1.085484
      dz2     :     0.012446  d :     0.064447
      dxz     :     0.017549
      dyz     :     0.010875
      dx2y2   :     0.005831
      dxy     :     0.017745

 14 H s       :     0.895343  s :     0.895343
      pz      :     0.017101  p :     0.039569
      px      :     0.011507
      py      :     0.010961

 15 H s       :     0.892159  s :     0.892159
      pz      :     0.008720  p :     0.039548
      px      :     0.016689
      py      :     0.014139

 16 H s       :     0.883570  s :     0.883570
      pz      :     0.018140  p :     0.040890
      px      :     0.010993
      py      :     0.011758

 17 H s       :     0.892843  s :     0.892843
      pz      :     0.008561  p :     0.040135
      px      :     0.010898
      py      :     0.020676

 18 H s       :     0.890485  s :     0.890485
      pz      :     0.008726  p :     0.039565
      px      :     0.016589
      py      :     0.014250

 19 O s       :     3.470455  s :     3.470455
      pz      :     1.448711  p :     4.620542
      px      :     1.505910
      py      :     1.665922
      dz2     :     0.019132  d :     0.050919
      dxz     :     0.010893
      dyz     :     0.010205
      dx2y2   :     0.002513
      dxy     :     0.008176

 20 H s       :     0.702933  s :     0.702933
      pz      :     0.023287  p :     0.115776
      px      :     0.053961
      py      :     0.038529

 21 O s       :     3.554525  s :     3.554525
      pz      :     1.626851  p :     4.612140
      px      :     1.546669
      py      :     1.438620
      dz2     :     0.009786  d :     0.057971
      dxz     :     0.011005
      dyz     :     0.014244
      dx2y2   :     0.009990
      dxy     :     0.012946



                      *****************************
                      * MAYER POPULATION ANALYSIS *
                      *****************************

  NA   - Mulliken gross atomic population
  ZA   - Total nuclear charge
  QA   - Mulliken gross atomic charge
  VA   - Mayer's total valence
  BVA  - Mayer's bonded valence
  FA   - Mayer's free valence

  ATOM       NA         ZA         QA         VA         BVA        FA
  0 C      6.0498     6.0000    -0.0498     3.8654     3.8654    -0.0000
  1 C      5.5169     6.0000     0.4831     3.9610     3.9610    -0.0000
  2 H      0.7557     1.0000     0.2443     0.9217     0.9217    -0.0000
  3 H      0.7548     1.0000     0.2452     0.9296     0.9296    -0.0000
  4 C      6.1800     6.0000    -0.1800     3.8653     3.8653    -0.0000
  5 H      0.8738     1.0000     0.1262     0.9527     0.9527     0.0000
  6 H      0.8991     1.0000     0.1009     0.9583     0.9583    -0.0000
  7 N      7.5493     7.0000    -0.5493     2.9199     2.9199    -0.0000
  8 C      6.0654     6.0000    -0.0654     3.9124     3.9124    -0.0000
  9 H      0.9045     1.0000     0.0955     0.9585     0.9585    -0.0000
 10 H      0.8861     1.0000     0.1139     0.9600     0.9600     0.0000
 11 C      6.3217     6.0000    -0.3217     3.8875     3.8875    -0.0000
 12 H      0.8984     1.0000     0.1016     0.9570     0.9570     0.0000
 13 C      6.3236     6.0000    -0.3236     3.8895     3.8895    -0.0000
 14 H      0.8995     1.0000     0.1005     0.9574     0.9574    -0.0000
 15 H      0.8967     1.0000     0.1033     0.9571     0.9571    -0.0000
 16 H      0.8785     1.0000     0.1215     0.9621     0.9621    -0.0000
 17 H      0.8938     1.0000     0.1062     0.9571     0.9571    -0.0000
 18 H      0.8948     1.0000     0.1052     0.9574     0.9574    -0.0000
 19 O      8.4553     8.0000    -0.4553     2.0293     2.0293     0.0000
 20 H      0.6829     1.0000     0.3171     0.9182     0.9182    -0.0000
 21 O      8.4192     8.0000    -0.4192     2.1165     2.1165    -0.0000

  Mayer bond orders larger than 0.100000
B(  0-C ,  1-C ) :   0.8980 B(  0-C ,  4-C ) :   0.9752 B(  0-C ,  5-H ) :   0.9175 
B(  0-C ,  7-N ) :   1.0522 B(  1-C , 19-O ) :   1.0798 B(  1-C , 21-O ) :   1.9314 
B(  2-H ,  7-N ) :   0.9076 B(  3-H ,  7-N ) :   0.9003 B(  4-C ,  8-C ) :   0.9943 
B(  4-C ,  9-H ) :   0.9404 B(  4-C , 10-H ) :   0.9377 B(  6-H , 13-C ) :   0.9584 
B(  8-C , 11-C ) :   1.0044 B(  8-C , 13-C ) :   1.0106 B(  8-C , 16-H ) :   0.9274 
B( 11-C , 12-H ) :   0.9598 B( 11-C , 14-H ) :   0.9590 B( 11-C , 15-H ) :   0.9596 
B( 13-C , 17-H ) :   0.9565 B( 13-C , 18-H ) :   0.9597 B( 19-O , 20-H ) :   0.8517 


-------
TIMINGS
-------

Total SCF time: 0 days 0 hours 0 min 6 sec 

Total time                  ....       6.037 sec
Sum of individual times     ....       5.637 sec  ( 93.4%)

SCF preparation             ....       0.027 sec  (  0.4%)
Fock matrix formation       ....       5.553 sec  ( 92.0%)
  Startup                   ....       0.001 sec  (  0.0% of F)
  Split-RI-J                ....       1.964 sec  ( 35.4% of F)
  XC integration            ....       3.970 sec  ( 71.5% of F)
    XC Preparation          ....       0.000 sec  (  0.0% of XC)
    Basis function eval.    ....       1.409 sec  ( 35.5% of XC)
    Density eval.           ....       0.883 sec  ( 22.3% of XC)
    XC-Functional eval.     ....       0.727 sec  ( 18.3% of XC)
    XC-Potential eval.      ....       0.844 sec  ( 21.3% of XC)
Diagonalization             ....       0.000 sec  (  0.0%)
Density matrix formation    ....       0.004 sec  (  0.1%)
Total Energy calculation    ....       0.001 sec  (  0.0%)
Population analysis         ....       0.003 sec  (  0.0%)
Orbital Transformation      ....       0.006 sec  (  0.1%)
Orbital Orthonormalization  ....       0.000 sec  (  0.0%)
DIIS solution               ....       0.028 sec  (  0.5%)
SOSCF solution              ....       0.016 sec  (  0.3%)
Finished LeanSCF after   6.0 sec

Maximum memory used throughout the entire LEANSCF-calculation: 21.1 MB



-------------------------------------------------------------------------------
                          DFT DISPERSION CORRECTION                            
-------------------------------------------------------------------------------
Active option DFTDOPT                   ...         2   
Final C6-coefficient scaling factor     ...     1.250
Final VDW-radii scaling factor          ...     1.100
Damping factor alpha                    ...    20.000
-------------------------   ----------------
Dispersion correction           -0.033032799
-------------------------   ----------------


-------------------------   --------------------
FINAL SINGLE POINT ENERGY      -441.406782490896
-------------------------   --------------------


------------------------------------------------------------------------------
                              ORCA PROPERTY CALCULATIONS
------------------------------------------------------------------------------

GBWName                                 ... 0.gbw
Number of atoms                         ...     22
Number of basis functions               ...    191
Max core memory                         ...   4096 MB

Electric properties:
Dipole moment                           ... YES
Quadrupole moment                       ...  NO
Static polarizability (Dipole/Dipole)   ...  NO
Static polarizability (Dipole/Quad.)    ...  NO
Static polarizability (Quad./Quad.)     ...  NO
Static polarizability (Velocity)        ...  NO
Static hyperpolarizability              ...  NO

Atomic electric properties:
Dipole moment                           ...  NO
Quadrupole moment                       ...  NO
Static polarizability                   ...  NO

Choice of electric origin               ... Center of mass
Position of electric origin             ...   -17.383791    10.879126    -3.289461

General magnetic properties:
Magnetizability                         ...  NO

EPR properties:
g-Tensor (aka g-matrix)                 ...  NO
Zero-Field splitting spin-orbit         ...  NO
Zero-field splitting spin-spin          ...  NO
Hyperfine couplings                     ...  NO (   0 nuclei)
Quadrupole couplings                    ...  NO (   0 nuclei)
Contact density                         ...  NO (   0 nuclei)

NMR properties:
Chemical shifts                         ...  NO (   0 nuclei)
Spin-rotation constants                 ...  NO (   0 nuclei)
Spin-spin couplings                     ...  NO (   0 nuclei,    0 pairs)

Choice of magnetic origin               ... GIAO
Position of magnetic origin             ...     0.000000     0.000000     0.000000

Properties with geometric perturbations:
SCF Hessian                             ...  NO
IR spectrum                             ...  NO
VCD spectrum                            ...  NO
X-ray spectroscopy properties:
SCF XES/XAS/RIXS spectra                ...  NO

SCF SOC stabilization energy            ...  NO
Diagonal Born-Oppenheimer correction    ...  NO

-------------
DIPOLE MOMENT
-------------

Method             : SCF
Type of density    : Electron Density
Multiplicity       :   1
Irrep              :   0
Energy             :  -441.3737496923388335 Eh
Basis              : AO
                                X                 Y                 Z
Electronic contribution:      6.739257036      12.099212241       2.695880788
Nuclear contribution   :     -6.641653378     -12.159683282      -2.243720426
                        -----------------------------------------
Total Dipole Moment    :      0.097603659      -0.060471040       0.452160363
                        -----------------------------------------
Magnitude (a.u.)       :      0.466510680
Magnitude (Debye)      :      1.185775913



--------------------
Rotational spectrum 
--------------------
 
Rotational constants in cm-1:             0.093404             0.028303             0.026506 
Rotational constants in MHz :          2800.168408           848.504458           794.619025 

Dipole components along the rotational axes: 
x,y,z [a.u.] :    -0.078034     0.450165    -0.094312 
x,y,z [Debye]:    -0.198346     1.144227    -0.239723 

 

Dipole moment calculation done in   0.0 sec 

Maximum memory used throughout the entire PROP-calculation: 11.9 MB

--------------------------------
SUGGESTED CITATIONS FOR THIS RUN
--------------------------------

Below you find a list of papers that are relevant to this ORCA run
We neither can nor want to force you to cite these papers, but we appreciate if you do
You receive ORCA, which is the product of decades of hard work by many enthusiastic individuals, for free
The only thing we kindly ask in return is that you cite our papers,
We deeply appreciate it, if you show your appreciation for ORCA by not just citing the generic ORCA reference.

Please note that relegating all ORCA citations to the supporting information does *not* help us.
SI sections are not indexed - citations you put there will not count into any citation statistics
But we need these citations in order to attract the funding resources that allow us to do what we are doing

Therefore, if you are a happy ORCA user, please consider citing a few of the papers listed below in the main body of your paper

In addition to the list printed below, the program has created the file 0.bibtex that contains the list in bibtex format
You can import this file easily into all common literature databanks and citation aid programs


List of essential papers. We consider these as the minimum necessary citations

  1. Neese, F.
     Software update: the ORCA program system, version 6.0
     WIRES Comput. Molec. Sci. 2025 15(1), e70019
     doi.org/10.1002/wcms.7019

List of papers to cite with high priority. The work reported in these papers was absolutely
necessary for this run to complete.
Our perspective: the developers of density functionals and basis sets usually get cited in chemistry papers
Good! But without the algorithms to do something with them, the functionals or basis sets would not do anything.
Hence, in our opinion, the algorithm design and method developments papers are equally worthy of getting cited

  1. Neese, F.
     An improvement of the resolution of the identity approximation for the formation of the Coulomb matrix
     J. Comp. Chem. 2003 24(14), 1740-1747
     doi.org/10.1002/jcc.10318
  2. Grimme, S.
     Semiempirical GGA-type density functional constructed with a long-range dispersion correction
     J.Comput.Chem. 2006 27(15), 1787-1799
     doi.org/10.1002/jcc.20495
  3. Neese, F.
     The SHARK Integral Generation and Digestion System
     J. Comp. Chem. 2022 44(3), 381
     doi.org/10.1002/jcc.26942

List of suggested additional citations. These are papers that are important in the 'surrounding' of 
of this run, or papers that preceded the highly important papers. If you like your results we are grateful for a citation.

  1. Neese, F.
     The ORCA program system
     WIRES Comput. Molec. Sci. 2012 2(1), 73-78
     doi.org/10.1002/wcms.81
  2. Neese, F.
     Software update: the ORCA program system, version 4.0
     WIRES Comput. Molec. Sci. 2018 8(1), 1-6
     doi.org/10.1002/wcms.1327
  3. Neese, F.; Wennmohs, F.; Becker, U.; Riplinger, C.
     The ORCA quantum chemistry program package
     J. Chem. Phys. 2020 152(22), 224108
     doi.org/10.1063/5.0004608
  4. Neese, F.
     Software update: The ORCA program system—Version 5.0
     WIRES Comput. Molec. Sci. 2022 12(1), e1606
     doi.org/10.1002/wcms.1606

List of optional additional citations

  1. Neese, F.
     Approximate second-order SCF convergence for spin unrestricted wavefunctions
     Chem. Phys. Lett. 2000 325(1-3), 93-98
     doi.org/10.1016/s0009-2614(00)00662-x

Timings for individual modules:

Sum of individual times          ...        6.843 sec (=   0.114 min)
Startup calculation              ...        0.460 sec (=   0.008 min)   6.7 %
SCF iterations                   ...        6.351 sec (=   0.106 min)  92.8 %
Property calculations            ...        0.032 sec (=   0.001 min)   0.5 %
                             ****ORCA TERMINATED NORMALLY****
TOTAL RUN TIME: 0 days 0 hours 0 minutes 6 seconds 885 msec
