
                                 *****************
                                 * O   R   C   A *
                                 *****************

                                            #,                                       
                                            ###                                      
                                            ####                                     
                                            #####                                    
                                            ######                                   
                                           ########,                                 
                                     ,,################,,,,,                         
                               ,,#################################,,                 
                          ,,##########################################,,             
                       ,#########################################, ''#####,          
                    ,#############################################,,   '####,        
                  ,##################################################,,,,####,       
                ,###########''''           ''''###############################       
              ,#####''   ,,,,##########,,,,          '''####'''          '####       
            ,##' ,,,,###########################,,,                        '##       
           ' ,,###''''                  '''############,,,                           
         ,,##''                                '''############,,,,        ,,,,,,###''
      ,#''                                            '''#######################'''  
     '                                                          ''''####''''         
             ,#######,   #######,   ,#######,      ##                                
            ,#'     '#,  ##    ##  ,#'     '#,    #''#        ,####,    ,#,          
            ##       ##  ##   ,#'  ##            #'  '#       #'       ,# #          
            ##       ##  #######   ##           ,######,      #####,      #          
            '#,     ,#'  ##    ##  '#,     ,#' ,#      #,     #,   #      #          
             '#######'   ##     ##  '#######'  #'      '#     '####' #    #          



                #########################################################
                #                        -***-                          #
                #          Department of theory and spectroscopy        #
                #                                                       #
                #                      Frank Neese                      #
                #                                                       #
                #     Directorship, Architecture, Infrastructure        #
                #                    SHARK, DRIVERS                     #
                #        Core code/Algorithms in most modules           #
                #                                                       #
                #        Max Planck Institute fuer Kohlenforschung      #
                #                Kaiser Wilhelm Platz 1                 #
                #                 D-45470 Muelheim/Ruhr                 #
                #                      Germany                          #
                #                                                       #
                #                  All rights reserved                  #
                #                        -***-                          #
                #########################################################


                         Program Version 6.1.0  -  RELEASE   -
                                (GIT: $679e74b$)
                          ($2025-06-10 18:02:51 +0200$)


 With contributions from (in alphabetic order):
[Max-Planck-Institut fuer Kohlenforschung]                               
  Daniel Aravena         : Magnetic Suceptibility                        
  Michael Atanasov       : Ab Initio Ligand Field Theory (pilot matlab implementation)
  Alexander A. Auer      : GIAO ZORA, VPT2 properties, NMR spectrum      
  Ute Becker             : All parallelization in ORCA, NUMFREQ, NUMCALC 
  Giovanni Bistoni       : ED, misc. LED, open-shell LED, HFLD           
  Dmytro Bykov           : pre 5.0 version of the SCF Hessian            
  Marcos Casanova-Páez   : Triplet and SCS-CIS(D). UHF-(DLPNO)-IP/EA/STEOM-CCSD. UHF-CVS-IP/STEOM-CCSD   
  Vijay G. Chilkuri      : MRCI spin determinant printing, contributions to CSF-ICE 
  Pauline Colinet        : FMM embedding                                 
  Dipayan Datta          : RHF DLPNO-CCSD density                        
  Achintya Kumar Dutta   : EOM-CC, STEOM-CC                              
  Nicolas Foglia         : Exact transition moments, OPA infrastructure, MCD improvements    
  Dmitry Ganyushin       : Spin-Orbit,Spin-Spin,Magnetic field MRCI      
  Miquel Garcia-Rates    : C-PCM and meta-GGA Hessian, CCSD/C-PCM, Gaussian charge scheme 
  Tiago L. C. Gouveia    : GS-ROHF, GS-ROCIS                             
  Yang Guo               : DLPNO-NEVPT2, F12-NEVPT2, CIM, IAO-localization        
  Andreas Hansen         : Spin unrestricted coupled pair/coupled cluster methods 
  Ingolf Harden          : AUTO-CI MPn and infrastructure                
  Benjamin Helmich-Paris : MC-RPA, TRAH-(SCF,CASSCF), AVAS, COSX integrals, SCF dyn. polar., MC-PDFT, srDFT 
  Lee Huntington         : MR-EOM, pCC                                   
  Robert Izsak           : Overlap fitted RIJCOSX, COSX-SCS-MP3, EOM     
  Riya Kayal             : Wick's Theorem for AUTO-CI, AUTO-CI UHF-CCSDT 
  Emily Kempfer          : AUTO-CI RHF CISDT and CCSDT, approximate NEVPT4
  Christian Kollmar      : KDIIS, OOCD, Brueckner-CCSD(T), CCSD density, CASPT2, CASPT2-K, improved NEVPT2 
  Axel Koslowski         : Symmetry handling                             
  Simone Kossmann        : meta-GGA functionals, TD-DFT gradient, OOMP2, (MP2 Hessian; deprecated post 5.0) 
  Lucas Lang             : DCDCAS, Hyperfine gauge corrections, ICE-SOC+SSC
  Marvin Lechner         : AUTO-CI (C++ implementation), FIC-MRCC        
  Spencer Leger          : CASSCF response                               
  Dagmar Lenk            : GEPOL surface, SMD, ORCA-2-JSON               
  Dimitrios Liakos       : Extrapolation schemes; Compound Job, Property file
  Dimitrios Manganas     : Further ROCIS development; embedding schemes. LFT, Crystal Embedding 
  Dimitrios Pantazis     : SARC Basis sets                               
  Anastasios Papadopoulos: AUTO-CI, single reference methods and gradients 
  Taras Petrenko         : pre 6.0 DFT Hessian and TD-DFT gradient,  ECA, NRVS 
  Petra Pikulova         : Analytic Raman intensities                    
  Peter Pinski           : DLPNO-MP2, DLPNO-MP2 Gradient                 
  Shashank Vittal Rao    : ES-AILFT, MagRelax                            
  Christoph Reimann      : Effective Core Potentials                     
  Marius Retegan         : Local ZFS, SOC                                
  Christoph Riplinger    : Optimizer, TS searches, QM/MM, DLPNO-CCSD(T), (RO)-DLPNO pert. Triples 
  Michael Roemelt        : Original ROCIS implementation, recursive CI coupling coefficients
  Masaaki Saitow         : Open-shell DLPNO-CCSD energy and density      
  Barbara Sandhoefer     : DKH picture change effects                    
  Yorick L. A. Schmerwitz: GMF and freeze-and-release deltaSCF, NEB S-IDPP initial path                    
  Kantharuban Sivalingam : CASSCF convergence/infrastructure, NEVPT2, NEVPT3, NEVPT4(SD), FIC-MRCI and CEPA variants
  Bernardo de Souza      : ESD, SOC TD-DFT                               
  Georgi L. Stoychev     : AutoAux, RI-MP2 NMR, DLPNO-MP2 response, X2C  
  Van Anh Tran           : RI-MP2 g-tensors                              
  Willem Van den Heuvel  : Paramagnetic NMR                              
  Zikuan Wang            : NOTCH, Electric field optimization            
  Frank Wennmohs         : Technical directorship and infrastructure     
  Hang Xu                : AUTO-CI-Response properties                   
                                                                         
[FACCTs GmbH]                                                            
  Markus Bursch, Nicolas Foglia, Miquel Garcia-Rates, Ingolf Harden, Hagen Neugebauer, Anastasios Papadopoulos, 
  Christoph Riplinger, Bernardo de Souza, Georgi L. Stoychev                                                    
                                                                 
  APM, various basis sets, CI-OPT, improved COSX, DLPNO-Multilevel,           
  DOCKER, DRACO, updates on ESD, Fragmentator, GOAT, IRC, LR-CPCM, L-BFGS, MBIS, meta-GGA TD-DFT gradient, ML-optimized integration grids, 
  MM, NACMEs, nearIR, NEB, NEB-TS, NL-DFT gradient (VV10), 2- and 3-layer-ONIOM, interface openCOSMO-RS, QMMM,   
  Crystal-QMMM, RESP, rigid body optimization, SF, symmetry and pop. for TD-DFT, various functionals, SOLVATOR                                   
                                                                         
[Other institutions]                                                     
  V. Asgeirsson          : NEB                                           
  Christoph Bannwarth    : sTDA-DFT, sTD-DFT, PBEh-3c, B97-3c, D3        
  Giovanni Bistoni       : ETS/NOCV, ADLD/ADEX, COVALED                  
  Martin Brehm           : Molecular dynamics                            
  Ronald Cardenas        : ETS/NOCV                                      
  Martina Colucci        : COVALED                                       
  Sebastian Ehlert       : rSCAN, r2SCAN, r2SCAN-3c, D4, dhf basis sets  
  Marvin Friede          : D4 for Fr, Ra, Ac-Lr                          
  Lars Goerigk           : TD-DFT with DH, B97 family of functionals     
  Stefan Grimme          : VdW corrections, initial TS optimization, DFT functionals, gCP, sTDA/sTD-DF 
  Waldemar Hujo          : DFT-NL                                        
  H. Jonsson             : NEB                                           
  Holger Kruse           : gCP                                           
  Marcel Mueller         : wB97X-3c, vDZP basis set                      
  Hagen Neugebauer       : wr2SCAN, Native XTB                           
  Gianluca Regni         : ADLD/ADEX                                     
  Tobias Risthaus        : pre 6.0 range-separated hybrid DFT and stability analysis
  Lukas Wittmann         : regularized MP2, r2SCAN double-hybrids, wr2SCAN        
                                                                         
We gratefully acknowledge several colleagues who have allowed us to      
interface, adapt or use parts of their codes:                            
  Ed Valeev, F. Pavosevic, A. Kumar             : LibInt (2-el integral package), F12 methods 
  Garnet Chan, S. Sharma, J. Yang, R. Olivares  : DMRG                   
  Ulf Ekstrom                                   : XCFun DFT Library      
  Mihaly Kallay                                 : mrcc  (arbitrary order and MRCC methods)
  Frank Weinhold                                : gennbo (NPA and NBO analysis)           
  Simon Mueller                                 : openCOSMO-RS                            
  Christopher J. Cramer and Donald G. Truhlar   : smd solvation model                     
  S Lehtola, MJT Oliveira, MAL Marques          : LibXC Library                           
  Liviu Ungur et al                             : ANISO software                          


 Your calculation uses the libint2 library for the computation of 2-el integrals
 For citations please refer to: http://libint.valeyev.net

 Your ORCA version has been built with support for libXC version: 7.0.0
 For citations please refer to: https://libxc.gitlab.io

 This ORCA versions uses:
   CBLAS   interface :  Fast vector & matrix operations
   LAPACKE interface :  Fast linear algebra routines
   SCALAPACK package :  Parallel linear algebra routines
   Shared memory     :  Shared parallel matrices
   BLAS/LAPACK       :  OpenBLAS 0.3.29  USE64BITINT DYNAMIC_ARCH NO_AFFINITY Haswell SINGLE_THREADED
        Core in use  :  Haswell
   Copyright (c) 2011-2014, The OpenBLAS Project


  ***********************************
  * Starting time: Thu Aug 14 01:06:16 2025
  * Host name:     CHEMLAB02
  * Process ID:    1543114
  * Working dir.:  /home/vivek/mm-project/vivek/MP2/i/2
  ***********************************



***************************************
The coordinates will be read from file: /home/vivek/mm-project/vivek/xtb-goat/i/I_CONF/2.xyz
***************************************


================================================================================

----- Orbital basis set information -----
Your calculation utilizes the basis: 6-31G**
   H-He, Li-Ne : W. J. Hehre, R. Ditchfield and J.A. Pople, J. Chem. Phys. 56, 2257 (1972).
                 Note: He and Ne are unpublished basis sets taken from the Gaussian program.
                 Note: Li and B from J. D. Dill and J. A. Pople, J. Chem. Phys. 62, 2921 (1975).
   Na - Ar     : M. M. Francl, W. J. Pietro, W. J. Hehre, J. S. Binkley, M. S. Gordon, 
                 D. J. DeFrees and J. A. Pople, J. Chem. Phys. 77, 3654 (1982).
   K - Zn      : V. A. Rassolov, J. A. Pople, M. A. Ratner, and T. L. Windus, J. Chem. Phys. 109, 1223 (1998).

================================================================================
                                        WARNINGS
                       Please study these warnings very carefully!
================================================================================


WARNING: No MP2 level density has been requested!
         To calculate MP2 level properties use
         %mp2 Density relaxed end
         or
         %mp2 Density unrelaxed end

WARNING: Post HF methods need fully converged wavefunctions
  ===> : Setting SCFConvForced true
         You can overwrite this default with %scf ConvForced false 


================================================================================
                                       INPUT FILE
================================================================================
NAME = 2.inp
|  1> ! MP2 6-31G** 
|  2> 
|  3> * xyzfile 0 1 /home/vivek/mm-project/vivek/xtb-goat/i/I_CONF/2.xyz
|  4> 
|  5>                          ****END OF INPUT****
================================================================================

                       ****************************
                       * Single Point Calculation *
                       ****************************

---------------------------------
CARTESIAN COORDINATES (ANGSTROEM)
---------------------------------
  C     -9.380475    5.006947   -0.445974
  C     -9.920263    3.605369   -0.704358
  C     -8.142262    5.048758    0.455756
  H     -5.703545    4.490454   -1.785181
  H     -7.290289    4.509342   -2.141372
  C     -6.906235    4.347829   -0.154086
  H     -7.346516    1.377419    1.066113
  C     -7.776263    6.501161    0.756239
  C     -7.015232    2.829085   -0.122028
  H     -7.446357    6.988770   -0.156873
  N     -6.601155    4.850813   -1.478869
  O     -7.312110    2.347241    1.090344
  H     -9.226405    3.009719   -1.291482
  O     -6.808101    2.114520   -1.069555
  H     -8.374351    4.534236    1.393828
  H     -8.635386    7.036607    1.152490
  H     -6.972703    6.553071    1.486786
  H     -6.055032    4.589360    0.497741
  H     -9.152386    5.499983   -1.391989
  H    -10.162070    5.591827    0.045008
  H    -10.107674    3.089936    0.235884
  H    -10.857273    3.661842   -1.254493

----------------------------
CARTESIAN COORDINATES (A.U.)
----------------------------
  NO LB      ZA    FRAG     MASS         X           Y           Z
   0 C     6.0000    0    12.011  -17.726528    9.461758   -0.842768
   1 C     6.0000    0    12.011  -18.746580    6.813160   -1.331044
   2 C     6.0000    0    12.011  -15.386646    9.540769    0.861253
   3 H     1.0000    0     1.008  -10.778137    8.485728   -3.373502
   4 H     1.0000    0     1.008  -13.776651    8.521421   -4.046606
   5 C     6.0000    0    12.011  -13.050893    8.216206   -0.291181
   6 H     1.0000    0     1.008  -13.882903    2.602944    2.014661
   7 C     6.0000    0    12.011  -14.695007   12.285414    1.429084
   8 C     6.0000    0    12.011  -13.256866    5.346196   -0.230600
   9 H     1.0000    0     1.008  -14.071575   13.206862   -0.296448
  10 N     7.0000    0    14.007  -12.474375    9.166709   -2.794657
  11 O     8.0000    0    15.999  -13.817886    4.435643    2.060451
  12 H     1.0000    0     1.008  -17.435379    5.687544   -2.440548
  13 O     8.0000    0    15.999  -12.865447    3.995863   -2.021166
  14 H     1.0000    0     1.008  -15.825231    8.568464    2.633953
  15 H     1.0000    0     1.008  -16.318514   13.297259    2.177891
  16 H     1.0000    0     1.008  -13.176498   12.383509    2.809618
  17 H     1.0000    0     1.008  -11.442352    8.672633    0.940594
  18 H     1.0000    0     1.008  -17.295504   10.393461   -2.630479
  19 H     1.0000    0     1.008  -19.203529   10.567022    0.085053
  20 H     1.0000    0     1.008  -19.100737    5.839132    0.445756
  21 H     1.0000    0     1.008  -20.517273    6.919878   -2.370649

--------------------------------
INTERNAL COORDINATES (ANGSTROEM)
--------------------------------
 C      0   0   0     0.000000000000     0.00000000     0.00000000
 C      1   0   0     1.523992550669     0.00000000     0.00000000
 C      1   2   0     1.532329455410   114.27239162     0.00000000
 H      3   1   2     3.358696542833   100.92703652    84.43875288
 H      4   3   1     1.626341879732    55.65213809   357.68858232
 C      3   1   2     1.546276541361   113.67010132    64.02568493
 H      6   3   1     3.241306776739    99.11201986   268.53090492
 C      3   1   2     1.527652028102   109.59010349   185.58819003
 C      6   3   1     1.522987195451   112.73866735   285.64788998
 H      8   3   1     1.086450370422   109.52018415   293.14319018
 N      4   3   1     1.014588761763    25.46492029    32.41240611
 O      7   6   3     0.970735302076    24.35891036   315.43022933
 H      2   1   3     1.086716340352   111.68742672   293.29273034
 O      9   6   3     1.204704665699   124.23803438   130.88280490
 H      3   1   2     1.094795786847   108.66908559   304.85901398
 H      8   3   1     1.087110981840   110.52623316    53.22420303
 H      8   3   1     1.087245506704   110.77067833   173.38829533
 H      6   3   1     1.098982820566   106.59380033   170.72230588
 H      1   2   3     1.090896233792   110.04026408   123.27703331
 H      1   2   3     1.092721419756   108.36633997   240.31219578
 H      2   1   3     1.088508315091   110.48846195    54.14743797
 H      2   1   3     1.088037699928   110.06097060   173.63466876

---------------------------
INTERNAL COORDINATES (A.U.)
---------------------------
 C      0   0   0     0.000000000000     0.00000000     0.00000000
 C      1   0   0     2.879928550900     0.00000000     0.00000000
 C      1   2   0     2.895683017666   114.27239162     0.00000000
 H      3   1   2     6.347016632903   100.92703652    84.43875288
 H      4   3   1     3.073340752821    55.65213809   357.68858232
 C      3   1   2     2.922039190480   113.67010132    64.02568493
 H      6   3   1     6.125182124060    99.11201986   268.53090492
 C      3   1   2     2.886843961041   109.59010349   185.58819003
 C      6   3   1     2.878028704872   112.73866735   285.64788998
 H      8   3   1     2.053093658196   109.52018415   293.14319018
 N      4   3   1     1.917294898286    25.46492029    32.41240611
 O      7   6   3     1.834423869453    24.35891036   315.43022933
 H      2   1   3     2.053596268523   111.68742672   293.29273034
 O      9   6   3     2.276561890429   124.23803438   130.88280490
 H      3   1   2     2.068864209712   108.66908559   304.85901398
 H      8   3   1     2.054342032855   110.52623316    53.22420303
 H      8   3   1     2.054596248007   110.77067833   173.38829533
 H      6   3   1     2.076776556755   106.59380033   170.72230588
 H      1   2   3     2.061495122393   110.04026408   123.27703331
 H      1   2   3     2.064944224008   108.36633997   240.31219578
 H      2   1   3     2.056982610018   110.48846195    54.14743797
 H      2   1   3     2.056093276245   110.06097060   173.63466876

---------------------
BASIS SET INFORMATION
---------------------
There are 4 groups of distinct atoms

 Group   1 Type C   : 10s4p1d contracted to 3s2p1d pattern {631/31/1}
 Group   2 Type H   : 4s1p contracted to 2s1p pattern {31/1}
 Group   3 Type N   : 10s4p1d contracted to 3s2p1d pattern {631/31/1}
 Group   4 Type O   : 10s4p1d contracted to 3s2p1d pattern {631/31/1}

Atom   0C    basis set group =>   1
Atom   1C    basis set group =>   1
Atom   2C    basis set group =>   1
Atom   3H    basis set group =>   2
Atom   4H    basis set group =>   2
Atom   5C    basis set group =>   1
Atom   6H    basis set group =>   2
Atom   7C    basis set group =>   1
Atom   8C    basis set group =>   1
Atom   9H    basis set group =>   2
Atom  10N    basis set group =>   3
Atom  11O    basis set group =>   4
Atom  12H    basis set group =>   2
Atom  13O    basis set group =>   4
Atom  14H    basis set group =>   2
Atom  15H    basis set group =>   2
Atom  16H    basis set group =>   2
Atom  17H    basis set group =>   2
Atom  18H    basis set group =>   2
Atom  19H    basis set group =>   2
Atom  20H    basis set group =>   2
Atom  21H    basis set group =>   2
------------------------------------------------------------------------------
                             ORCA STARTUP CALCULATIONS
------------------------------------------------------------------------------
------------------------------------------------------------------------------
                   ___                                                        
                  /   \      - P O W E R E D   B Y -                         
                 /     \                                                     
                 |  |  |   _    _      __       _____    __    __             
                 |  |  |  | |  | |    /  \     |  _  \  |  |  /  |          
                  \  \/   | |  | |   /    \    | | | |  |  | /  /          
                 / \  \   | |__| |  /  /\  \   | |_| |  |  |/  /          
                |  |  |   |  __  | /  /__\  \  |    /   |      \           
                |  |  |   | |  | | |   __   |  |    \   |  |\   \          
                \     /   | |  | | |  |  |  |  | |\  \  |  | \   \       
                 \___/    |_|  |_| |__|  |__|  |_| \__\ |__|  \__/        
                                                                              
                      - O R C A' S   B I G   F R I E N D -                    
                                      &                                       
                       - I N T E G R A L  F E E D E R -                       
                                                                              
 v1 FN, 2020, v2 2021, v3 2022-2024                                           
------------------------------------------------------------------------------


----------------------
SHARK INTEGRAL PACKAGE
----------------------

Number of atoms                             ...     22
Number of basis functions                   ...    191
Number of shells                            ...     93
Maximum angular momentum                    ...      2
Integral batch strategy                     ... SHARK/LIBINT Hybrid
RI-J (if used) integral strategy            ... SPLIT-RIJ (Revised 2003 algorithm where possible)
Printlevel                                  ...      1
Contraction scheme used                     ... SEGMENTED contraction
Prescreening option                         ... SCHWARTZ
   Thresh                                   ... 1.000e-10
   Tcut                                     ... 1.000e-11
   Tpresel                                  ... 1.000e-11 
Coulomb Range Separation                    ... NOT USED
Exchange Range Separation                   ... NOT USED
Multipole approximations                    ... NOT USED
Finite Nucleus Model                        ... NOT USED
CABS basis                                  ... NOT available
Auxiliary Coulomb fitting basis             ... NOT available
Auxiliary J/K fitting basis                 ... NOT available
Auxiliary Correlation fitting basis         ... NOT available
Auxiliary 'external' fitting basis          ... NOT available

Checking pre-screening integrals            ... done (  0.0 sec) Dimension = 93
   => SHARK Basis and OBASIS are compatible. Storing Pre-screening
Shell pair information
Shell pair cut-off parameter TPreSel        ...   1.0e-11
Total number of shell pairs                 ...      4371
Shell pairs after pre-screening             ...      3997
Total number of primitive shell pairs       ...     20328
Primitive shell pairs kept                  ...     12352
          la=0 lb=0:   1312 shell pairs
          la=1 lb=0:   1489 shell pairs
          la=1 lb=1:    446 shell pairs
          la=2 lb=0:    448 shell pairs
          la=2 lb=1:    258 shell pairs
          la=2 lb=2:     44 shell pairs

Checking whether 4 symmetric matrices of dimension 191 fit in memory
:Max Core in MB      =   4096.00
 MB in use           =      6.53
 MB left             =   4089.47
 MB needed           =      0.56
 Data fit in memory  = YES
Calculating Nuclear repulsion               ... done (  0.0 sec) ENN=    502.161229252949 Eh

Diagonalization of the overlap matrix:
Smallest eigenvalue                        ... 2.826e-03
Time for diagonalization                   ...    0.002 sec
Threshold for overlap eigenvalues          ... 1.000e-07
Number of eigenvalues below threshold      ... 0
Time for construction of square roots      ...    0.001 sec
Total time needed                          ...    0.003 sec

-------------------
DFT GRID GENERATION
-------------------

General Integration Accuracy     IntAcc      ... 4.388
Radial Grid Type                 RadialGrid  ... OptM3 with GC (2021)
Angular Grid (max. ang.)         AngularGrid ... 4 (Lebedev-302)
Angular grid pruning method      GridPruning ... 4 (adaptive)
Weight generation scheme         WeightScheme... mBecke (2022)
Basis function cutoff            BFCut       ... 1.0000e-10
Integration weight cutoff        WCut        ... 1.0000e-14
Partially contracted basis set               ... off
Rotationally invariant grid construction     ... off
Angular grids for H and He will be reduced by one unit

Total number of grid points                  ...    95436
Total number of batches                      ...     1504
Average number of points per batch           ...       63
Average number of grid points per atom       ...     4338
Grids setup in   0.4 sec
Initializing property integral containers    ... done (  0.0 sec)

SHARK setup successfully completed in   0.4 seconds

Maximum memory used throughout the entire STARTUP-calculation: 38.4 MB
-------------------------------------------------------------------------------
                                 ORCA GUESS
                   Start orbitals & Density for SCF / CASSCF
-------------------------------------------------------------------------------

------------
SCF SETTINGS
------------
Hamiltonian:
 Ab initio Hamiltonian  Method          .... Hartree-Fock(GTOs)


General Settings:
 Integral files         IntName         .... 2
 Hartree-Fock type      HFTyp           .... RHF
 Total Charge           Charge          ....    0
 Multiplicity           Mult            ....    1
 Number of Electrons    NEL             ....   72
 Basis Dimension        Dim             ....  191
 Nuclear Repulsion      ENuc            ....    502.1612292529 Eh

Convergence Acceleration:
 AO-DIIS                CNVDIIS         .... on
   Start iteration      DIISMaxIt       ....    12
   Startup error        DIISStart       ....  0.200000
   # of expansion vecs  DIISMaxEq       ....     5
   Bias factor          DIISBfac        ....   1.050
   Max. coefficient     DIISMaxC        ....  10.000
 MO-DIIS                CNVKDIIS        .... off
 Trust-Rad. Augm. Hess. CNVTRAH         .... auto
   Auto Start mean grad. ratio tolernc. ....  1.125000
   Auto Start start iteration           ....    50
   Auto Start num. interpolation iter.  ....    10
   Max. Number of Micro iterations      ....    24
   Max. Number of Macro iterations      .... Maxiter - #DIIS iter
   Number of Davidson start vectors     ....     2
   Converg. threshold    (grad. norm)   ....   5.000e-05
   Grad. Scal. Fac. for Micro threshold ....   0.100
   Minimum threshold for Micro iter.    ....   1.000e-02
   NR start threshold (gradient norm)   ....   1.000e-04
   Initial trust radius                 ....   0.400
   Minimum AH scaling param. (alpha)    ....   1.000
   Maximum AH scaling param. (alpha)    .... 1000.000
   Quad. conv. algorithm                .... NR
   White noise on init. David. guess    .... on
   Maximum white noise                  ....   0.010
   Pseudo random numbers                .... off
   Inactive MOs                         .... canonical
   Orbital update algorithm             .... Taylor
   Preconditioner                       .... Diag
   Full preconditioner red. dimension   ....   250
 SOSCF                 CNVSOSCF           .... on
   Start iteration     SOSCFMaxIt         ....   150
   Startup grad/error  SOSCFStart         ....  0.003300
   Hessian update      SOSCFHessUp        .... L-BFGS
   Autom. constraints  SOSCFAutoConstrain .... off
 Level Shifting         CNVShift        .... on
   Level shift para.    LevelShift      ....    0.2500
   Turn off err/grad.   ShiftErr        ....    0.0010
 Zerner damping         CNVZerner       .... off
 Static damping         CNVDamp         .... on
   Fraction old density DampFac         ....    0.7000
   Max. Damping (<1)    DampMax         ....    0.9800
   Min. Damping (>=0)   DampMin         ....    0.0000
   Turn off err/grad.   DampErr         ....    0.1000

SCF Procedure:
 Maximum # iterations   MaxIter         ....   125
 SCF integral mode      SCFMode         .... Direct
   Integral package                     .... SHARK and LIBINT hybrid scheme
 Reset frequency        DirectResetFreq ....    20
 Integral Threshold     Thresh          ....  1.000e-10 Eh
 Primitive CutOff       TCut            ....  1.000e-11 Eh

Convergence Tolerance:
 Convergence Check Mode ConvCheckMode   .... Total+1el-Energy
 Convergence forced     ConvForced      .... 1
 Energy Change          TolE            ....  1.000e-06 Eh
 1-El. energy change                    ....  1.000e-03 Eh
 Orbital Gradient       TolG            ....  5.000e-05
 Orbital Rotation angle TolX            ....  5.000e-05
 DIIS Error             TolErr          ....  1.000e-06

------------------------------
INITIAL GUESS: MODEL POTENTIAL
------------------------------
Loading Hartree-Fock densities                     ... done
Calculating cut-offs                               ... done
Initializing the effective Hamiltonian             ... done
Setting up the integral package (SHARK)            ... done
Starting the Coulomb interaction                   ... done (   0.1 sec)
Making the grid                                    ... done (   0.1 sec)
Mapping shells                                     ... done
Starting the XC term evaluation                    ... done (   0.0 sec)
Transforming the Hamiltonian                       ... done (   0.0 sec)
Diagonalizing the Hamiltonian                      ... done (   0.0 sec)
Back transforming the eigenvectors                 ... done (   0.0 sec)
Now organizing SCF variables                       ... done
                      ------------------
                      INITIAL GUESS DONE (   0.2 sec)
                      ------------------
             **** ENERGY FILE WAS UPDATED (2.en.tmp) ****
Finished Guess after   0.2 sec
Maximum memory used throughout the entire GUESS-calculation: 11.9 MB

-------------------------------------------------------------------------------------------
                                      ORCA LEAN-SCF
                              memory conserving SCF solver
-------------------------------------------------------------------------------------------

----------------------------------------D-I-I-S--------------------------------------------
Iteration    Energy (Eh)           Delta-E    RMSDP     MaxDP     DIISErr   Damp  Time(sec)
-------------------------------------------------------------------------------------------
               ***  Starting incremental Fock matrix formation  ***
    1    -438.5403897305849341     0.00e+00  2.49e-03  6.56e-02  2.54e-01  0.700   2.0
    2    -438.7034002692275863    -1.63e-01  1.88e-03  4.65e-02  1.57e-01  0.700   1.9
                               ***Turning on AO-DIIS***
    3    -438.7989181781025536    -9.55e-02  1.02e-03  2.26e-02  8.98e-02  0.700   1.9
    4    -438.8588600015789325    -5.99e-02  2.31e-03  4.84e-02  6.41e-02  0.000   1.8
    5    -438.9911925221924776    -1.32e-01  2.72e-04  6.78e-03  6.20e-03  0.000   1.9
    6    -438.9916773233406957    -4.85e-04  1.37e-04  3.05e-03  3.77e-03  0.000   1.8
                              *** Initializing SOSCF ***
---------------------------------------S-O-S-C-F--------------------------------------
Iteration    Energy (Eh)           Delta-E    RMSDP     MaxDP     MaxGrad    Time(sec)
--------------------------------------------------------------------------------------
    7    -438.9917824434954809    -1.05e-04  7.26e-05  2.50e-03  2.51e-03     1.7
               *** Restarting incremental Fock matrix formation ***
    8    -438.9918121586296138    -2.97e-05  3.64e-05  8.45e-04  4.56e-04     2.0
    9    -438.9918190862827032    -6.93e-06  3.87e-05  1.47e-03  3.30e-04     1.5
   10    -438.9918215527849270    -2.47e-06  7.56e-06  2.48e-04  8.73e-05     1.5
   11    -438.9918217858420348    -2.33e-07  2.51e-06  6.67e-05  4.20e-05     1.4
                 **** Energy Check signals convergence ****

               *****************************************************
               *                     SUCCESS                       *
               *           SCF CONVERGED AFTER  11 CYCLES          *
               *****************************************************

             **** ENERGY FILE WAS UPDATED (2.en.tmp) ****

----------------
TOTAL SCF ENERGY
----------------

Total Energy       :       -438.99182181420474 Eh          -11945.57477 eV

Components:
Nuclear Repulsion  :        502.16122925294860 Eh           13664.50174 eV
Electronic Energy  :       -941.15305106715334 Eh          -25610.07651 eV
One Electron Energy:      -1594.91054475666715 Eh          -43399.72232 eV
Two Electron Energy:        653.75749368951381 Eh           17789.64581 eV

Virial components:
Potential Energy   :       -877.60669351565696 Eh          -23880.89221 eV
Kinetic Energy     :        438.61487170145222 Eh           11935.31744 eV
Virial Ratio       :          2.00085941024136

---------------
SCF CONVERGENCE
---------------

  Last Energy change         ...    2.3306e-07  Tolerance :   1.0000e-06
  Last MAX-Density change    ...    6.6654e-05  Tolerance :   1.0000e-05
  Last RMS-Density change    ...    2.5150e-06  Tolerance :   1.0000e-06
  Last DIIS Error            ...    2.5094e-03  Tolerance :   1.0000e-06
  Last Orbital Gradient      ...    4.2028e-05  Tolerance :   5.0000e-05
  Last Orbital Rotation      ...    4.0543e-05  Tolerance :   5.0000e-05


----------------
ORBITAL ENERGIES
----------------

  NO   OCC          E(Eh)            E(eV) 
   0   2.0000     -20.618773      -561.0653 
   1   2.0000     -20.552582      -559.2642 
   2   2.0000     -15.547271      -423.0628 
   3   2.0000     -11.382757      -309.7406 
   4   2.0000     -11.272015      -306.7271 
   5   2.0000     -11.229824      -305.5790 
   6   2.0000     -11.218925      -305.2825 
   7   2.0000     -11.211447      -305.0790 
   8   2.0000     -11.205724      -304.9232 
   9   2.0000      -1.469112       -39.9766 
  10   2.0000      -1.361771       -37.0557 
  11   2.0000      -1.199020       -32.6270 
  12   2.0000      -1.082657       -29.4606 
  13   2.0000      -0.998754       -27.1775 
  14   2.0000      -0.955857       -26.0102 
  15   2.0000      -0.863131       -23.4870 
  16   2.0000      -0.822804       -22.3896 
  17   2.0000      -0.767973       -20.8976 
  18   2.0000      -0.702623       -19.1194 
  19   2.0000      -0.701517       -19.0893 
  20   2.0000      -0.687736       -18.7142 
  21   2.0000      -0.627005       -17.0617 
  22   2.0000      -0.606313       -16.4986 
  23   2.0000      -0.603841       -16.4313 
  24   2.0000      -0.594103       -16.1664 
  25   2.0000      -0.573117       -15.5953 
  26   2.0000      -0.562496       -15.3063 
  27   2.0000      -0.541940       -14.7469 
  28   2.0000      -0.521257       -14.1841 
  29   2.0000      -0.498854       -13.5745 
  30   2.0000      -0.488519       -13.2933 
  31   2.0000      -0.473999       -12.8982 
  32   2.0000      -0.459563       -12.5054 
  33   2.0000      -0.450785       -12.2665 
  34   2.0000      -0.443500       -12.0682 
  35   2.0000      -0.400215       -10.8904 
  36   0.0000       0.182600         4.9688 
  37   0.0000       0.212062         5.7705 
  38   0.0000       0.223996         6.0952 
  39   0.0000       0.251631         6.8472 
  40   0.0000       0.272389         7.4121 
  41   0.0000       0.284558         7.7432 
  42   0.0000       0.301411         8.2018 
  43   0.0000       0.306669         8.3449 
  44   0.0000       0.324607         8.8330 
  45   0.0000       0.337378         9.1805 
  46   0.0000       0.341760         9.2998 
*Only the first 10 virtual orbitals were printed.

                    ********************************
                    * MULLIKEN POPULATION ANALYSIS *
                    ********************************

-----------------------
MULLIKEN ATOMIC CHARGES
-----------------------
   0 C :   -0.216203
   1 C :   -0.365314
   2 C :   -0.137429
   3 H :    0.282190
   4 H :    0.279849
   5 C :   -0.038214
   6 H :    0.373000
   7 C :   -0.325620
   8 C :    0.801658
   9 H :    0.144797
  10 N :   -0.677205
  11 O :   -0.636330
  12 H :    0.123235
  13 O :   -0.597730
  14 H :    0.142074
  15 H :    0.109204
  16 H :    0.105869
  17 H :    0.158326
  18 H :    0.120960
  19 H :    0.117887
  20 H :    0.116362
  21 H :    0.118635
Sum of atomic charges:   -0.0000000

--------------------------------
MULLIKEN REDUCED ORBITAL CHARGES
--------------------------------
  0 C s       :     3.236418  s :     3.236418
      pz      :     1.018595  p :     2.930597
      px      :     0.958609
      py      :     0.953393
      dz2     :     0.007985  d :     0.049189
      dxz     :     0.011316
      dyz     :     0.010068
      dx2y2   :     0.009240
      dxy     :     0.010580

  1 C s       :     3.261075  s :     3.261075
      pz      :     1.052499  p :     3.062113
      px      :     1.052282
      py      :     0.957333
      dz2     :     0.005641  d :     0.042126
      dxz     :     0.009798
      dyz     :     0.010035
      dx2y2   :     0.008496
      dxy     :     0.008156

  2 C s       :     3.230188  s :     3.230188
      pz      :     0.992975  p :     2.852525
      px      :     0.894296
      py      :     0.965255
      dz2     :     0.008970  d :     0.054716
      dxz     :     0.012065
      dyz     :     0.010888
      dx2y2   :     0.012684
      dxy     :     0.010110

  3 H s       :     0.691721  s :     0.691721
      pz      :     0.004698  p :     0.026090
      px      :     0.013457
      py      :     0.007934

  4 H s       :     0.694021  s :     0.694021
      pz      :     0.008908  p :     0.026130
      px      :     0.009361
      py      :     0.007862

  5 C s       :     3.206204  s :     3.206204
      pz      :     0.861708  p :     2.762013
      px      :     1.050906
      py      :     0.849399
      dz2     :     0.017709  d :     0.069997
      dxz     :     0.016410
      dyz     :     0.012035
      dx2y2   :     0.017853
      dxy     :     0.005990

  6 H s       :     0.585455  s :     0.585455
      pz      :     0.006131  p :     0.041545
      px      :     0.008756
      py      :     0.026659

  7 C s       :     3.247300  s :     3.247300
      pz      :     1.058613  p :     3.036274
      px      :     1.042798
      py      :     0.934862
      dz2     :     0.005837  d :     0.042046
      dxz     :     0.011639
      dyz     :     0.007875
      dx2y2   :     0.008818
      dxy     :     0.007877

  8 C s       :     2.946876  s :     2.946876
      pz      :     0.622291  p :     2.105922
      px      :     0.612876
      py      :     0.870755
      dz2     :     0.049070  d :     0.145543
      dxz     :     0.029020
      dyz     :     0.037745
      dx2y2   :     0.017013
      dxy     :     0.012694

  9 H s       :     0.842290  s :     0.842290
      pz      :     0.007328  p :     0.012913
      px      :     0.002539
      py      :     0.003047

 10 N s       :     3.601294  s :     3.601294
      pz      :     1.094932  p :     4.041337
      px      :     1.187773
      py      :     1.758632
      dz2     :     0.005980  d :     0.034574
      dxz     :     0.009198
      dyz     :     0.008938
      dx2y2   :     0.002285
      dxy     :     0.008172

 11 O s       :     3.838752  s :     3.838752
      pz      :     1.547339  p :     4.772174
      px      :     1.829536
      py      :     1.395299
      dz2     :     0.010861  d :     0.025405
      dxz     :     0.005217
      dyz     :     0.003856
      dx2y2   :     0.005130
      dxy     :     0.000340

 12 H s       :     0.863667  s :     0.863667
      pz      :     0.004105  p :     0.013099
      px      :     0.004773
      py      :     0.004221

 13 O s       :     3.880626  s :     3.880626
      pz      :     1.528882  p :     4.684493
      px      :     1.486397
      py      :     1.669214
      dz2     :     0.007809  d :     0.032612
      dxz     :     0.007994
      dyz     :     0.009178
      dx2y2   :     0.002622
      dxy     :     0.005008

 14 H s       :     0.845525  s :     0.845525
      pz      :     0.007147  p :     0.012400
      px      :     0.001873
      py      :     0.003380

 15 H s       :     0.878140  s :     0.878140
      pz      :     0.002798  p :     0.012656
      px      :     0.006228
      py      :     0.003630

 16 H s       :     0.881496  s :     0.881496
      pz      :     0.005089  p :     0.012635
      px      :     0.005739
      py      :     0.001807

 17 H s       :     0.829432  s :     0.829432
      pz      :     0.003911  p :     0.012243
      px      :     0.006136
      py      :     0.002196

 18 H s       :     0.866512  s :     0.866512
      pz      :     0.007126  p :     0.012528
      px      :     0.002104
      py      :     0.003298

 19 H s       :     0.869648  s :     0.869648
      pz      :     0.003190  p :     0.012464
      px      :     0.005455
      py      :     0.003819

 20 H s       :     0.871052  s :     0.871052
      pz      :     0.007153  p :     0.012586
      px      :     0.002000
      py      :     0.003434

 21 H s       :     0.868685  s :     0.868685
      pz      :     0.003670  p :     0.012679
      px      :     0.007160
      py      :     0.001850



                     *******************************
                     * LOEWDIN POPULATION ANALYSIS *
                     *******************************

----------------------
LOEWDIN ATOMIC CHARGES
----------------------
   0 C :   -0.114320
   1 C :   -0.195035
   2 C :   -0.062557
   3 H :    0.134762
   4 H :    0.131272
   5 C :   -0.026469
   6 H :    0.201569
   7 C :   -0.176227
   8 C :    0.227523
   9 H :    0.075965
  10 N :   -0.272645
  11 O :   -0.208009
  12 H :    0.066620
  13 O :   -0.316707
  14 H :    0.068697
  15 H :    0.061613
  16 H :    0.059950
  17 H :    0.085901
  18 H :    0.063003
  19 H :    0.064102
  20 H :    0.064018
  21 H :    0.066976

-------------------------------
LOEWDIN REDUCED ORBITAL CHARGES
-------------------------------
  0 C s       :     2.887828  s :     2.887828
      pz      :     1.062065  p :     3.133118
      px      :     1.033509
      py      :     1.037544
      dz2     :     0.014777  d :     0.093375
      dxz     :     0.021473
      dyz     :     0.018151
      dx2y2   :     0.018452
      dxy     :     0.020523

  1 C s       :     2.905734  s :     2.905734
      pz      :     1.086077  p :     3.214659
      px      :     1.081654
      py      :     1.046928
      dz2     :     0.009583  d :     0.074643
      dxz     :     0.015933
      dyz     :     0.018108
      dx2y2   :     0.015860
      dxy     :     0.015160

  2 C s       :     2.877490  s :     2.877490
      pz      :     1.045509  p :     3.077497
      px      :     1.002562
      py      :     1.029426
      dz2     :     0.016824  d :     0.107570
      dxz     :     0.023896
      dyz     :     0.020133
      dx2y2   :     0.026075
      dxy     :     0.020641

  3 H s       :     0.783404  s :     0.783404
      pz      :     0.014646  p :     0.081834
      px      :     0.040042
      py      :     0.027147

  4 H s       :     0.786675  s :     0.786675
      pz      :     0.027042  p :     0.082053
      px      :     0.028231
      py      :     0.026780

  5 C s       :     2.870494  s :     2.870494
      pz      :     0.967099  p :     3.015696
      px      :     1.064681
      py      :     0.983915
      dz2     :     0.036047  d :     0.140279
      dxz     :     0.030475
      dyz     :     0.025289
      dx2y2   :     0.036183
      dxy     :     0.012285

  6 H s       :     0.678019  s :     0.678019
      pz      :     0.020021  p :     0.120412
      px      :     0.027054
      py      :     0.073336

  7 C s       :     2.905917  s :     2.905917
      pz      :     1.087763  p :     3.195201
      px      :     1.076628
      py      :     1.030811
      dz2     :     0.009809  d :     0.075109
      dxz     :     0.019000
      dyz     :     0.014618
      dx2y2   :     0.016778
      dxy     :     0.014904

  8 C s       :     2.850995  s :     2.850995
      pz      :     0.907121  p :     2.605259
      px      :     0.668752
      py      :     1.029385
      dz2     :     0.114091  d :     0.316223
      dxz     :     0.060279
      dyz     :     0.082877
      dx2y2   :     0.034874
      dxy     :     0.024103

  9 H s       :     0.882570  s :     0.882570
      pz      :     0.021990  p :     0.041465
      px      :     0.008797
      py      :     0.010679

 10 N s       :     3.184274  s :     3.184274
      pz      :     1.137233  p :     4.027134
      px      :     1.174978
      py      :     1.714923
      dz2     :     0.013339  d :     0.061237
      dxz     :     0.019496
      dyz     :     0.014164
      dx2y2   :     0.004513
      dxy     :     0.009725

 11 O s       :     3.457194  s :     3.457194
      pz      :     1.552868  p :     4.702882
      px      :     1.781947
      py      :     1.368066
      dz2     :     0.018906  d :     0.047932
      dxz     :     0.007359
      dyz     :     0.010691
      dx2y2   :     0.009901
      dxy     :     0.001075

 12 H s       :     0.892099  s :     0.892099
      pz      :     0.012924  p :     0.041281
      px      :     0.015212
      py      :     0.013145

 13 O s       :     3.547834  s :     3.547834
      pz      :     1.570461  p :     4.711873
      px      :     1.460443
      py      :     1.680970
      dz2     :     0.014469  d :     0.057000
      dxz     :     0.009829
      dyz     :     0.021233
      dx2y2   :     0.005626
      dxy     :     0.005841

 14 H s       :     0.891013  s :     0.891013
      pz      :     0.021690  p :     0.040290
      px      :     0.007407
      py      :     0.011192

 15 H s       :     0.898713  s :     0.898713
      pz      :     0.009448  p :     0.039674
      px      :     0.018607
      py      :     0.011619

 16 H s       :     0.900539  s :     0.900539
      pz      :     0.015572  p :     0.039511
      px      :     0.017360
      py      :     0.006578

 17 H s       :     0.874672  s :     0.874672
      pz      :     0.012828  p :     0.039426
      px      :     0.018993
      py      :     0.007605

 18 H s       :     0.896982  s :     0.896982
      pz      :     0.021488  p :     0.040015
      px      :     0.007658
      py      :     0.010870

 19 H s       :     0.896794  s :     0.896794
      pz      :     0.010408  p :     0.039105
      px      :     0.016537
      py      :     0.012159

 20 H s       :     0.896202  s :     0.896202
      pz      :     0.021226  p :     0.039781
      px      :     0.007467
      py      :     0.011088

 21 H s       :     0.893342  s :     0.893342
      pz      :     0.011787  p :     0.039682
      px      :     0.021241
      py      :     0.006654



                      *****************************
                      * MAYER POPULATION ANALYSIS *
                      *****************************

  NA   - Mulliken gross atomic population
  ZA   - Total nuclear charge
  QA   - Mulliken gross atomic charge
  VA   - Mayer's total valence
  BVA  - Mayer's bonded valence
  FA   - Mayer's free valence

  ATOM       NA         ZA         QA         VA         BVA        FA
  0 C      6.2162     6.0000    -0.2162     3.7968     3.7968     0.0000
  1 C      6.3653     6.0000    -0.3653     3.8426     3.8426     0.0000
  2 C      6.1374     6.0000    -0.1374     3.7636     3.7636    -0.0000
  3 H      0.7178     1.0000     0.2822     0.9033     0.9033     0.0000
  4 H      0.7202     1.0000     0.2798     0.9032     0.9032    -0.0000
  5 C      6.0382     6.0000    -0.0382     3.7360     3.7360    -0.0000
  6 H      0.6270     1.0000     0.3730     0.8715     0.8715     0.0000
  7 C      6.3256     6.0000    -0.3256     3.8381     3.8381     0.0000
  8 C      5.1983     6.0000     0.8017     3.6791     3.6791    -0.0000
  9 H      0.8552     1.0000     0.1448     0.9524     0.9524     0.0000
 10 N      7.6772     7.0000    -0.6772     2.7731     2.7731    -0.0000
 11 O      8.6363     8.0000    -0.6363     1.8193     1.8193    -0.0000
 12 H      0.8768     1.0000     0.1232     0.9599     0.9599    -0.0000
 13 O      8.5977     8.0000    -0.5977     1.8812     1.8812     0.0000
 14 H      0.8579     1.0000     0.1421     0.9440     0.9440     0.0000
 15 H      0.8908     1.0000     0.1092     0.9550     0.9550    -0.0000
 16 H      0.8941     1.0000     0.1059     0.9550     0.9550    -0.0000
 17 H      0.8417     1.0000     0.1583     0.9408     0.9408    -0.0000
 18 H      0.8790     1.0000     0.1210     0.9479     0.9479     0.0000
 19 H      0.8821     1.0000     0.1179     0.9496     0.9496    -0.0000
 20 H      0.8836     1.0000     0.1164     0.9521     0.9521     0.0000
 21 H      0.8814     1.0000     0.1186     0.9527     0.9527     0.0000

  Mayer bond orders larger than 0.100000
B(  0-C ,  1-C ) :   0.9670 B(  0-C ,  2-C ) :   0.9700 B(  0-C , 18-H ) :   0.9688 
B(  0-C , 19-H ) :   0.9764 B(  1-C , 12-H ) :   0.9648 B(  1-C , 20-H ) :   0.9733 
B(  1-C , 21-H ) :   0.9776 B(  2-C ,  5-C ) :   0.9472 B(  2-C ,  7-C ) :   0.9813 
B(  2-C , 14-H ) :   0.9648 B(  3-H , 10-N ) :   0.9051 B(  4-H , 10-N ) :   0.9006 
B(  5-C ,  8-C ) :   0.9283 B(  5-C , 10-N ) :   0.9862 B(  5-C , 17-H ) :   0.9553 
B(  6-H , 11-O ) :   0.8395 B(  7-C ,  9-H ) :   0.9640 B(  7-C , 15-H ) :   0.9771 
B(  7-C , 16-H ) :   0.9776 B(  8-C , 11-O ) :   0.9660 B(  8-C , 13-O ) :   1.8030 


-------
TIMINGS
-------

Total SCF time: 0 days 0 hours 0 min 20 sec 

Total time                  ....      20.717 sec
Sum of individual times     ....      19.489 sec  ( 94.1%)

SCF preparation             ....       0.016 sec  (  0.1%)
Fock matrix formation       ....      19.417 sec  ( 93.7%)
  Startup                   ....       0.001 sec  (  0.0% of F)
  Coulomb+Exchange Fock     ....      20.637 sec  (106.3% of F)
Diagonalization             ....       0.000 sec  (  0.0%)
Density matrix formation    ....       0.004 sec  (  0.0%)
Total Energy calculation    ....       0.001 sec  (  0.0%)
Population analysis         ....       0.003 sec  (  0.0%)
Orbital Transformation      ....       0.006 sec  (  0.0%)
Orbital Orthonormalization  ....       0.000 sec  (  0.0%)
DIIS solution               ....       0.031 sec  (  0.1%)
SOSCF solution              ....       0.011 sec  (  0.1%)
Finished LeanSCF after  20.7 sec

Maximum memory used throughout the entire LEANSCF-calculation: 15.4 MB

------------------------------------------------------------------------------
                                ORCA  MP2 
------------------------------------------------------------------------------

Freezing NCore=18 chemical core electrons

----------
MP2 ENERGY (disk based algorithm)
----------

Dimension of the basis                      ...  191
Memory devoted to MP2                       ... 4096 MB   
Data format for buffers                     ... DOUBLE
Compression type for matrix containers      ... UNCOMPRESSED

-------------------------
SHARK HALF TRANSFORMATION (Exchange order)
-------------------------

Number of basis functions                   ...    191
Number of operators                         ...      1
   Operator  0:    9-  35 (p-index in (p*|q*))
   Operator  0:    9-  35 (q-index in (p*|q*)
Integral generator used                     ... SHARK
Contraction scheme used                     ... SEGMENTED CONTRACTION
MaxCore in resort                           ...   4096 MB

Half transformed integrals for op=   0      ... 2.SHARK_MNPQ0.tmp
Resorted half transformed integrals         ... 2.KAO_aa.tmp

Half trafo (segmented) done. Total time = 12.6 sec. integrals= 11.5 sec trafo=  1.0 sec

----------------------
SHARK INTEGRAL SORTING (Exchange)
----------------------

Input container                             ... 2.SHARK_MNPQ0.tmp
Output container                            ... 2.KAO_aa.tmp
Range of AO-indices                         ...    0 -  190
Range of bra indices i                      ...    9 -   35
Range of ket indices j                      ...    9 -   35
Symmetric i,j range                         ... YES
Number of (i,j) pairs generated             ...  378
Max Core memory in MB                       ...   4096

Available core memory in MB                 ...   4085.90
MB needed for one item                      ...      0.28
Fixed MB needed                             ...      0.00
Number of items                             ...       378
Number of batches                           ...         1
Items treated per batch                     ...       378
Batch   0                                   ...      0-   377 (   378)
   => Closing output file and leaving
done (  0.1 sec)

SHARK half integral transformation done. Total time = 12.7 sec.


Finished integral transformation - now doing MP2 part

OPERATOR COMBINATION   0   0: ij=(  9.. 35,  9.. 35)
  Internal MO  11
  Internal MO  14
  Internal MO  17
  Internal MO  20
  Internal MO  23
  Internal MO  26
  Internal MO  29
  Internal MO  32
  Internal MO  35
-----------------------------------------------
 MP2 CORRELATION ENERGY   :     -1.371227788 Eh
-----------------------------------------------


-------
TIMINGS
-------
Total time                :   12.892 sec
Integral trafo            :   12.739 sec ( 98.8%)
K(i,j)                    :    0.128 sec (  1.0%)
T(i,j)                    :    0.004 sec (  0.0%)

---------------------------------------
MP2 TOTAL ENERGY:     -440.363049602 Eh
---------------------------------------

Maximum memory used throughout the entire MP2-calculation: 116.3 MB

-------------------------   --------------------
FINAL SINGLE POINT ENERGY      -440.363049602222
-------------------------   --------------------


------------------------------------------------------------------------------
                              ORCA PROPERTY CALCULATIONS
------------------------------------------------------------------------------

GBWName                                 ... 2.gbw
Number of atoms                         ...     22
Number of basis functions               ...    191
Max core memory                         ...   4096 MB

Electric properties:
Dipole moment                           ... YES
Quadrupole moment                       ...  NO
Static polarizability (Dipole/Dipole)   ...  NO
Static polarizability (Dipole/Quad.)    ...  NO
Static polarizability (Quad./Quad.)     ...  NO
Static polarizability (Velocity)        ...  NO
Static hyperpolarizability              ...  NO

Atomic electric properties:
Dipole moment                           ...  NO
Quadrupole moment                       ...  NO
Static polarizability                   ...  NO

Choice of electric origin               ... Center of mass
Position of electric origin             ...   -14.648018     7.622574    -0.361859

General magnetic properties:
Magnetizability                         ...  NO

EPR properties:
g-Tensor (aka g-matrix)                 ...  NO
Zero-Field splitting spin-orbit         ...  NO
Zero-field splitting spin-spin          ...  NO
Hyperfine couplings                     ...  NO (   0 nuclei)
Quadrupole couplings                    ...  NO (   0 nuclei)
Contact density                         ...  NO (   0 nuclei)

NMR properties:
Chemical shifts                         ...  NO (   0 nuclei)
Spin-rotation constants                 ...  NO (   0 nuclei)
Spin-spin couplings                     ...  NO (   0 nuclei,    0 pairs)

Choice of magnetic origin               ... GIAO
Position of magnetic origin             ...     0.000000     0.000000     0.000000

Properties with geometric perturbations:
SCF Hessian                             ...  NO
IR spectrum                             ...  NO
VCD spectrum                            ...  NO
X-ray spectroscopy properties:
SCF XES/XAS/RIXS spectra                ...  NO

SCF SOC stabilization energy            ...  NO
Diagonal Born-Oppenheimer correction    ...  NO

-------------
DIPOLE MOMENT
-------------

Method             : SCF
Type of density    : Electron Density
Multiplicity       :   1
Irrep              :   0
Energy             :  -438.9918218142047408 Eh
Basis              : AO
                                X                 Y                 Z
Electronic contribution:      5.965184444      -8.068371739       0.209525068
Nuclear contribution   :     -6.129362614       7.920574188       0.323303426
                        -----------------------------------------
Total Dipole Moment    :     -0.164178170      -0.147797551       0.532828494
                        -----------------------------------------
Magnitude (a.u.)       :      0.576805679
Magnitude (Debye)      :      1.466123520



--------------------
Rotational spectrum 
--------------------
 
Rotational constants in cm-1:             0.066080             0.042959             0.037609 
Rotational constants in MHz :          1981.018713          1287.884067          1127.484674 

Dipole components along the rotational axes: 
x,y,z [a.u.] :    -0.021556    -0.210674     0.536523 
x,y,z [Debye]:    -0.054790    -0.535490     1.363733 

 

Dipole moment calculation done in   0.0 sec 

Maximum memory used throughout the entire PROP-calculation: 10.3 MB

--------------------------------
SUGGESTED CITATIONS FOR THIS RUN
--------------------------------

Below you find a list of papers that are relevant to this ORCA run
We neither can nor want to force you to cite these papers, but we appreciate if you do
You receive ORCA, which is the product of decades of hard work by many enthusiastic individuals, for free
The only thing we kindly ask in return is that you cite our papers,
We deeply appreciate it, if you show your appreciation for ORCA by not just citing the generic ORCA reference.

Please note that relegating all ORCA citations to the supporting information does *not* help us.
SI sections are not indexed - citations you put there will not count into any citation statistics
But we need these citations in order to attract the funding resources that allow us to do what we are doing

Therefore, if you are a happy ORCA user, please consider citing a few of the papers listed below in the main body of your paper

In addition to the list printed below, the program has created the file 2.bibtex that contains the list in bibtex format
You can import this file easily into all common literature databanks and citation aid programs


List of essential papers. We consider these as the minimum necessary citations

  1. Neese, F.
     Software update: the ORCA program system, version 6.0
     WIRES Comput. Molec. Sci. 2025 15(1), e70019
     doi.org/10.1002/wcms.7019

List of papers to cite with high priority. The work reported in these papers was absolutely
necessary for this run to complete.
Our perspective: the developers of density functionals and basis sets usually get cited in chemistry papers
Good! But without the algorithms to do something with them, the functionals or basis sets would not do anything.
Hence, in our opinion, the algorithm design and method developments papers are equally worthy of getting cited

  1. Neese, F.
     The SHARK Integral Generation and Digestion System
     J. Comp. Chem. 2022 44(3), 381
     doi.org/10.1002/jcc.26942

List of suggested additional citations. These are papers that are important in the 'surrounding' of 
of this run, or papers that preceded the highly important papers. If you like your results we are grateful for a citation.

  1. Neese, F.
     The ORCA program system
     WIRES Comput. Molec. Sci. 2012 2(1), 73-78
     doi.org/10.1002/wcms.81
  2. Neese, F.
     Software update: the ORCA program system, version 4.0
     WIRES Comput. Molec. Sci. 2018 8(1), 1-6
     doi.org/10.1002/wcms.1327
  3. Neese, F.; Wennmohs, F.; Becker, U.; Riplinger, C.
     The ORCA quantum chemistry program package
     J. Chem. Phys. 2020 152(22), 224108
     doi.org/10.1063/5.0004608
  4. Neese, F.
     Software update: The ORCA program system—Version 5.0
     WIRES Comput. Molec. Sci. 2022 12(1), e1606
     doi.org/10.1002/wcms.1606

List of optional additional citations

  1. Neese, F.
     Approximate second-order SCF convergence for spin unrestricted wavefunctions
     Chem. Phys. Lett. 2000 325(1-3), 93-98
     doi.org/10.1016/s0009-2614(00)00662-x

Timings for individual modules:

Sum of individual times          ...       34.371 sec (=   0.573 min)
Startup calculation              ...        0.443 sec (=   0.007 min)   1.3 %
SCF iterations                   ...       20.985 sec (=   0.350 min)  61.1 %
Property calculations            ...        0.025 sec (=   0.000 min)   0.1 %
MP2 module                       ...       12.918 sec (=   0.215 min)  37.6 %
                             ****ORCA TERMINATED NORMALLY****
TOTAL RUN TIME: 0 days 0 hours 0 minutes 34 seconds 408 msec
