
                                 *****************
                                 * O   R   C   A *
                                 *****************

                                            #,                                       
                                            ###                                      
                                            ####                                     
                                            #####                                    
                                            ######                                   
                                           ########,                                 
                                     ,,################,,,,,                         
                               ,,#################################,,                 
                          ,,##########################################,,             
                       ,#########################################, ''#####,          
                    ,#############################################,,   '####,        
                  ,##################################################,,,,####,       
                ,###########''''           ''''###############################       
              ,#####''   ,,,,##########,,,,          '''####'''          '####       
            ,##' ,,,,###########################,,,                        '##       
           ' ,,###''''                  '''############,,,                           
         ,,##''                                '''############,,,,        ,,,,,,###''
      ,#''                                            '''#######################'''  
     '                                                          ''''####''''         
             ,#######,   #######,   ,#######,      ##                                
            ,#'     '#,  ##    ##  ,#'     '#,    #''#        ,####,    ,#,          
            ##       ##  ##   ,#'  ##            #'  '#       #'       ,# #          
            ##       ##  #######   ##           ,######,      #####,      #          
            '#,     ,#'  ##    ##  '#,     ,#' ,#      #,     #,   #      #          
             '#######'   ##     ##  '#######'  #'      '#     '####' #    #          



                #########################################################
                #                        -***-                          #
                #          Department of theory and spectroscopy        #
                #                                                       #
                #                      Frank Neese                      #
                #                                                       #
                #     Directorship, Architecture, Infrastructure        #
                #                    SHARK, DRIVERS                     #
                #        Core code/Algorithms in most modules           #
                #                                                       #
                #        Max Planck Institute fuer Kohlenforschung      #
                #                Kaiser Wilhelm Platz 1                 #
                #                 D-45470 Muelheim/Ruhr                 #
                #                      Germany                          #
                #                                                       #
                #                  All rights reserved                  #
                #                        -***-                          #
                #########################################################


                         Program Version 6.1.0  -  RELEASE   -
                                (GIT: $679e74b$)
                          ($2025-06-10 18:02:51 +0200$)


 With contributions from (in alphabetic order):
[Max-Planck-Institut fuer Kohlenforschung]                               
  Daniel Aravena         : Magnetic Suceptibility                        
  Michael Atanasov       : Ab Initio Ligand Field Theory (pilot matlab implementation)
  Alexander A. Auer      : GIAO ZORA, VPT2 properties, NMR spectrum      
  Ute Becker             : All parallelization in ORCA, NUMFREQ, NUMCALC 
  Giovanni Bistoni       : ED, misc. LED, open-shell LED, HFLD           
  Dmytro Bykov           : pre 5.0 version of the SCF Hessian            
  Marcos Casanova-Páez   : Triplet and SCS-CIS(D). UHF-(DLPNO)-IP/EA/STEOM-CCSD. UHF-CVS-IP/STEOM-CCSD   
  Vijay G. Chilkuri      : MRCI spin determinant printing, contributions to CSF-ICE 
  Pauline Colinet        : FMM embedding                                 
  Dipayan Datta          : RHF DLPNO-CCSD density                        
  Achintya Kumar Dutta   : EOM-CC, STEOM-CC                              
  Nicolas Foglia         : Exact transition moments, OPA infrastructure, MCD improvements    
  Dmitry Ganyushin       : Spin-Orbit,Spin-Spin,Magnetic field MRCI      
  Miquel Garcia-Rates    : C-PCM and meta-GGA Hessian, CCSD/C-PCM, Gaussian charge scheme 
  Tiago L. C. Gouveia    : GS-ROHF, GS-ROCIS                             
  Yang Guo               : DLPNO-NEVPT2, F12-NEVPT2, CIM, IAO-localization        
  Andreas Hansen         : Spin unrestricted coupled pair/coupled cluster methods 
  Ingolf Harden          : AUTO-CI MPn and infrastructure                
  Benjamin Helmich-Paris : MC-RPA, TRAH-(SCF,CASSCF), AVAS, COSX integrals, SCF dyn. polar., MC-PDFT, srDFT 
  Lee Huntington         : MR-EOM, pCC                                   
  Robert Izsak           : Overlap fitted RIJCOSX, COSX-SCS-MP3, EOM     
  Riya Kayal             : Wick's Theorem for AUTO-CI, AUTO-CI UHF-CCSDT 
  Emily Kempfer          : AUTO-CI RHF CISDT and CCSDT, approximate NEVPT4
  Christian Kollmar      : KDIIS, OOCD, Brueckner-CCSD(T), CCSD density, CASPT2, CASPT2-K, improved NEVPT2 
  Axel Koslowski         : Symmetry handling                             
  Simone Kossmann        : meta-GGA functionals, TD-DFT gradient, OOMP2, (MP2 Hessian; deprecated post 5.0) 
  Lucas Lang             : DCDCAS, Hyperfine gauge corrections, ICE-SOC+SSC
  Marvin Lechner         : AUTO-CI (C++ implementation), FIC-MRCC        
  Spencer Leger          : CASSCF response                               
  Dagmar Lenk            : GEPOL surface, SMD, ORCA-2-JSON               
  Dimitrios Liakos       : Extrapolation schemes; Compound Job, Property file
  Dimitrios Manganas     : Further ROCIS development; embedding schemes. LFT, Crystal Embedding 
  Dimitrios Pantazis     : SARC Basis sets                               
  Anastasios Papadopoulos: AUTO-CI, single reference methods and gradients 
  Taras Petrenko         : pre 6.0 DFT Hessian and TD-DFT gradient,  ECA, NRVS 
  Petra Pikulova         : Analytic Raman intensities                    
  Peter Pinski           : DLPNO-MP2, DLPNO-MP2 Gradient                 
  Shashank Vittal Rao    : ES-AILFT, MagRelax                            
  Christoph Reimann      : Effective Core Potentials                     
  Marius Retegan         : Local ZFS, SOC                                
  Christoph Riplinger    : Optimizer, TS searches, QM/MM, DLPNO-CCSD(T), (RO)-DLPNO pert. Triples 
  Michael Roemelt        : Original ROCIS implementation, recursive CI coupling coefficients
  Masaaki Saitow         : Open-shell DLPNO-CCSD energy and density      
  Barbara Sandhoefer     : DKH picture change effects                    
  Yorick L. A. Schmerwitz: GMF and freeze-and-release deltaSCF, NEB S-IDPP initial path                    
  Kantharuban Sivalingam : CASSCF convergence/infrastructure, NEVPT2, NEVPT3, NEVPT4(SD), FIC-MRCI and CEPA variants
  Bernardo de Souza      : ESD, SOC TD-DFT                               
  Georgi L. Stoychev     : AutoAux, RI-MP2 NMR, DLPNO-MP2 response, X2C  
  Van Anh Tran           : RI-MP2 g-tensors                              
  Willem Van den Heuvel  : Paramagnetic NMR                              
  Zikuan Wang            : NOTCH, Electric field optimization            
  Frank Wennmohs         : Technical directorship and infrastructure     
  Hang Xu                : AUTO-CI-Response properties                   
                                                                         
[FACCTs GmbH]                                                            
  Markus Bursch, Nicolas Foglia, Miquel Garcia-Rates, Ingolf Harden, Hagen Neugebauer, Anastasios Papadopoulos, 
  Christoph Riplinger, Bernardo de Souza, Georgi L. Stoychev                                                    
                                                                 
  APM, various basis sets, CI-OPT, improved COSX, DLPNO-Multilevel,           
  DOCKER, DRACO, updates on ESD, Fragmentator, GOAT, IRC, LR-CPCM, L-BFGS, MBIS, meta-GGA TD-DFT gradient, ML-optimized integration grids, 
  MM, NACMEs, nearIR, NEB, NEB-TS, NL-DFT gradient (VV10), 2- and 3-layer-ONIOM, interface openCOSMO-RS, QMMM,   
  Crystal-QMMM, RESP, rigid body optimization, SF, symmetry and pop. for TD-DFT, various functionals, SOLVATOR                                   
                                                                         
[Other institutions]                                                     
  V. Asgeirsson          : NEB                                           
  Christoph Bannwarth    : sTDA-DFT, sTD-DFT, PBEh-3c, B97-3c, D3        
  Giovanni Bistoni       : ETS/NOCV, ADLD/ADEX, COVALED                  
  Martin Brehm           : Molecular dynamics                            
  Ronald Cardenas        : ETS/NOCV                                      
  Martina Colucci        : COVALED                                       
  Sebastian Ehlert       : rSCAN, r2SCAN, r2SCAN-3c, D4, dhf basis sets  
  Marvin Friede          : D4 for Fr, Ra, Ac-Lr                          
  Lars Goerigk           : TD-DFT with DH, B97 family of functionals     
  Stefan Grimme          : VdW corrections, initial TS optimization, DFT functionals, gCP, sTDA/sTD-DF 
  Waldemar Hujo          : DFT-NL                                        
  H. Jonsson             : NEB                                           
  Holger Kruse           : gCP                                           
  Marcel Mueller         : wB97X-3c, vDZP basis set                      
  Hagen Neugebauer       : wr2SCAN, Native XTB                           
  Gianluca Regni         : ADLD/ADEX                                     
  Tobias Risthaus        : pre 6.0 range-separated hybrid DFT and stability analysis
  Lukas Wittmann         : regularized MP2, r2SCAN double-hybrids, wr2SCAN        
                                                                         
We gratefully acknowledge several colleagues who have allowed us to      
interface, adapt or use parts of their codes:                            
  Ed Valeev, F. Pavosevic, A. Kumar             : LibInt (2-el integral package), F12 methods 
  Garnet Chan, S. Sharma, J. Yang, R. Olivares  : DMRG                   
  Ulf Ekstrom                                   : XCFun DFT Library      
  Mihaly Kallay                                 : mrcc  (arbitrary order and MRCC methods)
  Frank Weinhold                                : gennbo (NPA and NBO analysis)           
  Simon Mueller                                 : openCOSMO-RS                            
  Christopher J. Cramer and Donald G. Truhlar   : smd solvation model                     
  S Lehtola, MJT Oliveira, MAL Marques          : LibXC Library                           
  Liviu Ungur et al                             : ANISO software                          


 Your calculation uses the libint2 library for the computation of 2-el integrals
 For citations please refer to: http://libint.valeyev.net

 Your ORCA version has been built with support for libXC version: 7.0.0
 For citations please refer to: https://libxc.gitlab.io

 This ORCA versions uses:
   CBLAS   interface :  Fast vector & matrix operations
   LAPACKE interface :  Fast linear algebra routines
   SCALAPACK package :  Parallel linear algebra routines
   Shared memory     :  Shared parallel matrices
   BLAS/LAPACK       :  OpenBLAS 0.3.29  USE64BITINT DYNAMIC_ARCH NO_AFFINITY Haswell SINGLE_THREADED
        Core in use  :  Haswell
   Copyright (c) 2011-2014, The OpenBLAS Project


  ***********************************
  * Starting time: Thu Aug 14 00:48:24 2025
  * Host name:     CHEMLAB02
  * Process ID:    1542441
  * Working dir.:  /home/vivek/mm-project/vivek/MP2/c/0
  ***********************************



***************************************
The coordinates will be read from file: /home/vivek/mm-project/vivek/xtb-goat/c/C_CONF/0.xyz
***************************************


================================================================================

----- Orbital basis set information -----
Your calculation utilizes the basis: 6-31G**
   H-He, Li-Ne : W. J. Hehre, R. Ditchfield and J.A. Pople, J. Chem. Phys. 56, 2257 (1972).
                 Note: He and Ne are unpublished basis sets taken from the Gaussian program.
                 Note: Li and B from J. D. Dill and J. A. Pople, J. Chem. Phys. 62, 2921 (1975).
   Na - Ar     : M. M. Francl, W. J. Pietro, W. J. Hehre, J. S. Binkley, M. S. Gordon, 
                 D. J. DeFrees and J. A. Pople, J. Chem. Phys. 77, 3654 (1982).
   K - Zn      : V. A. Rassolov, J. A. Pople, M. A. Ratner, and T. L. Windus, J. Chem. Phys. 109, 1223 (1998).

================================================================================
                                        WARNINGS
                       Please study these warnings very carefully!
================================================================================


WARNING: No MP2 level density has been requested!
         To calculate MP2 level properties use
         %mp2 Density relaxed end
         or
         %mp2 Density unrelaxed end

WARNING: Post HF methods need fully converged wavefunctions
  ===> : Setting SCFConvForced true
         You can overwrite this default with %scf ConvForced false 


================================================================================
                                       INPUT FILE
================================================================================
NAME = 0.inp
|  1> ! MP2 6-31G** 
|  2> 
|  3> * xyzfile 0 1 /home/vivek/mm-project/vivek/xtb-goat/c/C_CONF/0.xyz
|  4> 
|  5>                          ****END OF INPUT****
================================================================================

                       ****************************
                       * Single Point Calculation *
                       ****************************

---------------------------------
CARTESIAN COORDINATES (ANGSTROEM)
---------------------------------
  H     -1.442345    2.082440    1.646858
  C     -2.904842    0.985021    0.513520
  H     -2.808970    0.069002    1.093374
  H     -4.011893    3.029491    0.580771
  O     -0.111764    0.025462    0.971106
  C     -1.625748    1.824809    0.598650
  H     -1.041076    3.689384    0.005527
  S     -4.314432    1.900622    1.215686
  N     -1.796367    3.037786   -0.174506
  H     -1.768451    2.811914   -1.165438
  C     -0.469825    0.963612    0.094152
  H     -3.134294    0.743766   -0.525433
  O      0.052695    1.103547   -0.978957
  H      0.610578   -0.520322    0.619163

----------------------------
CARTESIAN COORDINATES (A.U.)
----------------------------
  NO LB      ZA    FRAG     MASS         X           Y           Z
   0 H     1.0000    0     1.008   -2.725637    3.935241    3.112111
   1 C     6.0000    0    12.011   -5.489356    1.861419    0.970413
   2 H     1.0000    0     1.008   -5.308184    0.130396    2.066177
   3 H     1.0000    0     1.008   -7.581379    5.724909    1.097499
   4 O     8.0000    0    15.999   -0.211204    0.048115    1.835125
   5 C     6.0000    0    12.011   -3.072218    3.448389    1.131284
   6 H     1.0000    0     1.008   -1.967349    6.971925    0.010444
   7 S    16.0000    0    32.060   -8.153095    3.591655    2.297313
   8 N     7.0000    0    14.007   -3.394641    5.740584   -0.329768
   9 H     1.0000    0     1.008   -3.341888    5.313747   -2.202358
  10 C     6.0000    0    12.011   -0.887841    1.820963    0.177921
  11 H     1.0000    0     1.008   -5.922958    1.405515   -0.992925
  12 O     8.0000    0    15.999    0.099579    2.085402   -1.849960
  13 H     1.0000    0     1.008    1.153824   -0.983265    1.170049

--------------------------------
INTERNAL COORDINATES (ANGSTROEM)
--------------------------------
 H      0   0   0     0.000000000000     0.00000000     0.00000000
 C      1   0   0     2.151204606006     0.00000000     0.00000000
 H      2   1   0     1.088352282913    95.09380855     0.00000000
 H      2   1   3     2.325929134244    81.94863680   139.85533291
 O      1   2   3     2.541307794758    78.63543150    54.41794084
 C      1   2   3     1.094875031533    42.41278861   125.73233856
 H      6   1   2     2.042125289346    90.87423687   140.27420648
 S      4   2   1     1.330034588344    51.39282899   251.24791388
 N      7   6   1     1.013634668511    41.52285283   226.34804532
 H      9   7   6     1.016731570359   107.18477146   240.76627740
 C      5   1   2     1.333185278806    57.63643890    70.55802219
 H      2   1   3     1.090997850954   139.24407203   231.24798423
 O     11   5   1     1.201736604104   123.54180231   161.24143421
 H      5   1   2     0.971350175442   160.13573280   129.82914282

---------------------------
INTERNAL COORDINATES (A.U.)
---------------------------
 H      0   0   0     0.000000000000     0.00000000     0.00000000
 C      1   0   0     4.065187563381     0.00000000     0.00000000
 H      2   1   0     2.056687751934    95.09380855     0.00000000
 H      2   1   3     4.395369070630    81.94863680   139.85533291
 O      1   2   3     4.802375754092    78.63543150    54.41794084
 C      1   2   3     2.069013960465    42.41278861   125.73233856
 H      6   1   2     3.859057528018    90.87423687   140.27420648
 S      4   2   1     2.513401120613    51.39282899   251.24791388
 N      7   6   1     1.915491923333    41.52285283   226.34804532
 H      9   7   6     1.921344219690   107.18477146   240.76627740
 C      5   1   2     2.519355062718    57.63643890    70.55802219
 H      2   1   3     2.061687150999   139.24407203   231.24798423
 O     11   5   1     2.270953066865   123.54180231   161.24143421
 H      5   1   2     1.835585811721   160.13573280   129.82914282

---------------------
BASIS SET INFORMATION
---------------------
There are 5 groups of distinct atoms

 Group   1 Type H   : 4s1p contracted to 2s1p pattern {31/1}
 Group   2 Type C   : 10s4p1d contracted to 3s2p1d pattern {631/31/1}
 Group   3 Type O   : 10s4p1d contracted to 3s2p1d pattern {631/31/1}
 Group   4 Type S   : 16s10p1d contracted to 4s3p1d pattern {6631/631/1}
 Group   5 Type N   : 10s4p1d contracted to 3s2p1d pattern {631/31/1}

Atom   0H    basis set group =>   1
Atom   1C    basis set group =>   2
Atom   2H    basis set group =>   1
Atom   3H    basis set group =>   1
Atom   4O    basis set group =>   3
Atom   5C    basis set group =>   2
Atom   6H    basis set group =>   1
Atom   7S    basis set group =>   4
Atom   8N    basis set group =>   5
Atom   9H    basis set group =>   1
Atom  10C    basis set group =>   2
Atom  11H    basis set group =>   1
Atom  12O    basis set group =>   3
Atom  13H    basis set group =>   1
------------------------------------------------------------------------------
                             ORCA STARTUP CALCULATIONS
------------------------------------------------------------------------------
------------------------------------------------------------------------------
                   ___                                                        
                  /   \      - P O W E R E D   B Y -                         
                 /     \                                                     
                 |  |  |   _    _      __       _____    __    __             
                 |  |  |  | |  | |    /  \     |  _  \  |  |  /  |          
                  \  \/   | |  | |   /    \    | | | |  |  | /  /          
                 / \  \   | |__| |  /  /\  \   | |_| |  |  |/  /          
                |  |  |   |  __  | /  /__\  \  |    /   |      \           
                |  |  |   | |  | | |   __   |  |    \   |  |\   \          
                \     /   | |  | | |  |  |  |  | |\  \  |  | \   \       
                 \___/    |_|  |_| |__|  |__|  |_| \__\ |__|  \__/        
                                                                              
                      - O R C A' S   B I G   F R I E N D -                    
                                      &                                       
                       - I N T E G R A L  F E E D E R -                       
                                                                              
 v1 FN, 2020, v2 2021, v3 2022-2024                                           
------------------------------------------------------------------------------


----------------------
SHARK INTEGRAL PACKAGE
----------------------

Number of atoms                             ...     14
Number of basis functions                   ...    137
Number of shells                            ...     65
Maximum angular momentum                    ...      2
Integral batch strategy                     ... SHARK/LIBINT Hybrid
RI-J (if used) integral strategy            ... SPLIT-RIJ (Revised 2003 algorithm where possible)
Printlevel                                  ...      1
Contraction scheme used                     ... SEGMENTED contraction
Prescreening option                         ... SCHWARTZ
   Thresh                                   ... 1.000e-10
   Tcut                                     ... 1.000e-11
   Tpresel                                  ... 1.000e-11 
Coulomb Range Separation                    ... NOT USED
Exchange Range Separation                   ... NOT USED
Multipole approximations                    ... NOT USED
Finite Nucleus Model                        ... NOT USED
CABS basis                                  ... NOT available
Auxiliary Coulomb fitting basis             ... NOT available
Auxiliary J/K fitting basis                 ... NOT available
Auxiliary Correlation fitting basis         ... NOT available
Auxiliary 'external' fitting basis          ... NOT available

Checking pre-screening integrals            ... done (  0.0 sec) Dimension = 65
   => SHARK Basis and OBASIS are compatible. Storing Pre-screening
Shell pair information
Shell pair cut-off parameter TPreSel        ...   1.0e-11
Total number of shell pairs                 ...      2145
Shell pairs after pre-screening             ...      2001
Total number of primitive shell pairs       ...     11826
Primitive shell pairs kept                  ...      7385
          la=0 lb=0:    614 shell pairs
          la=1 lb=0:    737 shell pairs
          la=1 lb=1:    240 shell pairs
          la=2 lb=0:    236 shell pairs
          la=2 lb=1:    146 shell pairs
          la=2 lb=2:     28 shell pairs

Checking whether 4 symmetric matrices of dimension 137 fit in memory
:Max Core in MB      =   4096.00
 MB in use           =      4.06
 MB left             =   4091.94
 MB needed           =      0.29
 Data fit in memory  = YES
Calculating Nuclear repulsion               ... done (  0.0 sec) ENN=    376.584038281029 Eh

Diagonalization of the overlap matrix:
Smallest eigenvalue                        ... 3.395e-03
Time for diagonalization                   ...    0.001 sec
Threshold for overlap eigenvalues          ... 1.000e-07
Number of eigenvalues below threshold      ... 0
Time for construction of square roots      ...    0.000 sec
Total time needed                          ...    0.001 sec

-------------------
DFT GRID GENERATION
-------------------

General Integration Accuracy     IntAcc      ... 4.388
Radial Grid Type                 RadialGrid  ... OptM3 with GC (2021)
Angular Grid (max. ang.)         AngularGrid ... 4 (Lebedev-302)
Angular grid pruning method      GridPruning ... 4 (adaptive)
Weight generation scheme         WeightScheme... mBecke (2022)
Basis function cutoff            BFCut       ... 1.0000e-10
Integration weight cutoff        WCut        ... 1.0000e-14
Partially contracted basis set               ... off
Rotationally invariant grid construction     ... off
Angular grids for H and He will be reduced by one unit

Total number of grid points                  ...    66166
Total number of batches                      ...     1041
Average number of points per batch           ...       63
Average number of grid points per atom       ...     4726
Grids setup in   0.2 sec
Initializing property integral containers    ... done (  0.0 sec)

SHARK setup successfully completed in   0.3 seconds

Maximum memory used throughout the entire STARTUP-calculation: 25.7 MB
-------------------------------------------------------------------------------
                                 ORCA GUESS
                   Start orbitals & Density for SCF / CASSCF
-------------------------------------------------------------------------------

------------
SCF SETTINGS
------------
Hamiltonian:
 Ab initio Hamiltonian  Method          .... Hartree-Fock(GTOs)


General Settings:
 Integral files         IntName         .... 0
 Hartree-Fock type      HFTyp           .... RHF
 Total Charge           Charge          ....    0
 Multiplicity           Mult            ....    1
 Number of Electrons    NEL             ....   64
 Basis Dimension        Dim             ....  137
 Nuclear Repulsion      ENuc            ....    376.5840382810 Eh

Convergence Acceleration:
 AO-DIIS                CNVDIIS         .... on
   Start iteration      DIISMaxIt       ....    12
   Startup error        DIISStart       ....  0.200000
   # of expansion vecs  DIISMaxEq       ....     5
   Bias factor          DIISBfac        ....   1.050
   Max. coefficient     DIISMaxC        ....  10.000
 MO-DIIS                CNVKDIIS        .... off
 Trust-Rad. Augm. Hess. CNVTRAH         .... auto
   Auto Start mean grad. ratio tolernc. ....  1.125000
   Auto Start start iteration           ....    50
   Auto Start num. interpolation iter.  ....    10
   Max. Number of Micro iterations      ....    24
   Max. Number of Macro iterations      .... Maxiter - #DIIS iter
   Number of Davidson start vectors     ....     2
   Converg. threshold    (grad. norm)   ....   5.000e-05
   Grad. Scal. Fac. for Micro threshold ....   0.100
   Minimum threshold for Micro iter.    ....   1.000e-02
   NR start threshold (gradient norm)   ....   1.000e-04
   Initial trust radius                 ....   0.400
   Minimum AH scaling param. (alpha)    ....   1.000
   Maximum AH scaling param. (alpha)    .... 1000.000
   Quad. conv. algorithm                .... NR
   White noise on init. David. guess    .... on
   Maximum white noise                  ....   0.010
   Pseudo random numbers                .... off
   Inactive MOs                         .... canonical
   Orbital update algorithm             .... Taylor
   Preconditioner                       .... Diag
   Full preconditioner red. dimension   ....   250
 SOSCF                 CNVSOSCF           .... on
   Start iteration     SOSCFMaxIt         ....   150
   Startup grad/error  SOSCFStart         ....  0.003300
   Hessian update      SOSCFHessUp        .... L-BFGS
   Autom. constraints  SOSCFAutoConstrain .... off
 Level Shifting         CNVShift        .... on
   Level shift para.    LevelShift      ....    0.2500
   Turn off err/grad.   ShiftErr        ....    0.0010
 Zerner damping         CNVZerner       .... off
 Static damping         CNVDamp         .... on
   Fraction old density DampFac         ....    0.7000
   Max. Damping (<1)    DampMax         ....    0.9800
   Min. Damping (>=0)   DampMin         ....    0.0000
   Turn off err/grad.   DampErr         ....    0.1000

SCF Procedure:
 Maximum # iterations   MaxIter         ....   125
 SCF integral mode      SCFMode         .... Direct
   Integral package                     .... SHARK and LIBINT hybrid scheme
 Reset frequency        DirectResetFreq ....    20
 Integral Threshold     Thresh          ....  1.000e-10 Eh
 Primitive CutOff       TCut            ....  1.000e-11 Eh

Convergence Tolerance:
 Convergence Check Mode ConvCheckMode   .... Total+1el-Energy
 Convergence forced     ConvForced      .... 1
 Energy Change          TolE            ....  1.000e-06 Eh
 1-El. energy change                    ....  1.000e-03 Eh
 Orbital Gradient       TolG            ....  5.000e-05
 Orbital Rotation angle TolX            ....  5.000e-05
 DIIS Error             TolErr          ....  1.000e-06

------------------------------
INITIAL GUESS: MODEL POTENTIAL
------------------------------
Loading Hartree-Fock densities                     ... done
Calculating cut-offs                               ... done
Initializing the effective Hamiltonian             ... done
Setting up the integral package (SHARK)            ... done
Starting the Coulomb interaction                   ... done (   0.0 sec)
Making the grid                                    ... done (   0.1 sec)
Mapping shells                                     ... done
Starting the XC term evaluation                    ... done (   0.0 sec)
Transforming the Hamiltonian                       ... done (   0.0 sec)
Diagonalizing the Hamiltonian                      ... done (   0.0 sec)
Back transforming the eigenvectors                 ... done (   0.0 sec)
Now organizing SCF variables                       ... done
                      ------------------
                      INITIAL GUESS DONE (   0.1 sec)
                      ------------------
             **** ENERGY FILE WAS UPDATED (0.en.tmp) ****
Finished Guess after   0.1 sec
Maximum memory used throughout the entire GUESS-calculation: 8.2 MB

-------------------------------------------------------------------------------------------
                                      ORCA LEAN-SCF
                              memory conserving SCF solver
-------------------------------------------------------------------------------------------

----------------------------------------D-I-I-S--------------------------------------------
Iteration    Energy (Eh)           Delta-E    RMSDP     MaxDP     DIISErr   Damp  Time(sec)
-------------------------------------------------------------------------------------------
               ***  Starting incremental Fock matrix formation  ***
    1    -719.1144412027111912     0.00e+00  2.84e-03  6.54e-02  2.44e-01  0.700   0.8
    2    -719.2143017221932269    -9.99e-02  2.12e-03  4.67e-02  1.48e-01  0.700   0.7
                               ***Turning on AO-DIIS***
    3    -719.2720928288341611    -5.78e-02  1.17e-03  2.89e-02  8.15e-02  0.700   0.7
    4    -719.3085923547331504    -3.65e-02  2.71e-03  6.84e-02  5.56e-02  0.000   0.7
    5    -719.3905069994990527    -8.19e-02  3.32e-04  4.31e-03  4.87e-03  0.000   0.7
                              *** Initializing SOSCF ***
---------------------------------------S-O-S-C-F--------------------------------------
Iteration    Energy (Eh)           Delta-E    RMSDP     MaxDP     MaxGrad    Time(sec)
--------------------------------------------------------------------------------------
    6    -719.3909213334296737    -4.14e-04  1.70e-04  2.27e-03  2.13e-03     0.7
               *** Restarting incremental Fock matrix formation ***
    7    -719.3910172331137574    -9.59e-05  1.03e-04  1.52e-03  1.39e-03     0.8
    8    -719.3910464585816271    -2.92e-05  1.11e-04  1.77e-03  3.82e-04     0.6
    9    -719.3910563567570762    -9.90e-06  2.18e-05  3.12e-04  2.13e-04     0.6
   10    -719.3910573094536858    -9.53e-07  7.44e-06  1.09e-04  5.17e-05     0.6
                 **** Energy Check signals convergence ****

               *****************************************************
               *                     SUCCESS                       *
               *           SCF CONVERGED AFTER  10 CYCLES          *
               *****************************************************

             **** ENERGY FILE WAS UPDATED (0.en.tmp) ****

----------------
TOTAL SCF ENERGY
----------------

Total Energy       :       -719.39105740783668 Eh          -19575.62588 eV

Components:
Nuclear Repulsion  :        376.58403828102917 Eh           10247.37265 eV
Electronic Energy  :      -1095.97509568886585 Eh          -29822.99853 eV
One Electron Energy:      -1737.90684876543241 Eh          -47290.84958 eV
Two Electron Energy:        641.93175307656657 Eh           17467.85105 eV

Virial components:
Potential Energy   :      -1438.48484850352725 Eh          -39143.16273 eV
Kinetic Energy     :        719.09379109569056 Eh           19567.53685 eV
Virial Ratio       :          2.00041339018057

---------------
SCF CONVERGENCE
---------------

  Last Energy change         ...    9.5270e-07  Tolerance :   1.0000e-06
  Last MAX-Density change    ...    1.0865e-04  Tolerance :   1.0000e-05
  Last RMS-Density change    ...    7.4436e-06  Tolerance :   1.0000e-06
  Last DIIS Error            ...    2.1268e-03  Tolerance :   1.0000e-06
  Last Orbital Gradient      ...    5.1686e-05  Tolerance :   5.0000e-05
  Last Orbital Rotation      ...    8.9863e-05  Tolerance :   5.0000e-05


----------------
ORBITAL ENERGIES
----------------

  NO   OCC          E(Eh)            E(eV) 
   0   2.0000     -91.924586     -2501.3952 
   1   2.0000     -20.630193      -561.3761 
   2   2.0000     -20.565937      -559.6276 
   3   2.0000     -15.563215      -423.4966 
   4   2.0000     -11.394768      -310.0674 
   5   2.0000     -11.290505      -307.2303 
   6   2.0000     -11.270743      -306.6925 
   7   2.0000      -8.941359      -243.3067 
   8   2.0000      -6.623547      -180.2359 
   9   2.0000      -6.622305      -180.2021 
  10   2.0000      -6.620131      -180.1429 
  11   2.0000      -1.481512       -40.3140 
  12   2.0000      -1.375715       -37.4351 
  13   2.0000      -1.215089       -33.0643 
  14   2.0000      -1.061360       -28.8811 
  15   2.0000      -0.968892       -26.3649 
  16   2.0000      -0.862099       -23.4589 
  17   2.0000      -0.809977       -22.0406 
  18   2.0000      -0.723365       -19.6838 
  19   2.0000      -0.711261       -19.3544 
  20   2.0000      -0.689727       -18.7684 
  21   2.0000      -0.643082       -17.4992 
  22   2.0000      -0.621655       -16.9161 
  23   2.0000      -0.601134       -16.3577 
  24   2.0000      -0.573680       -15.6106 
  25   2.0000      -0.533751       -14.5241 
  26   2.0000      -0.521952       -14.2030 
  27   2.0000      -0.493370       -13.4253 
  28   2.0000      -0.480842       -13.0844 
  29   2.0000      -0.438399       -11.9295 
  30   2.0000      -0.416619       -11.3368 
  31   2.0000      -0.350899        -9.5485 
  32   0.0000       0.157043         4.2734 
  33   0.0000       0.199362         5.4249 
  34   0.0000       0.212090         5.7713 
  35   0.0000       0.236788         6.4433 
  36   0.0000       0.252971         6.8837 
  37   0.0000       0.261404         7.1132 
  38   0.0000       0.287959         7.8358 
  39   0.0000       0.308732         8.4010 
  40   0.0000       0.326494         8.8843 
  41   0.0000       0.378761        10.3066 
  42   0.0000       0.399059        10.8590 
*Only the first 10 virtual orbitals were printed.

                    ********************************
                    * MULLIKEN POPULATION ANALYSIS *
                    ********************************

-----------------------
MULLIKEN ATOMIC CHARGES
-----------------------
   0 H :    0.178875
   1 C :   -0.384839
   2 H :    0.176677
   3 H :    0.097853
   4 O :   -0.632315
   5 C :   -0.034929
   6 H :    0.285161
   7 S :   -0.027565
   8 N :   -0.691655
   9 H :    0.291789
  10 C :    0.784267
  11 H :    0.159863
  12 O :   -0.579296
  13 H :    0.376112
Sum of atomic charges:    0.0000000

--------------------------------
MULLIKEN REDUCED ORBITAL CHARGES
--------------------------------
  0 H s       :     0.808881  s :     0.808881
      pz      :     0.009048  p :     0.012244
      px      :     0.001668
      py      :     0.001529

  1 C s       :     3.309660  s :     3.309660
      pz      :     1.097347  p :     3.027141
      px      :     0.900409
      py      :     1.029385
      dz2     :     0.012407  d :     0.048038
      dxz     :     0.006051
      dyz     :     0.009996
      dx2y2   :     0.008863
      dxy     :     0.010721

  2 H s       :     0.810356  s :     0.810356
      pz      :     0.003904  p :     0.012967
      px      :     0.001745
      py      :     0.007318

  3 H s       :     0.883512  s :     0.883512
      pz      :     0.005815  p :     0.018634
      px      :     0.003716
      py      :     0.009103

  4 O s       :     3.835872  s :     3.835872
      pz      :     1.673096  p :     4.771029
      px      :     1.599260
      py      :     1.498673
      dz2     :     0.004519  d :     0.025414
      dxz     :     0.005947
      dyz     :     0.009315
      dx2y2   :     0.002498
      dxy     :     0.003135

  5 C s       :     3.205039  s :     3.205039
      pz      :     1.023986  p :     2.759317
      px      :     0.918477
      py      :     0.816855
      dz2     :     0.016241  d :     0.070572
      dxz     :     0.006566
      dyz     :     0.014938
      dx2y2   :     0.010550
      dxy     :     0.022278

  6 H s       :     0.688647  s :     0.688647
      pz      :     0.004344  p :     0.026191
      px      :     0.011600
      py      :     0.010247

  7 S s       :     5.841552  s :     5.841552
      pz      :     3.671106  p :    10.117672
      px      :     3.397121
      py      :     3.049445
      dz2     :     0.003805  d :     0.068340
      dxz     :     0.010105
      dyz     :     0.020528
      dx2y2   :     0.016808
      dxy     :     0.017094

  8 N s       :     3.602098  s :     3.602098
      pz      :     1.204120  p :     4.055690
      px      :     1.630736
      py      :     1.220834
      dz2     :     0.011201  d :     0.033866
      dxz     :     0.001728
      dyz     :     0.007296
      dx2y2   :     0.005072
      dxy     :     0.008570

  9 H s       :     0.682167  s :     0.682167
      pz      :     0.015423  p :     0.026044
      px      :     0.006259
      py      :     0.004362

 10 C s       :     2.945354  s :     2.945354
      pz      :     0.683818  p :     2.123270
      px      :     0.758352
      py      :     0.681100
      dz2     :     0.035619  d :     0.147109
      dxz     :     0.033612
      dyz     :     0.044259
      dx2y2   :     0.017217
      dxy     :     0.016401

 11 H s       :     0.827453  s :     0.827453
      pz      :     0.008670  p :     0.012684
      px      :     0.002040
      py      :     0.001973

 12 O s       :     3.872343  s :     3.872343
      pz      :     1.401853  p :     4.674032
      px      :     1.584373
      py      :     1.687807
      dz2     :     0.012154  d :     0.032920
      dxz     :     0.009024
      dyz     :     0.007487
      dx2y2   :     0.001876
      dxy     :     0.002379

 13 H s       :     0.582337  s :     0.582337
      pz      :     0.009017  p :     0.041551
      px      :     0.018749
      py      :     0.013785



                     *******************************
                     * LOEWDIN POPULATION ANALYSIS *
                     *******************************

----------------------
LOEWDIN ATOMIC CHARGES
----------------------
   0 H :    0.090492
   1 C :   -0.209088
   2 H :    0.089605
   3 H :    0.049966
   4 O :   -0.204325
   5 C :   -0.031495
   6 H :    0.135860
   7 S :    0.013278
   8 N :   -0.273854
   9 H :    0.138981
  10 C :    0.225571
  11 H :    0.076096
  12 O :   -0.305568
  13 H :    0.204482

-------------------------------
LOEWDIN REDUCED ORBITAL CHARGES
-------------------------------
  0 H s       :     0.869075  s :     0.869075
      pz      :     0.027287  p :     0.040434
      px      :     0.006705
      py      :     0.006442

  1 C s       :     2.941261  s :     2.941261
      pz      :     1.100992  p :     3.178860
      px      :     1.005795
      py      :     1.072074
      dz2     :     0.021555  d :     0.088966
      dxz     :     0.012260
      dyz     :     0.016712
      dx2y2   :     0.016972
      dxy     :     0.021467

  2 H s       :     0.867904  s :     0.867904
      pz      :     0.012933  p :     0.042490
      px      :     0.006546
      py      :     0.023011

  3 H s       :     0.898471  s :     0.898471
      pz      :     0.016312  p :     0.051564
      px      :     0.010166
      py      :     0.025086

  4 O s       :     3.455149  s :     3.455149
      pz      :     1.658973  p :     4.700741
      px      :     1.559576
      py      :     1.482191
      dz2     :     0.008214  d :     0.048435
      dxz     :     0.008524
      dyz     :     0.016386
      dx2y2   :     0.005209
      dxy     :     0.010103

  5 C s       :     2.872282  s :     2.872282
      pz      :     1.041771  p :     3.017192
      px      :     1.014797
      py      :     0.960624
      dz2     :     0.030165  d :     0.142021
      dxz     :     0.012788
      dyz     :     0.029346
      dx2y2   :     0.022189
      dxy     :     0.047533

  6 H s       :     0.781835  s :     0.781835
      pz      :     0.013295  p :     0.082305
      px      :     0.038539
      py      :     0.030471

  7 S s       :     5.623376  s :     5.623376
      pz      :     3.708276  p :    10.287573
      px      :     3.472068
      py      :     3.107228
      dz2     :     0.004566  d :     0.075774
      dxz     :     0.011545
      dyz     :     0.021512
      dx2y2   :     0.018349
      dxy     :     0.019802

  8 N s       :     3.185033  s :     3.185033
      pz      :     1.200036  p :     4.028574
      px      :     1.583785
      py      :     1.244752
      dz2     :     0.019909  d :     0.060247
      dxz     :     0.002620
      dyz     :     0.014310
      dx2y2   :     0.008680
      dxy     :     0.014727

  9 H s       :     0.778494  s :     0.778494
      pz      :     0.046935  p :     0.082526
      px      :     0.021163
      py      :     0.014428

 10 C s       :     2.846224  s :     2.846224
      pz      :     0.933765  p :     2.608948
      px      :     0.862130
      py      :     0.813053
      dz2     :     0.077416  d :     0.319257
      dxz     :     0.072160
      dyz     :     0.100034
      dx2y2   :     0.036898
      dxy     :     0.032750

 11 H s       :     0.881612  s :     0.881612
      pz      :     0.026638  p :     0.042292
      px      :     0.007594
      py      :     0.008061

 12 O s       :     3.547588  s :     3.547588
      pz      :     1.471009  p :     4.700301
      px      :     1.575975
      py      :     1.653317
      dz2     :     0.021096  d :     0.057679
      dxz     :     0.018730
      dyz     :     0.011498
      dx2y2   :     0.003269
      dxy     :     0.003085

 13 H s       :     0.675273  s :     0.675273
      pz      :     0.028759  p :     0.120245
      px      :     0.052791
      py      :     0.038695



                      *****************************
                      * MAYER POPULATION ANALYSIS *
                      *****************************

  NA   - Mulliken gross atomic population
  ZA   - Total nuclear charge
  QA   - Mulliken gross atomic charge
  VA   - Mayer's total valence
  BVA  - Mayer's bonded valence
  FA   - Mayer's free valence

  ATOM       NA         ZA         QA         VA         BVA        FA
  0 H      0.8211     1.0000     0.1789     0.9371     0.9371     0.0000
  1 C      6.3848     6.0000    -0.3848     3.7800     3.7800     0.0000
  2 H      0.8233     1.0000     0.1767     0.9363     0.9363     0.0000
  3 H      0.9021     1.0000     0.0979     0.9703     0.9703     0.0000
  4 O      8.6323     8.0000    -0.6323     1.8266     1.8266    -0.0000
  5 C      6.0349     6.0000    -0.0349     3.7404     3.7404     0.0000
  6 H      0.7148     1.0000     0.2852     0.9004     0.9004     0.0000
  7 S     16.0276    16.0000    -0.0276     1.8988     1.8988    -0.0000
  8 N      7.6917     7.0000    -0.6917     2.7631     2.7631     0.0000
  9 H      0.7082     1.0000     0.2918     0.9026     0.9026     0.0000
 10 C      5.2157     6.0000     0.7843     3.6992     3.6992    -0.0000
 11 H      0.8401     1.0000     0.1599     0.9318     0.9318     0.0000
 12 O      8.5793     8.0000    -0.5793     1.9056     1.9056     0.0000
 13 H      0.6239     1.0000     0.3761     0.8685     0.8685     0.0000

  Mayer bond orders larger than 0.100000
B(  0-H ,  5-C ) :   0.9521 B(  1-C ,  2-H ) :   0.9553 B(  1-C ,  5-C ) :   0.9436 
B(  1-C ,  7-S ) :   0.9736 B(  1-C , 11-H ) :   0.9527 B(  3-H ,  7-S ) :   0.9456 
B(  4-O , 10-C ) :   0.9758 B(  4-O , 13-H ) :   0.8374 B(  5-C ,  8-N ) :   0.9854 
B(  5-C , 10-C ) :   0.9165 B(  6-H ,  8-N ) :   0.9058 B(  8-N ,  9-H ) :   0.8925 
B( 10-C , 12-O ) :   1.8374 

-------
TIMINGS
-------

Total SCF time: 0 days 0 hours 0 min 7 sec 

Total time                  ....       7.585 sec
Sum of individual times     ....       7.016 sec  ( 92.5%)

SCF preparation             ....       0.014 sec  (  0.2%)
Fock matrix formation       ....       6.977 sec  ( 92.0%)
  Startup                   ....       0.000 sec  (  0.0% of F)
  Coulomb+Exchange Fock     ....       7.539 sec  (108.1% of F)
Diagonalization             ....       0.000 sec  (  0.0%)
Density matrix formation    ....       0.003 sec  (  0.0%)
Total Energy calculation    ....       0.000 sec  (  0.0%)
Population analysis         ....       0.002 sec  (  0.0%)
Orbital Transformation      ....       0.003 sec  (  0.0%)
Orbital Orthonormalization  ....       0.000 sec  (  0.0%)
DIIS solution               ....       0.012 sec  (  0.2%)
SOSCF solution              ....       0.005 sec  (  0.1%)
Finished LeanSCF after   7.6 sec

Maximum memory used throughout the entire LEANSCF-calculation: 11.8 MB

------------------------------------------------------------------------------
                                ORCA  MP2 
------------------------------------------------------------------------------

Freezing NCore=22 chemical core electrons

----------
MP2 ENERGY (disk based algorithm)
----------

Dimension of the basis                      ...  137
Memory devoted to MP2                       ... 4096 MB   
Data format for buffers                     ... DOUBLE
Compression type for matrix containers      ... UNCOMPRESSED

-------------------------
SHARK HALF TRANSFORMATION (Exchange order)
-------------------------

Number of basis functions                   ...    137
Number of operators                         ...      1
   Operator  0:   11-  31 (p-index in (p*|q*))
   Operator  0:   11-  31 (q-index in (p*|q*)
Integral generator used                     ... SHARK
Contraction scheme used                     ... SEGMENTED CONTRACTION
MaxCore in resort                           ...   4096 MB

Half transformed integrals for op=   0      ... 0.SHARK_MNPQ0.tmp
Resorted half transformed integrals         ... 0.KAO_aa.tmp

Half trafo (segmented) done. Total time =  4.2 sec. integrals=  4.0 sec trafo=  0.2 sec

----------------------
SHARK INTEGRAL SORTING (Exchange)
----------------------

Input container                             ... 0.SHARK_MNPQ0.tmp
Output container                            ... 0.KAO_aa.tmp
Range of AO-indices                         ...    0 -  136
Range of bra indices i                      ...   11 -   31
Range of ket indices j                      ...   11 -   31
Symmetric i,j range                         ... YES
Number of (i,j) pairs generated             ...  231
Max Core memory in MB                       ...   4096

Available core memory in MB                 ...   4089.75
MB needed for one item                      ...      0.14
Fixed MB needed                             ...      0.00
Number of items                             ...       231
Number of batches                           ...         1
Items treated per batch                     ...       231
Batch   0                                   ...      0-   230 (   231)
   => Closing output file and leaving
done (  0.0 sec)

SHARK half integral transformation done. Total time =  4.3 sec.


Finished integral transformation - now doing MP2 part

OPERATOR COMBINATION   0   0: ij=( 11.. 31, 11.. 31)
  Internal MO  13
  Internal MO  16
  Internal MO  19
  Internal MO  22
  Internal MO  25
  Internal MO  28
  Internal MO  31
-----------------------------------------------
 MP2 CORRELATION ENERGY   :     -1.055820553 Eh
-----------------------------------------------


-------
TIMINGS
-------
Total time                :    4.292 sec
Integral trafo            :    4.258 sec ( 99.2%)
K(i,j)                    :    0.026 sec (  0.6%)
T(i,j)                    :    0.001 sec (  0.0%)

---------------------------------------
MP2 TOTAL ENERGY:     -720.446877960 Eh
---------------------------------------

Maximum memory used throughout the entire MP2-calculation: 64.4 MB

-------------------------   --------------------
FINAL SINGLE POINT ENERGY      -720.446877960347
-------------------------   --------------------


------------------------------------------------------------------------------
                              ORCA PROPERTY CALCULATIONS
------------------------------------------------------------------------------

GBWName                                 ... 0.gbw
Number of atoms                         ...     14
Number of basis functions               ...    137
Max core memory                         ...   4096 MB

Electric properties:
Dipole moment                           ... YES
Quadrupole moment                       ...  NO
Static polarizability (Dipole/Dipole)   ...  NO
Static polarizability (Dipole/Quad.)    ...  NO
Static polarizability (Quad./Quad.)     ...  NO
Static polarizability (Velocity)        ...  NO
Static hyperpolarizability              ...  NO

Atomic electric properties:
Dipole moment                           ...  NO
Quadrupole moment                       ...  NO
Static polarizability                   ...  NO

Choice of electric origin               ... Center of mass
Position of electric origin             ...    -3.715262     2.789979     0.829284

General magnetic properties:
Magnetizability                         ...  NO

EPR properties:
g-Tensor (aka g-matrix)                 ...  NO
Zero-Field splitting spin-orbit         ...  NO
Zero-field splitting spin-spin          ...  NO
Hyperfine couplings                     ...  NO (   0 nuclei)
Quadrupole couplings                    ...  NO (   0 nuclei)
Contact density                         ...  NO (   0 nuclei)

NMR properties:
Chemical shifts                         ...  NO (   0 nuclei)
Spin-rotation constants                 ...  NO (   0 nuclei)
Spin-spin couplings                     ...  NO (   0 nuclei,    0 pairs)

Choice of magnetic origin               ... GIAO
Position of magnetic origin             ...     0.000000     0.000000     0.000000

Properties with geometric perturbations:
SCF Hessian                             ...  NO
IR spectrum                             ...  NO
VCD spectrum                            ...  NO
X-ray spectroscopy properties:
SCF XES/XAS/RIXS spectra                ...  NO

SCF SOC stabilization energy            ...  NO
Diagonal Born-Oppenheimer correction    ...  NO

-------------
DIPOLE MOMENT
-------------

Method             : SCF
Type of density    : Electron Density
Multiplicity       :   1
Irrep              :   0
Energy             :  -719.3910574078366835 Eh
Basis              : AO
                                X                 Y                 Z
Electronic contribution:      0.587934270      -1.702474444       0.836655284
Nuclear contribution   :      0.281722429       1.443147509      -0.805493720
                        -----------------------------------------
Total Dipole Moment    :      0.869656700      -0.259326935       0.031161564
                        -----------------------------------------
Magnitude (a.u.)       :      0.908033192
Magnitude (Debye)      :      2.308036951



--------------------
Rotational spectrum 
--------------------
 
Rotational constants in cm-1:             0.145620             0.039773             0.033866 
Rotational constants in MHz :          4365.585428          1192.364578          1015.290009 

Dipole components along the rotational axes: 
x,y,z [a.u.] :    -0.868147     0.157836    -0.214318 
x,y,z [Debye]:    -2.206655     0.401187    -0.544753 

 

Dipole moment calculation done in   0.0 sec 

Maximum memory used throughout the entire PROP-calculation: 6.3 MB

--------------------------------
SUGGESTED CITATIONS FOR THIS RUN
--------------------------------

Below you find a list of papers that are relevant to this ORCA run
We neither can nor want to force you to cite these papers, but we appreciate if you do
You receive ORCA, which is the product of decades of hard work by many enthusiastic individuals, for free
The only thing we kindly ask in return is that you cite our papers,
We deeply appreciate it, if you show your appreciation for ORCA by not just citing the generic ORCA reference.

Please note that relegating all ORCA citations to the supporting information does *not* help us.
SI sections are not indexed - citations you put there will not count into any citation statistics
But we need these citations in order to attract the funding resources that allow us to do what we are doing

Therefore, if you are a happy ORCA user, please consider citing a few of the papers listed below in the main body of your paper

In addition to the list printed below, the program has created the file 0.bibtex that contains the list in bibtex format
You can import this file easily into all common literature databanks and citation aid programs


List of essential papers. We consider these as the minimum necessary citations

  1. Neese, F.
     Software update: the ORCA program system, version 6.0
     WIRES Comput. Molec. Sci. 2025 15(1), e70019
     doi.org/10.1002/wcms.7019

List of papers to cite with high priority. The work reported in these papers was absolutely
necessary for this run to complete.
Our perspective: the developers of density functionals and basis sets usually get cited in chemistry papers
Good! But without the algorithms to do something with them, the functionals or basis sets would not do anything.
Hence, in our opinion, the algorithm design and method developments papers are equally worthy of getting cited

  1. Neese, F.
     The SHARK Integral Generation and Digestion System
     J. Comp. Chem. 2022 44(3), 381
     doi.org/10.1002/jcc.26942

List of suggested additional citations. These are papers that are important in the 'surrounding' of 
of this run, or papers that preceded the highly important papers. If you like your results we are grateful for a citation.

  1. Neese, F.
     The ORCA program system
     WIRES Comput. Molec. Sci. 2012 2(1), 73-78
     doi.org/10.1002/wcms.81
  2. Neese, F.
     Software update: the ORCA program system, version 4.0
     WIRES Comput. Molec. Sci. 2018 8(1), 1-6
     doi.org/10.1002/wcms.1327
  3. Neese, F.; Wennmohs, F.; Becker, U.; Riplinger, C.
     The ORCA quantum chemistry program package
     J. Chem. Phys. 2020 152(22), 224108
     doi.org/10.1063/5.0004608
  4. Neese, F.
     Software update: The ORCA program system—Version 5.0
     WIRES Comput. Molec. Sci. 2022 12(1), e1606
     doi.org/10.1002/wcms.1606

List of optional additional citations

  1. Neese, F.
     Approximate second-order SCF convergence for spin unrestricted wavefunctions
     Chem. Phys. Lett. 2000 325(1-3), 93-98
     doi.org/10.1016/s0009-2614(00)00662-x

Timings for individual modules:

Sum of individual times          ...       12.363 sec (=   0.206 min)
Startup calculation              ...        0.289 sec (=   0.005 min)   2.3 %
SCF iterations                   ...        7.739 sec (=   0.129 min)  62.6 %
Property calculations            ...        0.022 sec (=   0.000 min)   0.2 %
MP2 module                       ...        4.314 sec (=   0.072 min)  34.9 %
                             ****ORCA TERMINATED NORMALLY****
TOTAL RUN TIME: 0 days 0 hours 0 minutes 12 seconds 401 msec
