
                                 *****************
                                 * O   R   C   A *
                                 *****************

                                            #,                                       
                                            ###                                      
                                            ####                                     
                                            #####                                    
                                            ######                                   
                                           ########,                                 
                                     ,,################,,,,,                         
                               ,,#################################,,                 
                          ,,##########################################,,             
                       ,#########################################, ''#####,          
                    ,#############################################,,   '####,        
                  ,##################################################,,,,####,       
                ,###########''''           ''''###############################       
              ,#####''   ,,,,##########,,,,          '''####'''          '####       
            ,##' ,,,,###########################,,,                        '##       
           ' ,,###''''                  '''############,,,                           
         ,,##''                                '''############,,,,        ,,,,,,###''
      ,#''                                            '''#######################'''  
     '                                                          ''''####''''         
             ,#######,   #######,   ,#######,      ##                                
            ,#'     '#,  ##    ##  ,#'     '#,    #''#        ,####,    ,#,          
            ##       ##  ##   ,#'  ##            #'  '#       #'       ,# #          
            ##       ##  #######   ##           ,######,      #####,      #          
            '#,     ,#'  ##    ##  '#,     ,#' ,#      #,     #,   #      #          
             '#######'   ##     ##  '#######'  #'      '#     '####' #    #          



                #########################################################
                #                        -***-                          #
                #          Department of theory and spectroscopy        #
                #                                                       #
                #                      Frank Neese                      #
                #                                                       #
                #     Directorship, Architecture, Infrastructure        #
                #                    SHARK, DRIVERS                     #
                #        Core code/Algorithms in most modules           #
                #                                                       #
                #        Max Planck Institute fuer Kohlenforschung      #
                #                Kaiser Wilhelm Platz 1                 #
                #                 D-45470 Muelheim/Ruhr                 #
                #                      Germany                          #
                #                                                       #
                #                  All rights reserved                  #
                #                        -***-                          #
                #########################################################


                         Program Version 6.1.0  -  RELEASE   -
                                (GIT: $679e74b$)
                          ($2025-06-10 18:02:51 +0200$)


 With contributions from (in alphabetic order):
[Max-Planck-Institut fuer Kohlenforschung]                               
  Daniel Aravena         : Magnetic Suceptibility                        
  Michael Atanasov       : Ab Initio Ligand Field Theory (pilot matlab implementation)
  Alexander A. Auer      : GIAO ZORA, VPT2 properties, NMR spectrum      
  Ute Becker             : All parallelization in ORCA, NUMFREQ, NUMCALC 
  Giovanni Bistoni       : ED, misc. LED, open-shell LED, HFLD           
  Dmytro Bykov           : pre 5.0 version of the SCF Hessian            
  Marcos Casanova-Páez   : Triplet and SCS-CIS(D). UHF-(DLPNO)-IP/EA/STEOM-CCSD. UHF-CVS-IP/STEOM-CCSD   
  Vijay G. Chilkuri      : MRCI spin determinant printing, contributions to CSF-ICE 
  Pauline Colinet        : FMM embedding                                 
  Dipayan Datta          : RHF DLPNO-CCSD density                        
  Achintya Kumar Dutta   : EOM-CC, STEOM-CC                              
  Nicolas Foglia         : Exact transition moments, OPA infrastructure, MCD improvements    
  Dmitry Ganyushin       : Spin-Orbit,Spin-Spin,Magnetic field MRCI      
  Miquel Garcia-Rates    : C-PCM and meta-GGA Hessian, CCSD/C-PCM, Gaussian charge scheme 
  Tiago L. C. Gouveia    : GS-ROHF, GS-ROCIS                             
  Yang Guo               : DLPNO-NEVPT2, F12-NEVPT2, CIM, IAO-localization        
  Andreas Hansen         : Spin unrestricted coupled pair/coupled cluster methods 
  Ingolf Harden          : AUTO-CI MPn and infrastructure                
  Benjamin Helmich-Paris : MC-RPA, TRAH-(SCF,CASSCF), AVAS, COSX integrals, SCF dyn. polar., MC-PDFT, srDFT 
  Lee Huntington         : MR-EOM, pCC                                   
  Robert Izsak           : Overlap fitted RIJCOSX, COSX-SCS-MP3, EOM     
  Riya Kayal             : Wick's Theorem for AUTO-CI, AUTO-CI UHF-CCSDT 
  Emily Kempfer          : AUTO-CI RHF CISDT and CCSDT, approximate NEVPT4
  Christian Kollmar      : KDIIS, OOCD, Brueckner-CCSD(T), CCSD density, CASPT2, CASPT2-K, improved NEVPT2 
  Axel Koslowski         : Symmetry handling                             
  Simone Kossmann        : meta-GGA functionals, TD-DFT gradient, OOMP2, (MP2 Hessian; deprecated post 5.0) 
  Lucas Lang             : DCDCAS, Hyperfine gauge corrections, ICE-SOC+SSC
  Marvin Lechner         : AUTO-CI (C++ implementation), FIC-MRCC        
  Spencer Leger          : CASSCF response                               
  Dagmar Lenk            : GEPOL surface, SMD, ORCA-2-JSON               
  Dimitrios Liakos       : Extrapolation schemes; Compound Job, Property file
  Dimitrios Manganas     : Further ROCIS development; embedding schemes. LFT, Crystal Embedding 
  Dimitrios Pantazis     : SARC Basis sets                               
  Anastasios Papadopoulos: AUTO-CI, single reference methods and gradients 
  Taras Petrenko         : pre 6.0 DFT Hessian and TD-DFT gradient,  ECA, NRVS 
  Petra Pikulova         : Analytic Raman intensities                    
  Peter Pinski           : DLPNO-MP2, DLPNO-MP2 Gradient                 
  Shashank Vittal Rao    : ES-AILFT, MagRelax                            
  Christoph Reimann      : Effective Core Potentials                     
  Marius Retegan         : Local ZFS, SOC                                
  Christoph Riplinger    : Optimizer, TS searches, QM/MM, DLPNO-CCSD(T), (RO)-DLPNO pert. Triples 
  Michael Roemelt        : Original ROCIS implementation, recursive CI coupling coefficients
  Masaaki Saitow         : Open-shell DLPNO-CCSD energy and density      
  Barbara Sandhoefer     : DKH picture change effects                    
  Yorick L. A. Schmerwitz: GMF and freeze-and-release deltaSCF, NEB S-IDPP initial path                    
  Kantharuban Sivalingam : CASSCF convergence/infrastructure, NEVPT2, NEVPT3, NEVPT4(SD), FIC-MRCI and CEPA variants
  Bernardo de Souza      : ESD, SOC TD-DFT                               
  Georgi L. Stoychev     : AutoAux, RI-MP2 NMR, DLPNO-MP2 response, X2C  
  Van Anh Tran           : RI-MP2 g-tensors                              
  Willem Van den Heuvel  : Paramagnetic NMR                              
  Zikuan Wang            : NOTCH, Electric field optimization            
  Frank Wennmohs         : Technical directorship and infrastructure     
  Hang Xu                : AUTO-CI-Response properties                   
                                                                         
[FACCTs GmbH]                                                            
  Markus Bursch, Nicolas Foglia, Miquel Garcia-Rates, Ingolf Harden, Hagen Neugebauer, Anastasios Papadopoulos, 
  Christoph Riplinger, Bernardo de Souza, Georgi L. Stoychev                                                    
                                                                 
  APM, various basis sets, CI-OPT, improved COSX, DLPNO-Multilevel,           
  DOCKER, DRACO, updates on ESD, Fragmentator, GOAT, IRC, LR-CPCM, L-BFGS, MBIS, meta-GGA TD-DFT gradient, ML-optimized integration grids, 
  MM, NACMEs, nearIR, NEB, NEB-TS, NL-DFT gradient (VV10), 2- and 3-layer-ONIOM, interface openCOSMO-RS, QMMM,   
  Crystal-QMMM, RESP, rigid body optimization, SF, symmetry and pop. for TD-DFT, various functionals, SOLVATOR                                   
                                                                         
[Other institutions]                                                     
  V. Asgeirsson          : NEB                                           
  Christoph Bannwarth    : sTDA-DFT, sTD-DFT, PBEh-3c, B97-3c, D3        
  Giovanni Bistoni       : ETS/NOCV, ADLD/ADEX, COVALED                  
  Martin Brehm           : Molecular dynamics                            
  Ronald Cardenas        : ETS/NOCV                                      
  Martina Colucci        : COVALED                                       
  Sebastian Ehlert       : rSCAN, r2SCAN, r2SCAN-3c, D4, dhf basis sets  
  Marvin Friede          : D4 for Fr, Ra, Ac-Lr                          
  Lars Goerigk           : TD-DFT with DH, B97 family of functionals     
  Stefan Grimme          : VdW corrections, initial TS optimization, DFT functionals, gCP, sTDA/sTD-DF 
  Waldemar Hujo          : DFT-NL                                        
  H. Jonsson             : NEB                                           
  Holger Kruse           : gCP                                           
  Marcel Mueller         : wB97X-3c, vDZP basis set                      
  Hagen Neugebauer       : wr2SCAN, Native XTB                           
  Gianluca Regni         : ADLD/ADEX                                     
  Tobias Risthaus        : pre 6.0 range-separated hybrid DFT and stability analysis
  Lukas Wittmann         : regularized MP2, r2SCAN double-hybrids, wr2SCAN        
                                                                         
We gratefully acknowledge several colleagues who have allowed us to      
interface, adapt or use parts of their codes:                            
  Ed Valeev, F. Pavosevic, A. Kumar             : LibInt (2-el integral package), F12 methods 
  Garnet Chan, S. Sharma, J. Yang, R. Olivares  : DMRG                   
  Ulf Ekstrom                                   : XCFun DFT Library      
  Mihaly Kallay                                 : mrcc  (arbitrary order and MRCC methods)
  Frank Weinhold                                : gennbo (NPA and NBO analysis)           
  Simon Mueller                                 : openCOSMO-RS                            
  Christopher J. Cramer and Donald G. Truhlar   : smd solvation model                     
  S Lehtola, MJT Oliveira, MAL Marques          : LibXC Library                           
  Liviu Ungur et al                             : ANISO software                          


 Your calculation uses the libint2 library for the computation of 2-el integrals
 For citations please refer to: http://libint.valeyev.net

 Your ORCA version has been built with support for libXC version: 7.0.0
 For citations please refer to: https://libxc.gitlab.io

 This ORCA versions uses:
   CBLAS   interface :  Fast vector & matrix operations
   LAPACKE interface :  Fast linear algebra routines
   SCALAPACK package :  Parallel linear algebra routines
   Shared memory     :  Shared parallel matrices
   BLAS/LAPACK       :  OpenBLAS 0.3.29  USE64BITINT DYNAMIC_ARCH NO_AFFINITY Haswell SINGLE_THREADED
        Core in use  :  Haswell
   Copyright (c) 2011-2014, The OpenBLAS Project


  ***********************************
  * Starting time: Wed Sep  3 19:52:55 2025
  * Host name:     chemlab03
  * Process ID:    146467
  * Working dir.:  /home/vivek/mm-project/vivek/xtb-goat/MP2-opt/k/1
  ***********************************



***************************************
The coordinates will be read from file: /home/vivek/mm-project/vivek/xtb-goat/xtb-goat/k/K_CONF/1.xyz
***************************************


================================================================================

----- Orbital basis set information -----
Your calculation utilizes the basis: 6-31G**
   H-He, Li-Ne : W. J. Hehre, R. Ditchfield and J.A. Pople, J. Chem. Phys. 56, 2257 (1972).
                 Note: He and Ne are unpublished basis sets taken from the Gaussian program.
                 Note: Li and B from J. D. Dill and J. A. Pople, J. Chem. Phys. 62, 2921 (1975).
   Na - Ar     : M. M. Francl, W. J. Pietro, W. J. Hehre, J. S. Binkley, M. S. Gordon, 
                 D. J. DeFrees and J. A. Pople, J. Chem. Phys. 77, 3654 (1982).
   K - Zn      : V. A. Rassolov, J. A. Pople, M. A. Ratner, and T. L. Windus, J. Chem. Phys. 109, 1223 (1998).

================================================================================
                                        WARNINGS
                       Please study these warnings very carefully!
================================================================================


WARNING: The frozen-core approximation for MP2-gradient calculations is turned on by default.

WARNING: Geometry Optimization
  ===> : Switching off AutoStart
         For restart on a previous wavefunction, please use MOREAD

WARNING: Post HF methods need fully converged wavefunctions
  ===> : Setting SCFConvForced true
         You can overwrite this default with %scf ConvForced false 


================================================================================
                                       INPUT FILE
================================================================================
NAME = 1.inp
|  1> ! MP2 6-31G** opt
|  2> 
|  3> * xyzfile 0 1 /home/vivek/mm-project/vivek/xtb-goat/xtb-goat/k/K_CONF/1.xyz
|  4> 
|  5>                          ****END OF INPUT****
================================================================================

                       *****************************
                       * Geometry Optimization Run *
                       *****************************

Geometry optimization settings:
Update method            Update   .... BFGS
Choice of coordinates    CoordSys .... (2022) Redundant Internals
Initial Hessian          InHess   .... Almloef's Model
Max. no of cycles        MaxIter  .... 72

Convergence Tolerances:
Energy Change            TolE     ....  5.0000e-06 Eh
Max. Gradient            TolMAXG  ....  3.0000e-04 Eh/bohr
RMS Gradient             TolRMSG  ....  1.0000e-04 Eh/bohr
Max. Displacement        TolMAXD  ....  4.0000e-03 bohr
RMS Displacement         TolRMSD  ....  2.0000e-03 bohr
Strict Convergence                .... False

------------------------------------------------------------------------------
                        ORCA OPTIMIZATION COORDINATE SETUP
------------------------------------------------------------------------------

The optimization will be done in redundant internal coordinates (2022)
Making redundant internal coordinates   ...  (2022 redundants) done
Evaluating the initial hessian          ...  (Almloef) done
Evaluating the coordinates              ...  done
Calculating the B-matrix                .... done
Calculating the G-matrix                .... done
The number of degrees of freedom        ....  104

    -----------------------------------------------------------------
                    Redundant Internal Coordinates


    -----------------------------------------------------------------
         Definition                    Initial Value    Approx d2E/dq
    -----------------------------------------------------------------
      1. B(C   1,C   0)                  1.5379         0.362900   
      2. B(N   4,H   2)                  1.0149         0.424935   
      3. B(N   4,C   0)                  1.4500         0.448872   
      4. B(N   4,H   3)                  1.0140         0.426318   
      5. B(C   5,C   1)                  1.5267         0.378149   
      6. B(H   6,C   1)                  1.0922         0.357233   
      7. B(H   7,C   1)                  1.0936         0.355330   
      8. B(C   8,C   5)                  1.5257         0.379578   
      9. B(H   9,C   5)                  1.0910         0.358795   
     10. B(H  10,C   5)                  1.0922         0.357157   
     11. B(C  11,C   8)                  1.5382         0.362526   
     12. B(H  12,C   8)                  1.0912         0.358534   
     13. B(H  13,C   8)                  1.0928         0.356425   
     14. B(C  14,C  11)                  1.5234         0.382811   
     15. B(N  16,C  11)                  1.4493         0.450111   
     16. B(O  17,H  15)                  0.9710         0.499433   
     17. B(O  17,C  14)                  1.3372         0.679310   
     18. B(H  18,C   0)                  1.0943         0.354460   
     19. B(H  19,C   0)                  1.0934         0.355640   
     20. B(H  20,N  16)                  1.0162         0.423000   
     21. B(O  21,C  14)                  1.2029         1.112555   
     22. B(H  22,C  11)                  1.0955         0.352897   
     23. B(H  23,N  16)                  1.0145         0.425633   
     24. A(C   1,C   0,H  19)          109.3982         0.322121   
     25. A(C   1,C   0,N   4)          115.6803         0.370785   
     26. A(N   4,C   0,H  18)          107.2023         0.331418   
     27. A(C   1,C   0,H  18)          108.8992         0.321946   
     28. A(H  18,C   0,H  19)          107.9235         0.289553   
     29. A(N   4,C   0,H  19)          107.4718         0.331601   
     30. A(C   5,C   1,H   6)          109.4338         0.324541   
     31. A(C   5,C   1,H   7)          109.5111         0.324257   
     32. A(C   0,C   1,H   6)          108.5188         0.322357   
     33. A(C   0,C   1,C   5)          112.5057         0.362309   
     34. A(H   6,C   1,H   7)          107.6970         0.289867   
     35. A(C   0,C   1,H   7)          109.0532         0.322075   
     36. A(C   0,N   4,H   3)          110.3835         0.338816   
     37. A(C   0,N   4,H   2)          110.1288         0.338632   
     38. A(H   2,N   4,H   3)          107.6673         0.301663   
     39. A(C   8,C   5,H  10)          109.2566         0.324731   
     40. A(C   1,C   5,H  10)          109.3638         0.324530   
     41. A(C   8,C   5,H   9)          108.0036         0.324975   
     42. A(C   1,C   5,H   9)          110.4254         0.324774   
     43. A(C   1,C   5,C   8)          111.7600         0.365103   
     44. A(H   9,C   5,H  10)          107.9423         0.290299   
     45. A(H  12,C   8,H  13)          108.3415         0.290173   
     46. A(C  11,C   8,H  12)          109.0355         0.322495   
     47. A(C  11,C   8,H  13)          108.6205         0.322183   
     48. A(C   5,C   8,H  13)          109.5680         0.324622   
     49. A(C   5,C   8,H  12)          110.1860         0.324937   
     50. A(C   5,C   8,C  11)          111.0307         0.362479   
     51. A(C  14,C  11,N  16)          112.4376         0.374391   
     52. A(C   8,C  11,N  16)          110.0152         0.370896   
     53. A(C   8,C  11,C  14)          108.3356         0.363004   
     54. A(N  16,C  11,H  22)          108.8178         0.331327   
     55. A(C  14,C  11,H  22)          108.2750         0.324544   
     56. A(C   8,C  11,H  22)          108.8878         0.321659   
     57. A(C  11,C  14,O  17)          112.6778         0.402254   
     58. A(O  17,C  14,O  21)          122.8933         0.484530   
     59. A(C  11,C  14,O  21)          124.4267         0.439260   
     60. A(H  20,N  16,H  23)          106.8712         0.301366   
     61. A(C  11,N  16,H  23)          110.3108         0.338881   
     62. A(C  11,N  16,H  20)          109.1840         0.338530   
     63. A(C  14,O  17,H  15)          110.5465         0.373385   
     64. D(H   6,C   1,C   0,H  19)     64.4343         0.010554   
     65. D(H   6,C   1,C   0,N   4)   -174.0652         0.010554   
     66. D(H   6,C   1,C   0,H  18)    -53.3026         0.010554   
     67. D(C   5,C   1,C   0,N   4)     64.6967         0.010554   
     68. D(C   5,C   1,C   0,H  18)   -174.5408         0.010554   
     69. D(C   5,C   1,C   0,H  19)    -56.8039         0.010554   
     70. D(H   2,N   4,C   0,C   1)     56.2193         0.017187   
     71. D(H   3,N   4,C   0,H  18)    175.7929         0.017187   
     72. D(H   3,N   4,C   0,C   1)    -62.5321         0.017187   
     73. D(H   2,N   4,C   0,H  19)    178.7470         0.017187   
     74. D(H   2,N   4,C   0,H  18)    -65.4557         0.017187   
     75. D(H   9,C   5,C   1,C   0)    -62.1931         0.011403   
     76. D(C   8,C   5,C   1,H   6)     56.8433         0.011403   
     77. D(C   8,C   5,C   1,C   0)    177.5574         0.011403   
     78. D(C   8,C   5,C   1,H   7)    -60.9966         0.011403   
     79. D(H   9,C   5,C   1,H   7)     59.2529         0.011403   
     80. D(H   9,C   5,C   1,H   6)    177.0928         0.011403   
     81. D(H  12,C   8,C   5,H   9)    173.8734         0.011484   
     82. D(H  12,C   8,C   5,C   1)    -64.4696         0.011484   
     83. D(C  11,C   8,C   5,H  10)    -64.2051         0.011484   
     84. D(C  11,C   8,C   5,H   9)     52.9661         0.011484   
     85. D(H  12,C   8,C   5,H  10)     56.7022         0.011484   
     86. D(C  11,C   8,C   5,C   1)    174.6231         0.011484   
     87. D(N  16,C  11,C   8,H  13)     59.1762         0.010534   
     88. D(N  16,C  11,C   8,H  12)    177.0496         0.010534   
     89. D(N  16,C  11,C   8,C   5)    -61.3674         0.010534   
     90. D(C  14,C  11,C   8,H  13)    -64.0990         0.010534   
     91. D(C  14,C  11,C   8,H  12)     53.7745         0.010534   
     92. D(C  14,C  11,C   8,C   5)    175.3575         0.010534   
     93. D(O  17,C  14,C  11,N  16)    165.9551         0.010925   
     94. D(O  17,C  14,C  11,C   8)    -72.2446         0.010925   
     95. D(O  21,C  14,C  11,N  16)    -14.5697         0.010925   
     96. D(O  21,C  14,C  11,C   8)    107.2306         0.010925   
     97. D(O  17,C  14,C  11,H  22)     45.6980         0.010925   
     98. D(H  23,N  16,C  11,C  14)    -62.9760         0.017283   
     99. D(H  23,N  16,C  11,C   8)    176.1837         0.017283   
    100. D(H  20,N  16,C  11,H  22)    174.1243         0.017283   
    101. D(H  20,N  16,C  11,C  14)     54.1813         0.017283   
    102. D(H  20,N  16,C  11,C   8)    -66.6590         0.017283   
    103. D(H  15,O  17,C  14,O  21)     -0.8125         0.034365   
    104. D(H  15,O  17,C  14,C  11)    178.6720         0.034365   
    -----------------------------------------------------------------

Number of atoms                         .... 24
Number of degrees of freedom            .... 104


         *************************************************************
         *                GEOMETRY OPTIMIZATION CYCLE   1            *
         *************************************************************
---------------------------------
CARTESIAN COORDINATES (ANGSTROEM)
---------------------------------
  C    -14.171089    7.107868    0.822124
  C    -12.698078    7.088619    1.263688
  H    -14.815388    5.471132    1.847557
  H    -14.438568    5.160011    0.284132
  N    -14.867972    5.838871    0.903049
  C    -11.827658    6.221414    0.357542
  H    -12.320687    8.113503    1.257598
  H    -12.638135    6.718378    2.290993
  C    -10.360744    6.262001    0.774861
  H    -12.159319    5.182619    0.391631
  H    -11.918609    6.569994   -0.673571
  C     -9.521336    5.282015   -0.062394
  H     -9.961373    7.269719    0.649585
  H    -10.272142    5.985492    1.828373
  C     -8.057516    5.455164    0.322121
  H     -6.610522    6.686843    0.144594
  N     -9.990518    3.926238    0.142814
  O     -7.536103    6.598493   -0.135162
  H    -14.719431    7.818699    1.447844
  H    -14.235235    7.452146   -0.213668
  H     -9.802151    3.649321    1.102215
  O     -7.427423    4.664382    0.973815
  H     -9.630639    5.537169   -1.122143
  H     -9.481616    3.283290   -0.454531

----------------------------
CARTESIAN COORDINATES (A.U.)
----------------------------
  NO LB      ZA    FRAG     MASS         X           Y           Z
   0 C     6.0000    0    12.011  -26.779476   13.431924    1.553588
   1 C     6.0000    0    12.011  -23.995890   13.395548    2.388024
   2 H     1.0000    0     1.008  -27.997026   10.338941    3.491377
   3 H     1.0000    0     1.008  -27.284940    9.751008    0.536932
   4 N     7.0000    0    14.007  -28.096396   11.033867    1.706516
   5 C     6.0000    0    12.011  -22.351035   11.756769    0.675657
   6 H     1.0000    0     1.008  -23.282724   15.332298    2.376516
   7 H     1.0000    0     1.008  -23.882615   12.695894    4.329349
   8 C     6.0000    0    12.011  -19.578969   11.833466    1.464274
   9 H     1.0000    0     1.008  -22.977783    9.793731    0.740076
  10 H     1.0000    0     1.008  -22.522907   12.415489   -1.272865
  11 C     6.0000    0    12.011  -17.992718    9.981561   -0.117907
  12 H     1.0000    0     1.008  -18.824267   13.737778    1.227538
  13 H     1.0000    0     1.008  -19.411536   11.310941    3.455124
  14 C     6.0000    0    12.011  -15.226499   10.308766    0.608721
  15 H     1.0000    0     1.008  -12.492077   12.636302    0.273242
  16 N     7.0000    0    14.007  -18.879343    7.419514    0.269880
  17 O     8.0000    0    15.999  -14.241170   12.469345   -0.255419
  18 H     1.0000    0     1.008  -27.815693   14.775200    2.736029
  19 H     1.0000    0     1.008  -26.900696   14.082514   -0.403775
  20 H     1.0000    0     1.008  -18.523381    6.896217    2.082885
  21 O     8.0000    0    15.999  -14.035795    8.814404    1.840245
  22 H     1.0000    0     1.008  -18.199270   10.463733   -2.120544
  23 H     1.0000    0     1.008  -17.917658    6.204518   -0.858938

--------------------------------
INTERNAL COORDINATES (ANGSTROEM)
--------------------------------
 C      0   0   0     0.000000000000     0.00000000     0.00000000
 C      1   0   0     1.537891391036     0.00000000     0.00000000
 H      1   2   0     2.036060068251    98.53575371     0.00000000
 H      3   1   2     1.638012959157    66.37093846   262.97411034
 N      4   3   1     1.014049612019    36.18463696   320.98651827
 C      2   1   3     1.526687256688   112.50565731    87.86124769
 H      2   1   3     1.092175977911   108.51881850   209.09940964
 H      2   1   3     1.093629900076   109.05319453   326.15458205
 C      6   2   1     1.525660163103   111.76002275   177.55735804
 H      6   2   1     1.090988652876   110.42543628   297.80686262
 H      6   2   1     1.092233932839   109.36377413    56.44763961
 C      9   6   2     1.538171953931   111.03065598   174.62308623
 H      9   6   2     1.091186476539   110.18598084   295.53040542
 H      9   6   2     1.092792211465   109.56804234    54.64167628
 C     12   9   6     1.523351847821   108.33559213   175.35747729
 H     15  12   9     1.908491672938   141.11728041   288.76325469
 N     12   9   6     1.449266414209   110.01523224   298.63259752
 O     16  15  12     0.970962392416    41.00326696   358.04773559
 H      1   2   3     1.094297553296   108.89917220    97.59796876
 H      1   2   3     1.093392475669   109.39818303   215.33484649
 H     17  12   9     1.016176588653   109.18397305   293.34095233
 O     15  12   9     1.202937706803   124.42674916   107.23060458
 H     12   9   6     1.095500135383   108.88777260    57.80649908
 H     17  12   9     1.014487553741   110.31080432   176.18372234

---------------------------
INTERNAL COORDINATES (A.U.)
---------------------------
 C      0   0   0     0.000000000000     0.00000000     0.00000000
 C      1   0   0     2.906193552773     0.00000000     0.00000000
 H      1   2   0     3.847595921208    98.53575371     0.00000000
 H      3   1   2     3.095395896621    66.37093846   262.97411034
 N      4   3   1     1.916276052924    36.18463696   320.98651827
 C      2   1   3     2.885020807289   112.50565731    87.86124769
 H      2   1   3     2.063913488299   108.51881850   209.09940964
 H      2   1   3     2.066661003012   109.05319453   326.15458205
 C      6   2   1     2.883079881698   111.76002275   177.55735804
 H      6   2   1     2.061669769151   110.42543628   297.80686262
 H      6   2   1     2.064023007241   109.36377413    56.44763961
 C      9   6   2     2.906723739808   111.03065598   174.62308623
 H      9   6   2     2.062043601697   110.18598084   295.53040542
 H      9   6   2     2.065078000951   109.56804234    54.64167628
 C     12   9   6     2.878717797985   108.33559213   175.35747729
 H     15  12   9     3.606526590722   141.11728041   288.76325469
 N     12   9   6     2.738716617945   110.01523224   298.63259752
 O     16  15  12     1.834853008003    41.00326696   358.04773559
 H      1   2   3     2.067922684750   108.89917220    97.59796876
 H      1   2   3     2.066212335905   109.39818303   215.33484649
 H     17  12   9     1.920295456257   109.18397305   293.34095233
 O     15  12   9     2.273222822026   124.42674916   107.23060458
 H     12   9   6     2.070195235548   108.88777260    57.80649908
 H     17  12   9     1.917103642841   110.31080432   176.18372234

---------------------
BASIS SET INFORMATION
---------------------
There are 4 groups of distinct atoms

 Group   1 Type C   : 10s4p1d contracted to 3s2p1d pattern {631/31/1}
 Group   2 Type H   : 4s1p contracted to 2s1p pattern {31/1}
 Group   3 Type N   : 10s4p1d contracted to 3s2p1d pattern {631/31/1}
 Group   4 Type O   : 10s4p1d contracted to 3s2p1d pattern {631/31/1}

Atom   0C    basis set group =>   1
Atom   1C    basis set group =>   1
Atom   2H    basis set group =>   2
Atom   3H    basis set group =>   2
Atom   4N    basis set group =>   3
Atom   5C    basis set group =>   1
Atom   6H    basis set group =>   2
Atom   7H    basis set group =>   2
Atom   8C    basis set group =>   1
Atom   9H    basis set group =>   2
Atom  10H    basis set group =>   2
Atom  11C    basis set group =>   1
Atom  12H    basis set group =>   2
Atom  13H    basis set group =>   2
Atom  14C    basis set group =>   1
Atom  15H    basis set group =>   2
Atom  16N    basis set group =>   3
Atom  17O    basis set group =>   4
Atom  18H    basis set group =>   2
Atom  19H    basis set group =>   2
Atom  20H    basis set group =>   2
Atom  21O    basis set group =>   4
Atom  22H    basis set group =>   2
Atom  23H    basis set group =>   2
------------------------------------------------------------------------------
                             ORCA STARTUP CALCULATIONS
------------------------------------------------------------------------------
------------------------------------------------------------------------------
                   ___                                                        
                  /   \      - P O W E R E D   B Y -                         
                 /     \                                                     
                 |  |  |   _    _      __       _____    __    __             
                 |  |  |  | |  | |    /  \     |  _  \  |  |  /  |          
                  \  \/   | |  | |   /    \    | | | |  |  | /  /          
                 / \  \   | |__| |  /  /\  \   | |_| |  |  |/  /          
                |  |  |   |  __  | /  /__\  \  |    /   |      \           
                |  |  |   | |  | | |   __   |  |    \   |  |\   \          
                \     /   | |  | | |  |  |  |  | |\  \  |  | \   \       
                 \___/    |_|  |_| |__|  |__|  |_| \__\ |__|  \__/        
                                                                              
                      - O R C A' S   B I G   F R I E N D -                    
                                      &                                       
                       - I N T E G R A L  F E E D E R -                       
                                                                              
 v1 FN, 2020, v2 2021, v3 2022-2024                                           
------------------------------------------------------------------------------


----------------------
SHARK INTEGRAL PACKAGE
----------------------

Number of atoms                             ...     24
Number of basis functions                   ...    210
Number of shells                            ...    102
Maximum angular momentum                    ...      2
Integral batch strategy                     ... SHARK/LIBINT Hybrid
RI-J (if used) integral strategy            ... SPLIT-RIJ (Revised 2003 algorithm where possible)
Printlevel                                  ...      1
Contraction scheme used                     ... SEGMENTED contraction
Prescreening option                         ... SCHWARTZ
   Thresh                                   ... 2.500e-11
   Tcut                                     ... 2.500e-12
   Tpresel                                  ... 2.500e-12 
Coulomb Range Separation                    ... NOT USED
Exchange Range Separation                   ... NOT USED
Multipole approximations                    ... NOT USED
Finite Nucleus Model                        ... NOT USED
CABS basis                                  ... NOT available
Auxiliary Coulomb fitting basis             ... NOT available
Auxiliary J/K fitting basis                 ... NOT available
Auxiliary Correlation fitting basis         ... NOT available
Auxiliary 'external' fitting basis          ... NOT available

Checking pre-screening integrals            ... done (  0.0 sec) Dimension = 102
   => SHARK Basis and OBASIS are compatible. Storing Pre-screening
Shell pair information
Shell pair cut-off parameter TPreSel        ...   2.5e-12
Total number of shell pairs                 ...      5253
Shell pairs after pre-screening             ...      4320
Total number of primitive shell pairs       ...     24562
Primitive shell pairs kept                  ...     13274
          la=0 lb=0:   1438 shell pairs
          la=1 lb=0:   1629 shell pairs
          la=1 lb=1:    482 shell pairs
          la=2 lb=0:    465 shell pairs
          la=2 lb=1:    264 shell pairs
          la=2 lb=2:     42 shell pairs

Checking whether 4 symmetric matrices of dimension 210 fit in memory
:Max Core in MB      =   4096.00
 MB in use           =      6.95
 MB left             =   4089.05
 MB needed           =      0.68
 Data fit in memory  = YES
Calculating Nuclear repulsion               ... done (  0.0 sec) ENN=    550.416845226379 Eh

Diagonalization of the overlap matrix:
Smallest eigenvalue                        ... 2.515e-03
Time for diagonalization                   ...    0.002 sec
Threshold for overlap eigenvalues          ... 1.000e-07
Number of eigenvalues below threshold      ... 0
Time for construction of square roots      ...    0.001 sec
Total time needed                          ...    0.003 sec

-------------------
DFT GRID GENERATION
-------------------

General Integration Accuracy     IntAcc      ... 4.388
Radial Grid Type                 RadialGrid  ... OptM3 with GC (2021)
Angular Grid (max. ang.)         AngularGrid ... 4 (Lebedev-302)
Angular grid pruning method      GridPruning ... 4 (adaptive)
Weight generation scheme         WeightScheme... mBecke (2022)
Basis function cutoff            BFCut       ... 1.0000e-11
Integration weight cutoff        WCut        ... 1.0000e-14
Partially contracted basis set               ... off
Rotationally invariant grid construction     ... off
Angular grids for H and He will be reduced by one unit

Total number of grid points                  ...   104876
Total number of batches                      ...     1652
Average number of points per batch           ...       63
Average number of grid points per atom       ...     4370
Grids setup in   0.4 sec
Initializing property integral containers    ... done (  0.0 sec)

SHARK setup successfully completed in   0.5 seconds

Maximum memory used throughout the entire STARTUP-calculation: 41.8 MB
-------------------------------------------------------------------------------
                                 ORCA GUESS
                   Start orbitals & Density for SCF / CASSCF
-------------------------------------------------------------------------------

------------
SCF SETTINGS
------------
Hamiltonian:
 Ab initio Hamiltonian  Method          .... Hartree-Fock(GTOs)


General Settings:
 Integral files         IntName         .... 1
 Hartree-Fock type      HFTyp           .... RHF
 Total Charge           Charge          ....    0
 Multiplicity           Mult            ....    1
 Number of Electrons    NEL             ....   80
 Basis Dimension        Dim             ....  210
 Nuclear Repulsion      ENuc            ....    550.4168452264 Eh

Convergence Acceleration:
 AO-DIIS                CNVDIIS         .... on
   Start iteration      DIISMaxIt       ....    12
   Startup error        DIISStart       ....  0.200000
   # of expansion vecs  DIISMaxEq       ....     5
   Bias factor          DIISBfac        ....   1.050
   Max. coefficient     DIISMaxC        ....  10.000
 MO-DIIS                CNVKDIIS        .... off
 Trust-Rad. Augm. Hess. CNVTRAH         .... auto
   Auto Start mean grad. ratio tolernc. ....  1.125000
   Auto Start start iteration           ....    50
   Auto Start num. interpolation iter.  ....    10
   Max. Number of Micro iterations      ....    24
   Max. Number of Macro iterations      .... Maxiter - #DIIS iter
   Number of Davidson start vectors     ....     2
   Converg. threshold    (grad. norm)   ....   1.000e-05
   Grad. Scal. Fac. for Micro threshold ....   0.100
   Minimum threshold for Micro iter.    ....   1.000e-02
   NR start threshold (gradient norm)   ....   1.000e-04
   Initial trust radius                 ....   0.400
   Minimum AH scaling param. (alpha)    ....   1.000
   Maximum AH scaling param. (alpha)    .... 1000.000
   Quad. conv. algorithm                .... NR
   White noise on init. David. guess    .... on
   Maximum white noise                  ....   0.010
   Pseudo random numbers                .... off
   Inactive MOs                         .... canonical
   Orbital update algorithm             .... Taylor
   Preconditioner                       .... Diag
   Full preconditioner red. dimension   ....   250
 SOSCF                 CNVSOSCF           .... on
   Start iteration     SOSCFMaxIt         ....   150
   Startup grad/error  SOSCFStart         ....  0.003300
   Hessian update      SOSCFHessUp        .... L-BFGS
   Autom. constraints  SOSCFAutoConstrain .... off
 Level Shifting         CNVShift        .... on
   Level shift para.    LevelShift      ....    0.2500
   Turn off err/grad.   ShiftErr        ....    0.0010
 Zerner damping         CNVZerner       .... off
 Static damping         CNVDamp         .... on
   Fraction old density DampFac         ....    0.7000
   Max. Damping (<1)    DampMax         ....    0.9800
   Min. Damping (>=0)   DampMin         ....    0.0000
   Turn off err/grad.   DampErr         ....    0.1000

SCF Procedure:
 Maximum # iterations   MaxIter         ....   125
 SCF integral mode      SCFMode         .... Direct
   Integral package                     .... SHARK and LIBINT hybrid scheme
 Reset frequency        DirectResetFreq ....    20
 Integral Threshold     Thresh          ....  2.500e-11 Eh
 Primitive CutOff       TCut            ....  2.500e-12 Eh

Convergence Tolerance:
 Convergence Check Mode ConvCheckMode   .... Total+1el-Energy
 Convergence forced     ConvForced      .... 1
 Energy Change          TolE            ....  1.000e-08 Eh
 1-El. energy change                    ....  1.000e-05 Eh
 Orbital Gradient       TolG            ....  1.000e-05
 Orbital Rotation angle TolX            ....  1.000e-05
 DIIS Error             TolErr          ....  5.000e-07

------------------------------
INITIAL GUESS: MODEL POTENTIAL
------------------------------
Loading Hartree-Fock densities                     ... done
Calculating cut-offs                               ... done
Initializing the effective Hamiltonian             ... done
Setting up the integral package (SHARK)            ... done
Starting the Coulomb interaction                   ... done (   0.1 sec)
Making the grid                                    ... done (   0.1 sec)
Mapping shells                                     ... done
Starting the XC term evaluation                    ... done (   0.1 sec)
Transforming the Hamiltonian                       ... done (   0.0 sec)
Diagonalizing the Hamiltonian                      ... done (   0.0 sec)
Back transforming the eigenvectors                 ... done (   0.0 sec)
Now organizing SCF variables                       ... done
                      ------------------
                      INITIAL GUESS DONE (   0.3 sec)
                      ------------------
             **** ENERGY FILE WAS UPDATED (1.en.tmp) ****
Finished Guess after   0.3 sec
Maximum memory used throughout the entire GUESS-calculation: 12.4 MB

-------------------------------------------------------------------------------------------
                                      ORCA LEAN-SCF
                              memory conserving SCF solver
-------------------------------------------------------------------------------------------

----------------------------------------D-I-I-S--------------------------------------------
Iteration    Energy (Eh)           Delta-E    RMSDP     MaxDP     DIISErr   Damp  Time(sec)
-------------------------------------------------------------------------------------------
               ***  Starting incremental Fock matrix formation  ***
    1    -493.5146734326101523     0.00e+00  2.42e-03  6.59e-02  2.70e-01  0.700   2.2
    2    -493.6979204578817644    -1.83e-01  1.83e-03  4.69e-02  1.69e-01  0.700   2.1
                               ***Turning on AO-DIIS***
    3    -493.8046711136678368    -1.07e-01  9.66e-04  2.27e-02  9.72e-02  0.700   2.1
    4    -493.8715827256844477    -6.69e-02  2.16e-03  4.89e-02  6.60e-02  0.000   2.0
    5    -494.0194199527336423    -1.48e-01  2.45e-04  5.91e-03  5.40e-03  0.000   2.1
                              *** Initializing SOSCF ***
---------------------------------------S-O-S-C-F--------------------------------------
Iteration    Energy (Eh)           Delta-E    RMSDP     MaxDP     MaxGrad    Time(sec)
--------------------------------------------------------------------------------------
    6    -494.0199703358957777    -5.50e-04  1.24e-04  2.82e-03  2.80e-03     2.0
               *** Restarting incremental Fock matrix formation ***
    7    -494.0200870851399486    -1.17e-04  7.15e-05  2.53e-03  1.78e-03     2.2
    8    -494.0201187552647752    -3.17e-05  6.90e-05  1.74e-03  3.89e-04     1.8
    9    -494.0201296512573208    -1.09e-05  1.17e-05  2.46e-04  1.62e-04     1.8
   10    -494.0201303840372020    -7.33e-07  7.06e-06  1.27e-04  4.90e-05     1.6
   11    -494.0201305258785851    -1.42e-07  1.60e-06  4.14e-05  1.39e-05     1.6
   12    -494.0201305374860112    -1.16e-08  4.23e-07  1.58e-05  4.79e-06     1.4
   13    -494.0201305398782097    -2.39e-09  1.50e-07  3.74e-06  1.18e-06     1.3
                 **** Energy Check signals convergence ****

               *****************************************************
               *                     SUCCESS                       *
               *           SCF CONVERGED AFTER  13 CYCLES          *
               *****************************************************

             **** ENERGY FILE WAS UPDATED (1.en.tmp) ****

----------------
TOTAL SCF ENERGY
----------------

Total Energy       :       -494.02013054153190 Eh          -13442.97118 eV

Components:
Nuclear Repulsion  :        550.41684522637934 Eh           14977.60381 eV
Electronic Energy  :      -1044.43697576791124 Eh          -28420.57498 eV
One Electron Energy:      -1765.80272954144198 Eh          -48049.93508 eV
Two Electron Energy:        721.36575377353074 Eh           19629.36010 eV

Virial components:
Potential Energy   :       -987.55024435622045 Eh          -26872.60833 eV
Kinetic Energy     :        493.53011381468860 Eh           13429.63715 eV
Virial Ratio       :          2.00099288110923

---------------
SCF CONVERGENCE
---------------

  Last Energy change         ...    2.3922e-09  Tolerance :   1.0000e-08
  Last MAX-Density change    ...    3.7366e-06  Tolerance :   1.0000e-07
  Last RMS-Density change    ...    1.5045e-07  Tolerance :   5.0000e-09
  Last DIIS Error            ...    2.8049e-03  Tolerance :   5.0000e-07
  Last Orbital Gradient      ...    1.1781e-06  Tolerance :   1.0000e-05
  Last Orbital Rotation      ...    1.8777e-06  Tolerance :   1.0000e-05


----------------
ORBITAL ENERGIES
----------------

  NO   OCC          E(Eh)            E(eV) 
   0   2.0000     -20.620380      -561.1091 
   1   2.0000     -20.556033      -559.3581 
   2   2.0000     -15.550614      -423.1537 
   3   2.0000     -15.533270      -422.6818 
   4   2.0000     -11.384029      -309.7752 
   5   2.0000     -11.275717      -306.8279 
   6   2.0000     -11.240977      -305.8825 
   7   2.0000     -11.231990      -305.6380 
   8   2.0000     -11.217227      -305.2363 
   9   2.0000     -11.215249      -305.1824 
  10   2.0000      -1.470917       -40.0257 
  11   2.0000      -1.364747       -37.1367 
  12   2.0000      -1.201479       -32.6939 
  13   2.0000      -1.175632       -31.9906 
  14   2.0000      -1.070911       -29.1410 
  15   2.0000      -1.000700       -27.2304 
  16   2.0000      -0.931687       -25.3525 
  17   2.0000      -0.852398       -23.1949 
  18   2.0000      -0.798660       -21.7326 
  19   2.0000      -0.791815       -21.5464 
  20   2.0000      -0.709355       -19.3025 
  21   2.0000      -0.700571       -19.0635 
  22   2.0000      -0.679650       -18.4942 
  23   2.0000      -0.664936       -18.0938 
  24   2.0000      -0.640608       -17.4318 
  25   2.0000      -0.627214       -17.0674 
  26   2.0000      -0.599607       -16.3161 
  27   2.0000      -0.589622       -16.0444 
  28   2.0000      -0.580037       -15.7836 
  29   2.0000      -0.566392       -15.4123 
  30   2.0000      -0.536730       -14.6052 
  31   2.0000      -0.521532       -14.1916 
  32   2.0000      -0.496585       -13.5128 
  33   2.0000      -0.492926       -13.4132 
  34   2.0000      -0.483084       -13.1454 
  35   2.0000      -0.473514       -12.8850 
  36   2.0000      -0.465431       -12.6650 
  37   2.0000      -0.445891       -12.1333 
  38   2.0000      -0.402807       -10.9609 
  39   2.0000      -0.374689       -10.1958 
  40   0.0000       0.184099         5.0096 
  41   0.0000       0.216053         5.8791 
  42   0.0000       0.222678         6.0594 
  43   0.0000       0.233596         6.3565 
  44   0.0000       0.251837         6.8528 
  45   0.0000       0.259039         7.0488 
  46   0.0000       0.279226         7.5981 
  47   0.0000       0.288203         7.8424 
  48   0.0000       0.313567         8.5326 
  49   0.0000       0.314294         8.5524 
  50   0.0000       0.329804         8.9744 
*Only the first 10 virtual orbitals were printed.

                    ********************************
                    * MULLIKEN POPULATION ANALYSIS *
                    ********************************

-----------------------
MULLIKEN ATOMIC CHARGES
-----------------------
   0 C :   -0.033127
   1 C :   -0.224306
   2 H :    0.258144
   3 H :    0.266537
   4 N :   -0.697012
   5 C :   -0.217447
   6 H :    0.104670
   7 H :    0.099839
   8 C :   -0.225728
   9 H :    0.141220
  10 H :    0.107436
  11 C :   -0.036981
  12 H :    0.140937
  13 H :    0.119240
  14 C :    0.780735
  15 H :    0.372661
  16 N :   -0.678245
  17 O :   -0.636757
  18 H :    0.115889
  19 H :    0.113013
  20 H :    0.281325
  21 O :   -0.586096
  22 H :    0.156410
  23 H :    0.277646
Sum of atomic charges:   -0.0000000

--------------------------------
MULLIKEN REDUCED ORBITAL CHARGES
--------------------------------
  0 C s       :     3.199875  s :     3.199875
      pz      :     1.057066  p :     2.767342
      px      :     0.874910
      py      :     0.835366
      dz2     :     0.013946  d :     0.065910
      dxz     :     0.007241
      dyz     :     0.010885
      dx2y2   :     0.016847
      dxy     :     0.016991

  1 C s       :     3.239206  s :     3.239206
      pz      :     0.989934  p :     2.936893
      px      :     0.932937
      py      :     1.014021
      dz2     :     0.013303  d :     0.048207
      dxz     :     0.007545
      dyz     :     0.006668
      dx2y2   :     0.012442
      dxy     :     0.008250

  2 H s       :     0.715788  s :     0.715788
      pz      :     0.013876  p :     0.026068
      px      :     0.007022
      py      :     0.005170

  3 H s       :     0.707226  s :     0.707226
      pz      :     0.008966  p :     0.026238
      px      :     0.008316
      py      :     0.008956

  4 N s       :     3.601338  s :     3.601338
      pz      :     1.206992  p :     4.060963
      px      :     1.730989
      py      :     1.122983
      dz2     :     0.007920  d :     0.034710
      dxz     :     0.003773
      dyz     :     0.009289
      dx2y2   :     0.002329
      dxy     :     0.011401

  5 C s       :     3.230972  s :     3.230972
      pz      :     0.993286  p :     2.937530
      px      :     0.904010
      py      :     1.040234
      dz2     :     0.013701  d :     0.048945
      dxz     :     0.007357
      dyz     :     0.006497
      dx2y2   :     0.013277
      dxy     :     0.008113

  6 H s       :     0.882917  s :     0.882917
      pz      :     0.001731  p :     0.012413
      px      :     0.002588
      py      :     0.008094

  7 H s       :     0.887836  s :     0.887836
      pz      :     0.008082  p :     0.012325
      px      :     0.001704
      py      :     0.002539

  8 C s       :     3.234786  s :     3.234786
      pz      :     1.002540  p :     2.942366
      px      :     0.942391
      py      :     0.997435
      dz2     :     0.014084  d :     0.048576
      dxz     :     0.006986
      dyz     :     0.006063
      dx2y2   :     0.010838
      dxy     :     0.010605

  9 H s       :     0.845949  s :     0.845949
      pz      :     0.001653  p :     0.012831
      px      :     0.002241
      py      :     0.008937

 10 H s       :     0.880211  s :     0.880211
      pz      :     0.008171  p :     0.012354
      px      :     0.001701
      py      :     0.002482

 11 C s       :     3.205890  s :     3.205890
      pz      :     1.077448  p :     2.760603
      px      :     0.864536
      py      :     0.818619
      dz2     :     0.017100  d :     0.070488
      dxz     :     0.005597
      dyz     :     0.011029
      dx2y2   :     0.021731
      dxy     :     0.015031

 12 H s       :     0.846564  s :     0.846564
      pz      :     0.001779  p :     0.012500
      px      :     0.002633
      py      :     0.008088

 13 H s       :     0.868405  s :     0.868405
      pz      :     0.008589  p :     0.012355
      px      :     0.001668
      py      :     0.002098

 14 C s       :     2.950453  s :     2.950453
      pz      :     0.650639  p :     2.122740
      px      :     0.844278
      py      :     0.627824
      dz2     :     0.022559  d :     0.146072
      dxz     :     0.020622
      dyz     :     0.026050
      dx2y2   :     0.045023
      dxy     :     0.031818

 15 H s       :     0.585830  s :     0.585830
      pz      :     0.009626  p :     0.041509
      px      :     0.025063
      py      :     0.006821

 16 N s       :     3.600547  s :     3.600547
      pz      :     1.216335  p :     4.043266
      px      :     1.737840
      py      :     1.089091
      dz2     :     0.008344  d :     0.034431
      dxz     :     0.005986
      dyz     :     0.006439
      dx2y2   :     0.003576
      dxy     :     0.010086

 17 O s       :     3.836592  s :     3.836592
      pz      :     1.791525  p :     4.774841
      px      :     1.418454
      py      :     1.564863
      dz2     :     0.003309  d :     0.025323
      dxz     :     0.003637
      dyz     :     0.005606
      dx2y2   :     0.009936
      dxy     :     0.002834

 18 H s       :     0.872125  s :     0.872125
      pz      :     0.004037  p :     0.011986
      px      :     0.003579
      py      :     0.004371

 19 H s       :     0.874980  s :     0.874980
      pz      :     0.008324  p :     0.012007
      px      :     0.001705
      py      :     0.001978

 20 H s       :     0.692614  s :     0.692614
      pz      :     0.014523  p :     0.026061
      px      :     0.007160
      py      :     0.004377

 21 O s       :     3.871661  s :     3.871661
      pz      :     1.444410  p :     4.681737
      px      :     1.675554
      py      :     1.561773
      dz2     :     0.008377  d :     0.032699
      dxz     :     0.004916
      dyz     :     0.006623
      dx2y2   :     0.005162
      dxy     :     0.007621

 22 H s       :     0.831454  s :     0.831454
      pz      :     0.008878  p :     0.012136
      px      :     0.001673
      py      :     0.001584

 23 H s       :     0.696269  s :     0.696269
      pz      :     0.008446  p :     0.026086
      px      :     0.008910
      py      :     0.008731



                     *******************************
                     * LOEWDIN POPULATION ANALYSIS *
                     *******************************

----------------------
LOEWDIN ATOMIC CHARGES
----------------------
   0 C :   -0.041747
   1 C :   -0.130817
   2 H :    0.122289
   3 H :    0.123396
   4 N :   -0.299096
   5 C :   -0.115411
   6 H :    0.058237
   7 H :    0.054357
   8 C :   -0.105026
   9 H :    0.069596
  10 H :    0.057726
  11 C :   -0.026382
  12 H :    0.070809
  13 H :    0.063090
  14 C :    0.227990
  15 H :    0.201654
  16 N :   -0.274463
  17 O :   -0.210196
  18 H :    0.059934
  19 H :    0.059068
  20 H :    0.134335
  21 O :   -0.311628
  22 H :    0.080204
  23 H :    0.132083

-------------------------------
LOEWDIN REDUCED ORBITAL CHARGES
-------------------------------
  0 C s       :     2.879947  s :     2.879947
      pz      :     1.074604  p :     3.033658
      px      :     1.003687
      py      :     0.955366
      dz2     :     0.025129  d :     0.128143
      dxz     :     0.013654
      dyz     :     0.019650
      dx2y2   :     0.035748
      dxy     :     0.033962

  1 C s       :     2.900153  s :     2.900153
      pz      :     1.051889  p :     3.139077
      px      :     1.029950
      py      :     1.057239
      dz2     :     0.023761  d :     0.091586
      dxz     :     0.015418
      dyz     :     0.012244
      dx2y2   :     0.024106
      dxy     :     0.016058

  2 H s       :     0.796730  s :     0.796730
      pz      :     0.041441  p :     0.080981
      px      :     0.023702
      py      :     0.015838

  3 H s       :     0.794590  s :     0.794590
      pz      :     0.026280  p :     0.082014
      px      :     0.028582
      py      :     0.027152

  4 N s       :     3.189307  s :     3.189307
      pz      :     1.203592  p :     4.048430
      px      :     1.687510
      py      :     1.157327
      dz2     :     0.013877  d :     0.061359
      dxz     :     0.004508
      dyz     :     0.018905
      dx2y2   :     0.006154
      dxy     :     0.017916

  5 C s       :     2.886770  s :     2.886770
      pz      :     1.053109  p :     3.135936
      px      :     1.007455
      py      :     1.075372
      dz2     :     0.024427  d :     0.092706
      dxz     :     0.015282
      dyz     :     0.011699
      dx2y2   :     0.025237
      dxy     :     0.016062

  6 H s       :     0.902512  s :     0.902512
      pz      :     0.006533  p :     0.039251
      px      :     0.009303
      py      :     0.023415

  7 H s       :     0.906717  s :     0.906717
      pz      :     0.023426  p :     0.038926
      px      :     0.006916
      py      :     0.008584

  8 C s       :     2.891637  s :     2.891637
      pz      :     1.051798  p :     3.121625
      px      :     1.022647
      py      :     1.047180
      dz2     :     0.024976  d :     0.091764
      dxz     :     0.014320
      dyz     :     0.011135
      dx2y2   :     0.020824
      dxy     :     0.020509

  9 H s       :     0.888727  s :     0.888727
      pz      :     0.006507  p :     0.041677
      px      :     0.008576
      py      :     0.026594

 10 H s       :     0.903172  s :     0.903172
      pz      :     0.023743  p :     0.039102
      px      :     0.006593
      py      :     0.008766

 11 C s       :     2.869536  s :     2.869536
      pz      :     1.070360  p :     3.015768
      px      :     0.988271
      py      :     0.957137
      dz2     :     0.031527  d :     0.141077
      dxz     :     0.011290
      dyz     :     0.020916
      dx2y2   :     0.045335
      dxy     :     0.032010

 12 H s       :     0.888851  s :     0.888851
      pz      :     0.006731  p :     0.040340
      px      :     0.009399
      py      :     0.024210

 13 H s       :     0.897224  s :     0.897224
      pz      :     0.025216  p :     0.039686
      px      :     0.006833
      py      :     0.007637

 14 C s       :     2.848518  s :     2.848518
      pz      :     0.762538  p :     2.606483
      px      :     0.989697
      py      :     0.854248
      dz2     :     0.043340  d :     0.317009
      dxz     :     0.043719
      dyz     :     0.060901
      dx2y2   :     0.101220
      dxy     :     0.067829

 15 H s       :     0.678030  s :     0.678030
      pz      :     0.029870  p :     0.120317
      px      :     0.068953
      py      :     0.021494

 16 N s       :     3.186871  s :     3.186871
      pz      :     1.199909  p :     4.026542
      px      :     1.692483
      py      :     1.134151
      dz2     :     0.014688  d :     0.061049
      dxz     :     0.007009
      dyz     :     0.014995
      dx2y2   :     0.008191
      dxy     :     0.016166

 17 O s       :     3.457464  s :     3.457464
      pz      :     1.750641  p :     4.704682
      px      :     1.390409
      py      :     1.563632
      dz2     :     0.005745  d :     0.048050
      dxz     :     0.005549
      dyz     :     0.009029
      dx2y2   :     0.017884
      dxy     :     0.009843

 18 H s       :     0.902394  s :     0.902394
      pz      :     0.012583  p :     0.037672
      px      :     0.011284
      py      :     0.013806

 19 H s       :     0.903125  s :     0.903125
      pz      :     0.024404  p :     0.037807
      px      :     0.005984
      py      :     0.007419

 20 H s       :     0.783860  s :     0.783860
      pz      :     0.043835  p :     0.081806
      px      :     0.024079
      py      :     0.013891

 21 O s       :     3.548028  s :     3.548028
      pz      :     1.452434  p :     4.706368
      px      :     1.675844
      py      :     1.578089
      dz2     :     0.009235  d :     0.057232
      dxz     :     0.010276
      dyz     :     0.013648
      dx2y2   :     0.009526
      dxy     :     0.014546

 22 H s       :     0.880148  s :     0.880148
      pz      :     0.026471  p :     0.039648
      px      :     0.006561
      py      :     0.006616

 23 H s       :     0.786302  s :     0.786302
      pz      :     0.024842  p :     0.081614
      px      :     0.030499
      py      :     0.026274



                      *****************************
                      * MAYER POPULATION ANALYSIS *
                      *****************************

  NA   - Mulliken gross atomic population
  ZA   - Total nuclear charge
  QA   - Mulliken gross atomic charge
  VA   - Mayer's total valence
  BVA  - Mayer's bonded valence
  FA   - Mayer's free valence

  ATOM       NA         ZA         QA         VA         BVA        FA
  0 C      6.0331     6.0000    -0.0331     3.8037     3.8037    -0.0000
  1 C      6.2243     6.0000    -0.2243     3.7838     3.7838     0.0000
  2 H      0.7419     1.0000     0.2581     0.9101     0.9101     0.0000
  3 H      0.7335     1.0000     0.2665     0.9086     0.9086    -0.0000
  4 N      7.6970     7.0000    -0.6970     2.7550     2.7550    -0.0000
  5 C      6.2174     6.0000    -0.2174     3.7896     3.7896    -0.0000
  6 H      0.8953     1.0000     0.1047     0.9498     0.9498    -0.0000
  7 H      0.9002     1.0000     0.0998     0.9524     0.9524     0.0000
  8 C      6.2257     6.0000    -0.2257     3.7889     3.7889    -0.0000
  9 H      0.8588     1.0000     0.1412     0.9579     0.9579    -0.0000
 10 H      0.8926     1.0000     0.1074     0.9509     0.9509    -0.0000
 11 C      6.0370     6.0000    -0.0370     3.7502     3.7502     0.0000
 12 H      0.8591     1.0000     0.1409     0.9482     0.9482     0.0000
 13 H      0.8808     1.0000     0.1192     0.9515     0.9515    -0.0000
 14 C      5.2193     6.0000     0.7807     3.7016     3.7016    -0.0000
 15 H      0.6273     1.0000     0.3727     0.8714     0.8714     0.0000
 16 N      7.6782     7.0000    -0.6782     2.7702     2.7702     0.0000
 17 O      8.6368     8.0000    -0.6368     1.8194     1.8194     0.0000
 18 H      0.8841     1.0000     0.1159     0.9478     0.9478     0.0000
 19 H      0.8870     1.0000     0.1130     0.9483     0.9483     0.0000
 20 H      0.7187     1.0000     0.2813     0.9064     0.9064     0.0000
 21 O      8.5861     8.0000    -0.5861     1.9012     1.9012     0.0000
 22 H      0.8436     1.0000     0.1564     0.9416     0.9416    -0.0000
 23 H      0.7224     1.0000     0.2776     0.9040     0.9040     0.0000

  Mayer bond orders larger than 0.100000
B(  0-C ,  1-C ) :   0.9570 B(  0-C ,  4-N ) :   0.9482 B(  0-C , 18-H ) :   0.9779 
B(  0-C , 19-H ) :   0.9737 B(  1-C ,  5-C ) :   0.9664 B(  1-C ,  6-H ) :   0.9703 
B(  1-C ,  7-H ) :   0.9728 B(  2-H ,  4-N ) :   0.9149 B(  3-H ,  4-N ) :   0.9119 
B(  5-C ,  8-C ) :   0.9747 B(  5-C ,  9-H ) :   0.9603 B(  5-C , 10-H ) :   0.9738 
B(  8-C , 11-C ) :   0.9582 B(  8-C , 12-H ) :   0.9672 B(  8-C , 13-H ) :   0.9680 
B( 11-C , 14-C ) :   0.9228 B( 11-C , 16-N ) :   0.9868 B( 11-C , 22-H ) :   0.9553 
B( 14-C , 17-O ) :   0.9686 B( 14-C , 21-O ) :   1.8363 B( 15-H , 17-O ) :   0.8398 
B( 16-N , 20-H ) :   0.8988 B( 16-N , 23-H ) :   0.9085 

-------
TIMINGS
-------

Total SCF time: 0 days 0 hours 0 min 25 sec 

Total time                  ....      25.416 sec
Sum of individual times     ....      24.296 sec  ( 95.6%)

SCF preparation             ....       0.021 sec  (  0.1%)
Fock matrix formation       ....      24.204 sec  ( 95.2%)
  Startup                   ....       0.001 sec  (  0.0% of F)
  Coulomb+Exchange Fock     ....      25.309 sec  (104.6% of F)
Diagonalization             ....       0.000 sec  (  0.0%)
Density matrix formation    ....       0.005 sec  (  0.0%)
Total Energy calculation    ....       0.001 sec  (  0.0%)
Population analysis         ....       0.003 sec  (  0.0%)
Orbital Transformation      ....       0.007 sec  (  0.0%)
Orbital Orthonormalization  ....       0.000 sec  (  0.0%)
DIIS solution               ....       0.032 sec  (  0.1%)
SOSCF solution              ....       0.020 sec  (  0.1%)
Finished LeanSCF after  25.4 sec

Maximum memory used throughout the entire LEANSCF-calculation: 16.0 MB

------------------------------------------------------------------------------
                                ORCA  MP2 
------------------------------------------------------------------------------

Freezing NCore=20 chemical core electrons
MP2 will be done in the AO integral direct mode
The Q1-step will be done using symmetric double matrices
Dimension of the basis                    ...  210
Memory devoted for MP2                    ... 4096 MB   
Memory needed for all in one shot         ... 1066 MB
Number of MOs that can be treated together...  114      
MP2 density construction                  ... relaxed
The MP2 gradient is requested => amplitudes will be stored on disk
Total number of MOs              ...   30
Number of MOs treated per batch  ...   30 
Number of batches necessary      ...    1 
OPERATORS   0/  0 PASS   0
-----------------------------------------------
 MP2 CORRELATION ENERGY   :     -1.531591568 Eh
-----------------------------------------------


---------------------
MP2 DENSITY FORMATION
---------------------

Completing the external part of the density      ... done
Storing the unrelaxed density                    ... done

Calculating G(D)                                 ... done
Completing the Lagrangian                        ... done
Solving the Z-vector equations                   ... 
-------------------
SHARK CP-SCF DRIVER
-------------------

Dimension of the orbital basis          ...    210
Dimension of the CPSCF-problem          ...   6800
Number of operators                     ...      1
Max. number of iterations               ...    128
Convergence Tolerance                   ... 1.0e-04
Number of perturbations                 ...      1
Perturbation type                       ... REAL

----------------------------
POPLE LINEAR EQUATION SOLVER
----------------------------

  ITERATION   0:   ||err||_max =   1.2718e-01 (   2.9 sec)
  ITERATION   1:   ||err||_max =   3.3574e-02 (   3.0 sec)
  ITERATION   2:   ||err||_max =   1.4457e-02 (   3.0 sec)
  ITERATION   3:   ||err||_max =   3.4041e-03 (   2.9 sec)
  ITERATION   4:   ||err||_max =   1.3082e-03 (   3.0 sec)
  ITERATION   5:   ||err||_max =   3.0922e-04 (   3.0 sec)
  ITERATION   6:   ||err||_max =   9.5481e-05 (   3.0 sec)
                                                 ... done
Finalizing the relaxed density                   ... done
Transforming P to the AO basis                   ... done
Storing the relaxed density                      ... done

------------------------------------
ENERGY WEIGHTED DENSITY FINALIZATION
------------------------------------

Gathering the parts of the W-matrix              ...                                                      done
Forming the Z-density                            ... done
Transforming Z to the AO basis                   ... done
Calculating G(Z)                                 ... done
Finalizing the W-matrix                          ...                                                      done
Transforming W to the AO basis and storing       ... done

                *********************************************
                * UNRELAXED MP2 DENSITY POPULATION ANALYSIS *
                *********************************************

------------------------------------------------------------------------------
                           ORCA POPULATION ANALYSIS
------------------------------------------------------------------------------
Input electron density              ... 1.pmp2ur
BaseName (.gbw .S,...)              ... 1

                    ********************************
                    * MULLIKEN POPULATION ANALYSIS *
                    ********************************

-----------------------
MULLIKEN ATOMIC CHARGES
-----------------------
   0 C :   -0.039509
   1 C :   -0.226326
   2 H :    0.256986
   3 H :    0.265285
   4 N :   -0.689824
   5 C :   -0.219248
   6 H :    0.105568
   7 H :    0.100841
   8 C :   -0.227452
   9 H :    0.141319
  10 H :    0.108405
  11 C :   -0.042159
  12 H :    0.141580
  13 H :    0.120086
  14 C :    0.747739
  15 H :    0.369457
  16 N :   -0.670394
  17 O :   -0.623224
  18 H :    0.116926
  19 H :    0.114035
  20 H :    0.279727
  21 O :   -0.563283
  22 H :    0.157058
  23 H :    0.276408
Sum of atomic charges:   -0.0000000

--------------------------------
MULLIKEN REDUCED ORBITAL CHARGES
--------------------------------
  0 C s       :     3.197245  s :     3.197245
      pz      :     1.053339  p :     2.761819
      px      :     0.872941
      py      :     0.835539
      dz2     :     0.016736  d :     0.080445
      dxz     :     0.010466
      dyz     :     0.013836
      dx2y2   :     0.019524
      dxy     :     0.019884
  1 C s       :     3.235665  s :     3.235665
      pz      :     0.986599  p :     2.926286
      px      :     0.929150
      py      :     1.010537
      dz2     :     0.016446  d :     0.064375
      dxz     :     0.010877
      dyz     :     0.009822
      dx2y2   :     0.015570
      dxy     :     0.011660
  2 H s       :     0.714865  s :     0.714865
      pz      :     0.014245  p :     0.028150
      px      :     0.007931
      py      :     0.005974
  3 H s       :     0.706394  s :     0.706394
      pz      :     0.009559  p :     0.028321
      px      :     0.009181
      py      :     0.009581
  4 N s       :     3.596703  s :     3.596703
      pz      :     1.201512  p :     4.036649
      px      :     1.718274
      py      :     1.116863
      dz2     :     0.011985  d :     0.056471
      dxz     :     0.008306
      dyz     :     0.013425
      dx2y2   :     0.007019
      dxy     :     0.015736
  5 C s       :     3.227507  s :     3.227507
      pz      :     0.989653  p :     2.926524
      px      :     0.900986
      py      :     1.035885
      dz2     :     0.016827  d :     0.065218
      dxz     :     0.010695
      dyz     :     0.009725
      dx2y2   :     0.016401
      dxy     :     0.011570
  6 H s       :     0.879186  s :     0.879186
      pz      :     0.002787  p :     0.015246
      px      :     0.003621
      py      :     0.008838
  7 H s       :     0.883972  s :     0.883972
      pz      :     0.008846  p :     0.015187
      px      :     0.002789
      py      :     0.003552
  8 C s       :     3.231467  s :     3.231467
      pz      :     0.998887  p :     2.931136
      px      :     0.938431
      py      :     0.993818
      dz2     :     0.017183  d :     0.064849
      dxz     :     0.010382
      dyz     :     0.009269
      dx2y2   :     0.014063
      dxy     :     0.013952
  9 H s       :     0.843052  s :     0.843052
      pz      :     0.002711  p :     0.015629
      px      :     0.003316
      py      :     0.009603
 10 H s       :     0.876381  s :     0.876381
      pz      :     0.008924  p :     0.015214
      px      :     0.002788
      py      :     0.003502
 11 C s       :     3.202725  s :     3.202725
      pz      :     1.072232  p :     2.753399
      px      :     0.863109
      py      :     0.818058
      dz2     :     0.020100  d :     0.086035
      dxz     :     0.009060
      dyz     :     0.014196
      dx2y2   :     0.024395
      dxy     :     0.018285
 12 H s       :     0.843141  s :     0.843141
      pz      :     0.002822  p :     0.015279
      px      :     0.003659
      py      :     0.008798
 13 H s       :     0.864720  s :     0.864720
      pz      :     0.009304  p :     0.015194
      px      :     0.002752
      py      :     0.003138
 14 C s       :     2.952052  s :     2.952052
      pz      :     0.662807  p :     2.143609
      px      :     0.844825
      py      :     0.635977
      dz2     :     0.024383  d :     0.156600
      dxz     :     0.023046
      dyz     :     0.027876
      dx2y2   :     0.047223
      dxy     :     0.034072
 15 H s       :     0.587886  s :     0.587886
      pz      :     0.010221  p :     0.042657
      px      :     0.025008
      py      :     0.007428
 16 N s       :     3.595953  s :     3.595953
      pz      :     1.210409  p :     4.017996
      px      :     1.724378
      py      :     1.083209
      dz2     :     0.012465  d :     0.056445
      dxz     :     0.010498
      dyz     :     0.010705
      dx2y2   :     0.008158
      dxy     :     0.014619
 17 O s       :     3.832425  s :     3.832425
      pz      :     1.778618  p :     4.742504
      px      :     1.409834
      py      :     1.554052
      dz2     :     0.007918  d :     0.048296
      dxz     :     0.008235
      dyz     :     0.010189
      dx2y2   :     0.014524
      dxy     :     0.007430
 18 H s       :     0.868298  s :     0.868298
      pz      :     0.004952  p :     0.014776
      px      :     0.004540
      py      :     0.005285
 19 H s       :     0.871152  s :     0.871152
      pz      :     0.009028  p :     0.014813
      px      :     0.002775
      py      :     0.003010
 20 H s       :     0.692189  s :     0.692189
      pz      :     0.014824  p :     0.028084
      px      :     0.008057
      py      :     0.005202
 21 O s       :     3.867108  s :     3.867108
      pz      :     1.430385  p :     4.641877
      px      :     1.662061
      py      :     1.549431
      dz2     :     0.012588  d :     0.054298
      dxz     :     0.009232
      dyz     :     0.010763
      dx2y2   :     0.009833
      dxy     :     0.011882
 22 H s       :     0.828100  s :     0.828100
      pz      :     0.009531  p :     0.014842
      px      :     0.002713
      py      :     0.002599
 23 H s       :     0.695488  s :     0.695488
      pz      :     0.009053  p :     0.028104
      px      :     0.009708
      py      :     0.009343


                     *******************************
                     * LOEWDIN POPULATION ANALYSIS *
                     *******************************

----------------------
LOEWDIN ATOMIC CHARGES
----------------------
   0 C :   -0.044773
   1 C :   -0.131524
   2 H :    0.121620
   3 H :    0.122667
   4 N :   -0.294910
   5 C :   -0.115930
   6 H :    0.058426
   7 H :    0.054629
   8 C :   -0.105611
   9 H :    0.069461
  10 H :    0.058022
  11 C :   -0.029800
  12 H :    0.070980
  13 H :    0.063370
  14 C :    0.203912
  15 H :    0.199288
  16 N :   -0.269799
  17 O :   -0.201656
  18 H :    0.060284
  19 H :    0.059420
  20 H :    0.133437
  21 O :   -0.293244
  22 H :    0.080331
  23 H :    0.131398

-------------------------------
LOEWDIN REDUCED ORBITAL CHARGES
-------------------------------
  0 C s       :     2.879838  s :     2.879838
      pz      :     1.069233  p :     3.020357
      px      :     0.998763
      py      :     0.952361
      dz2     :     0.028517  d :     0.144578
      dxz     :     0.017177
      dyz     :     0.022912
      dx2y2   :     0.038696
      dxy     :     0.037276
  1 C s       :     2.899788  s :     2.899788
      pz      :     1.046301  p :     3.121583
      px      :     1.023664
      py      :     1.051617
      dz2     :     0.027477  d :     0.110152
      dxz     :     0.019141
      dyz     :     0.015804
      dx2y2   :     0.027844
      dxy     :     0.019885
  2 H s       :     0.793618  s :     0.793618
      pz      :     0.043169  p :     0.084762
      px      :     0.024591
      py      :     0.017003
  3 H s       :     0.791537  s :     0.791537
      pz      :     0.027481  p :     0.085796
      px      :     0.029729
      py      :     0.028586
  4 N s       :     3.187374  s :     3.187374
      pz      :     1.197307  p :     4.022649
      px      :     1.674960
      py      :     1.150382
      dz2     :     0.018386  d :     0.084887
      dxz     :     0.009159
      dyz     :     0.023419
      dx2y2   :     0.011068
      dxy     :     0.022856
  5 C s       :     2.886487  s :     2.886487
      pz      :     1.047350  p :     3.118008
      px      :     1.001375
      py      :     1.069283
      dz2     :     0.028146  d :     0.111435
      dxz     :     0.019014
      dyz     :     0.015320
      dx2y2   :     0.029042
      dxy     :     0.019914
  6 H s       :     0.897466  s :     0.897466
      pz      :     0.007832  p :     0.044108
      px      :     0.010756
      py      :     0.025519
  7 H s       :     0.901575  s :     0.901575
      pz      :     0.025565  p :     0.043795
      px      :     0.008256
      py      :     0.009974
  8 C s       :     2.891296  s :     2.891296
      pz      :     1.046144  p :     3.103774
      px      :     1.016192
      py      :     1.041438
      dz2     :     0.028735  d :     0.110541
      dxz     :     0.018060
      dyz     :     0.014713
      dx2y2   :     0.024731
      dxy     :     0.024304
  9 H s       :     0.884039  s :     0.884039
      pz      :     0.007817  p :     0.046500
      px      :     0.010052
      py      :     0.028631
 10 H s       :     0.897982  s :     0.897982
      pz      :     0.025883  p :     0.043996
      px      :     0.007955
      py      :     0.010158
 11 C s       :     2.869805  s :     2.869805
      pz      :     1.063938  p :     3.000940
      px      :     0.983815
      py      :     0.953188
      dz2     :     0.035256  d :     0.159055
      dxz     :     0.015215
      dyz     :     0.024414
      dx2y2   :     0.048486
      dxy     :     0.035684
 12 H s       :     0.883889  s :     0.883889
      pz      :     0.008041  p :     0.045131
      px      :     0.010871
      py      :     0.026219
 13 H s       :     0.892088  s :     0.892088
      pz      :     0.027346  p :     0.044542
      px      :     0.008188
      py      :     0.009008
 14 C s       :     2.849218  s :     2.849218
      pz      :     0.772533  p :     2.618405
      px      :     0.987415
      py      :     0.858457
      dz2     :     0.045216  d :     0.328465
      dxz     :     0.046531
      dyz     :     0.063364
      dx2y2   :     0.102882
      dxy     :     0.070473
 15 H s       :     0.677935  s :     0.677935
      pz      :     0.030597  p :     0.122776
      px      :     0.069974
      py      :     0.022205
 16 N s       :     3.184973  s :     3.184973
      pz      :     1.193431  p :     3.999759
      px      :     1.679150
      py      :     1.127178
      dz2     :     0.019277  d :     0.085067
      dxz     :     0.011771
      dyz     :     0.019559
      dx2y2   :     0.013238
      dxy     :     0.021223
 17 O s       :     3.455548  s :     3.455548
      pz      :     1.738272  p :     4.673591
      px      :     1.381909
      py      :     1.553410
      dz2     :     0.010566  d :     0.072517
      dxz     :     0.010260
      dyz     :     0.013977
      dx2y2   :     0.023081
      dxy     :     0.014633
 18 H s       :     0.897318  s :     0.897318
      pz      :     0.014109  p :     0.042397
      px      :     0.012796
      py      :     0.015492
 19 H s       :     0.898041  s :     0.898041
      pz      :     0.026427  p :     0.042539
      px      :     0.007289
      py      :     0.008822
 20 H s       :     0.781069  s :     0.781069
      pz      :     0.045470  p :     0.085494
      px      :     0.025024
      py      :     0.015000
 21 O s       :     3.545046  s :     3.545046
      pz      :     1.438670  p :     4.666817
      px      :     1.662432
      py      :     1.565715
      dz2     :     0.013827  d :     0.081381
      dxz     :     0.015083
      dyz     :     0.018545
      dx2y2   :     0.014348
      dxy     :     0.019578
 22 H s       :     0.875224  s :     0.875224
      pz      :     0.028465  p :     0.044444
      px      :     0.007944
[...]
  1 C s       :     2.901029  s :     2.901029
      pz      :     1.053229  p :     3.136484
      px      :     1.026765
      py      :     1.056489
      dz2     :     0.027207  d :     0.104760
      dxz     :     0.017711
      dyz     :     0.013877
      dx2y2   :     0.026043
      dxy     :     0.019922
  2 H s       :     0.795027  s :     0.795027
      pz      :     0.041363  p :     0.083500
      px      :     0.024622
      py      :     0.017514
  3 H s       :     0.793197  s :     0.793197
      pz      :     0.026866  p :     0.084699
      px      :     0.030108
      py      :     0.027725
  4 N s       :     3.198276  s :     3.198276
      pz      :     1.197265  p :     4.002714
      px      :     1.659298
      py      :     1.146151
      dz2     :     0.016721  d :     0.081919
      dxz     :     0.009649
      dyz     :     0.022820
      dx2y2   :     0.010675
      dxy     :     0.022054
  5 C s       :     2.887852  s :     2.887852
      pz      :     1.053334  p :     3.132835
      px      :     1.006704
      py      :     1.072798
      dz2     :     0.027396  d :     0.105270
      dxz     :     0.017397
      dyz     :     0.013665
      dx2y2   :     0.026713
      dxy     :     0.020100
  6 H s       :     0.892453  s :     0.892453
      pz      :     0.008020  p :     0.043819
      px      :     0.011041
      py      :     0.024758
  7 H s       :     0.897347  s :     0.897347
      pz      :     0.025449  p :     0.043540
      px      :     0.008428
      py      :     0.009664
  8 C s       :     2.893764  s :     2.893764
      pz      :     1.052692  p :     3.116078
      px      :     1.015141
      py      :     1.048245
      dz2     :     0.027305  d :     0.104767
      dxz     :     0.017294
      dyz     :     0.013325
      dx2y2   :     0.023412
      dxy     :     0.023432
  9 H s       :     0.883124  s :     0.883124
      pz      :     0.008105  p :     0.046288
      px      :     0.010540
      py      :     0.027642
 10 H s       :     0.894144  s :     0.894144
      pz      :     0.025574  p :     0.043504
      px      :     0.008048
      py      :     0.009882
 11 C s       :     2.873459  s :     2.873459
      pz      :     1.067126  p :     3.023715
      px      :     1.001506
      py      :     0.955083
      dz2     :     0.033307  d :     0.151485
      dxz     :     0.014846
      dyz     :     0.022997
      dx2y2   :     0.044972
      dxy     :     0.035363
 12 H s       :     0.881940  s :     0.881940
      pz      :     0.008198  p :     0.044755
      px      :     0.010957
      py      :     0.025601
 13 H s       :     0.889030  s :     0.889030
      pz      :     0.026513  p :     0.044001
      px      :     0.008278
      py      :     0.009209
 14 C s       :     2.861520  s :     2.861520
      pz      :     0.833165  p :     2.689373
      px      :     0.986150
      py      :     0.870058
      dz2     :     0.040868  d :     0.305147
      dxz     :     0.045136
      dyz     :     0.060525
      dx2y2   :     0.096059
      dxy     :     0.062560
 15 H s       :     0.691041  s :     0.691041
      pz      :     0.031599  p :     0.120482
      px      :     0.066552
      py      :     0.022331
 16 N s       :     3.199576  s :     3.199576
      pz      :     1.182144  p :     3.976747
      px      :     1.667615
      py      :     1.126988
      dz2     :     0.015465  d :     0.083075
      dxz     :     0.014789
      dyz     :     0.019768
      dx2y2   :     0.013189
      dxy     :     0.019863
 17 O s       :     3.481283  s :     3.481283
      pz      :     1.705615  p :     4.624259
      px      :     1.377444
      py      :     1.541200
      dz2     :     0.010560  d :     0.072103
      dxz     :     0.010984
      dyz     :     0.014545
      dx2y2   :     0.022414
      dxy     :     0.013599
 18 H s       :     0.892388  s :     0.892388
      pz      :     0.014192  p :     0.042587
      px      :     0.012817
      py      :     0.015577
 19 H s       :     0.894039  s :     0.894039
      pz      :     0.025568  p :     0.042486
      px      :     0.007589
      py      :     0.009330
 20 H s       :     0.785040  s :     0.785040
      pz      :     0.041505  p :     0.084235
      px      :     0.026933
      py      :     0.015798
 21 O s       :     3.561506  s :     3.561506
      pz      :     1.406729  p :     4.589393
      px      :     1.632752
      py      :     1.549911
      dz2     :     0.013899  d :     0.078704
      dxz     :     0.015448
      dyz     :     0.017435
      dx2y2   :     0.013887
      dxy     :     0.018034
 22 H s       :     0.873528  s :     0.873528
      pz      :     0.027640  p :     0.044568
      px      :     0.008482
      py      :     0.008447
 23 H s       :     0.786050  s :     0.786050
      pz      :     0.027399  p :     0.083783
      px      :     0.030854
      py      :     0.025531


                      *****************************
                      * MAYER POPULATION ANALYSIS *
                      *****************************

  NA   - Mulliken gross atomic population
  ZA   - Total nuclear charge
  QA   - Mulliken gross atomic charge
  VA   - Mayer's total valence
  BVA  - Mayer's bonded valence
  FA   - Mayer's free valence

  ATOM       NA         ZA         QA         VA         BVA        FA
  0 C      6.0697     6.0000    -0.0697     3.9440     3.6884     0.2556
  1 C      6.2151     6.0000    -0.2151     3.9122     3.6460     0.2662
  2 H      0.7558     1.0000     0.2442     0.9233     0.8767     0.0466
  3 H      0.7483     1.0000     0.2517     0.9236     0.8776     0.0460
  4 N      7.6253     7.0000    -0.6253     3.0235     2.7031     0.3204
  5 C      6.2022     6.0000    -0.2022     3.9262     3.6605     0.2658
  6 H      0.9000     1.0000     0.1000     0.9621     0.9123     0.0498
  7 H      0.9041     1.0000     0.0959     0.9643     0.9144     0.0499
  8 C      6.2047     6.0000    -0.2047     3.9225     3.6545     0.2680
  9 H      0.8727     1.0000     0.1273     0.9763     0.9277     0.0486
 10 H      0.8989     1.0000     0.1011     0.9632     0.9133     0.0499
 11 C      6.0607     6.0000    -0.0607     3.8946     3.6201     0.2744
 12 H      0.8712     1.0000     0.1288     0.9621     0.9134     0.0487
 13 H      0.8900     1.0000     0.1100     0.9639     0.9142     0.0497
 14 C      5.4405     6.0000     0.5595     3.9555     3.6771     0.2783
 15 H      0.6570     1.0000     0.3430     0.9013     0.8576     0.0437
 16 N      7.6045     7.0000    -0.6045     3.0360     2.7131     0.3229
 17 O      8.5250     8.0000    -0.5250     2.1971     1.8452     0.3518
 18 H      0.8876     1.0000     0.1124     0.9580     0.9105     0.0474
 19 H      0.8903     1.0000     0.1097     0.9594     0.9118     0.0476
 20 H      0.7375     1.0000     0.2625     0.9267     0.8808     0.0458
 21 O      8.4405     8.0000    -0.4405     2.3223     1.9330     0.3892
 22 H      0.8574     1.0000     0.1426     0.9551     0.9069     0.0482
 23 H      0.7408     1.0000     0.2592     0.9175     0.8714     0.0461

  Mayer bond orders larger than 0.100000
B(  0-C ,  1-C ) :   0.9150 B(  0-C ,  4-N ) :   0.9440 B(  0-C , 18-H ) :   0.9315 
B(  0-C , 19-H ) :   0.9298 B(  1-C ,  5-C ) :   0.9328 B(  1-C ,  6-H ) :   0.9203 
B(  1-C ,  7-H ) :   0.9262 B(  2-H ,  4-N ) :   0.8792 B(  3-H ,  4-N ) :   0.8765 
B(  5-C ,  8-C ) :   0.9372 B(  5-C ,  9-H ) :   0.9126 B(  5-C , 10-H ) :   0.9266 
B(  8-C , 11-C ) :   0.9136 B(  8-C , 12-H ) :   0.9201 B(  8-C , 13-H ) :   0.9209 
B( 11-C , 14-C ) :   0.8698 B( 11-C , 16-N ) :   0.9672 B( 11-C , 22-H ) :   0.9069 
B( 14-C , 17-O ) :   0.9864 B( 14-C , 21-O ) :   1.8134 B( 15-H , 17-O ) :   0.8125 
B( 16-N , 20-H ) :   0.8629 B( 16-N , 23-H ) :   0.8731 


----------------------------------
MP2 DERIVATIVE INTEGRAL GENERATION
----------------------------------

Input SCF Electron Density              ... 1.scfp
Input Correlated Electron Density       ... 1.pmp2re
Input Energy Weighted Density           ... 1.wmp2.tmp
Input Wavefunction Amplitudes           ... 1.mp2tsaa.tmp

Nuclear repulsion gradient              ... done (  0.0 sec)
HCore & Overlap gradient  (SHARK)       ... done (  0.2 sec)
Analytic two-electron gradient terms    ... 
  Batch handling in the gradient evaluation:
  General contraction                   ... not used
  Memory available                      ... 4080.2 MB
  Memory per occupied orbital in Q2     ...   10.1 MB
  Memory per occupied orbital in Q3     ...    0.0 MB
  Total memory requirement per |i>      ...   10.1 MB
  Number of orbitals treated per batch  ...     30
  Number of batches to be done          ...      1
done ( 28.6 sec)

---------------------------------------
MP2 TOTAL ENERGY:     -495.554264828 Eh
---------------------------------------

The final MP2 gradient
  0:  -0.00000773   0.00005417   0.00000040
  1:   0.00000772   0.00001922   0.00003015
  2:   0.00000308   0.00000247  -0.00000279
  3:  -0.00000535   0.00000860  -0.00000620
  4:  -0.00001098  -0.00003650   0.00000935
  5:  -0.00002531   0.00000352  -0.00002280
  6:  -0.00000088  -0.00000052  -0.00001570
  7:  -0.00000541  -0.00001065  -0.00000582
  8:   0.00003709  -0.00001814  -0.00000950
  9:   0.00000076   0.00000268   0.00001121
 10:   0.00000523  -0.00000652  -0.00000019
 11:  -0.00000836   0.00003518   0.00000319
 12:  -0.00001200   0.00000172   0.00000318
 13:  -0.00000842   0.00000119   0.00000040
 14:  -0.00003397   0.00003278  -0.00003942
 15:  -0.00000016   0.00000544  -0.00001055
 16:   0.00000954  -0.00001398   0.00000901
 17:   0.00000276   0.00001360   0.00001467
 18:   0.00000293  -0.00000945   0.00000266
 19:   0.00001329  -0.00001951  -0.00000325
 20:  -0.00000607   0.00000012  -0.00000502
 21:   0.00004926  -0.00006108   0.00004202
 22:  -0.00000192  -0.00001372  -0.00000175
 23:  -0.00000508   0.00000936  -0.00000324

-----------------------------------
NORM OF THE MP2 GRADIENT:  0.000158
-----------------------------------

Maximum memory used throughout the entire MP2-calculation: 1139.5 MB

-------------------------   --------------------
FINAL SINGLE POINT ENERGY      -495.554264827729
-------------------------   --------------------

                                *** OPTIMIZATION RUN DONE ***


------------------------------------------------------------------------------
                              ORCA PROPERTY CALCULATIONS
------------------------------------------------------------------------------

GBWName                                 ... 1.gbw
Number of atoms                         ...     24
Number of basis functions               ...    210
Max core memory                         ...   4096 MB

Electric properties:
Dipole moment                           ... YES
Quadrupole moment                       ...  NO
Static polarizability (Dipole/Dipole)   ...  NO
Static polarizability (Dipole/Quad.)    ...  NO
Static polarizability (Quad./Quad.)     ...  NO
Static polarizability (Velocity)        ...  NO
Static hyperpolarizability              ...  NO

Atomic electric properties:
Dipole moment                           ...  NO
Quadrupole moment                       ...  NO
Static polarizability                   ...  NO

Choice of electric origin               ... Center of mass
Position of electric origin             ...   -20.068936    11.018705     1.020661

General magnetic properties:
Magnetizability                         ...  NO

EPR properties:
g-Tensor (aka g-matrix)                 ...  NO
Zero-Field splitting spin-orbit         ...  NO
Zero-field splitting spin-spin          ...  NO
Hyperfine couplings                     ...  NO (   0 nuclei)
Quadrupole couplings                    ...  NO (   0 nuclei)
Contact density                         ...  NO (   0 nuclei)

NMR properties:
Chemical shifts                         ...  NO (   0 nuclei)
Spin-rotation constants                 ...  NO (   0 nuclei)
Spin-spin couplings                     ...  NO (   0 nuclei,    0 pairs)

Choice of magnetic origin               ... GIAO
Position of magnetic origin             ...     0.000000     0.000000     0.000000

Properties with geometric perturbations:
SCF Hessian                             ...  NO
IR spectrum                             ...  NO
VCD spectrum                            ...  NO
X-ray spectroscopy properties:
SCF XES/XAS/RIXS spectra                ...  NO

SCF SOC stabilization energy            ...  NO
Diagonal Born-Oppenheimer correction    ...  NO

-------------
DIPOLE MOMENT
-------------

Method             : SCF
Type of density    : Electron Density
Multiplicity       :   1
Irrep              :   0
Energy             :  -494.0181808158224612 Eh
Basis              : AO
                                X                 Y                 Z
Electronic contribution:     14.079934579      -2.678779970      -1.251989795
Nuclear contribution   :    -13.338002607       3.027166112       1.113785142
                        -----------------------------------------
Total Dipole Moment    :      0.741931972       0.348386143      -0.138204652
                        -----------------------------------------
Magnitude (a.u.)       :      0.831225891
Magnitude (Debye)      :      2.112808307



--------------------
Rotational spectrum 
--------------------
 
Rotational constants in cm-1:             0.103383             0.015840             0.014543 
Rotational constants in MHz :          3099.329398           474.857252           435.999347 

Dipole components along the rotational axes: 
x,y,z [a.u.] :    -0.671808     0.482209    -0.084173 
x,y,z [Debye]:    -1.707600     1.225678    -0.213951 

 

-------------
DIPOLE MOMENT
-------------

Method             : MP2
Type of density    : Electron Density
Multiplicity       :   1
Level              : Unrelaxed density
Irrep              :   0
Energy             :     0.0000000000000000 Eh
Basis              : AO
                                X                 Y                 Z
Electronic contribution:     14.092935491      -2.701423653      -1.234099436
Nuclear contribution   :    -13.338002607       3.027166112       1.113785142
                        -----------------------------------------
Total Dipole Moment    :      0.754932884       0.325742460      -0.120314294
                        -----------------------------------------
Magnitude (a.u.)       :      0.830967713
Magnitude (Debye)      :      2.112152070



--------------------
Rotational spectrum 
--------------------
 
Rotational constants in cm-1:             0.103383             0.015840             0.014543 
Rotational constants in MHz :          3099.329398           474.857252           435.999347 

Dipole components along the rotational axes: 
x,y,z [a.u.] :    -0.687179     0.462742    -0.064511 
x,y,z [Debye]:    -1.746671     1.176197    -0.163975 

 

-------------
DIPOLE MOMENT
-------------

Method             : MP2
Type of density    : Electron Density
Multiplicity       :   1
Level              : Relaxed density
Irrep              :   0
Energy             :     0.0000000000000000 Eh
Basis              : AO
                                X                 Y                 Z
Electronic contribution:     14.177350611      -2.786853710      -1.177857060
Nuclear contribution   :    -13.338002607       3.027166112       1.113785142
                        -----------------------------------------
Total Dipole Moment    :      0.839348004       0.240312402      -0.064071918
                        -----------------------------------------
Magnitude (a.u.)       :      0.875420090
Magnitude (Debye)      :      2.225141033



--------------------
Rotational spectrum 
--------------------
 
Rotational constants in cm-1:             0.103383             0.015840             0.014543 
Rotational constants in MHz :          3099.329398           474.857252           435.999347 

Dipole components along the rotational axes: 
x,y,z [a.u.] :    -0.780773     0.395918     0.001535 
x,y,z [Debye]:    -1.984568     1.006344     0.003902 

 

Dipole moment calculation done in   0.0 sec 

Maximum memory used throughout the entire PROP-calculation: 11.2 MB

--------------------------------
SUGGESTED CITATIONS FOR THIS RUN
--------------------------------

Below you find a list of papers that are relevant to this ORCA run
We neither can nor want to force you to cite these papers, but we appreciate if you do
You receive ORCA, which is the product of decades of hard work by many enthusiastic individuals, for free
The only thing we kindly ask in return is that you cite our papers,
We deeply appreciate it, if you show your appreciation for ORCA by not just citing the generic ORCA reference.

Please note that relegating all ORCA citations to the supporting information does *not* help us.
SI sections are not indexed - citations you put there will not count into any citation statistics
But we need these citations in order to attract the funding resources that allow us to do what we are doing

Therefore, if you are a happy ORCA user, please consider citing a few of the papers listed below in the main body of your paper

In addition to the list printed below, the program has created the file 1.bibtex that contains the list in bibtex format
You can import this file easily into all common literature databanks and citation aid programs


List of essential papers. We consider these as the minimum necessary citations

  1. Neese, F.
     Software update: the ORCA program system, version 6.0
     WIRES Comput. Molec. Sci. 2025 15(1), e70019
     doi.org/10.1002/wcms.7019

List of papers to cite with high priority. The work reported in these papers was absolutely
necessary for this run to complete.
Our perspective: the developers of density functionals and basis sets usually get cited in chemistry papers
Good! But without the algorithms to do something with them, the functionals or basis sets would not do anything.
Hence, in our opinion, the algorithm design and method developments papers are equally worthy of getting cited

  1. Neese, F.
     The SHARK Integral Generation and Digestion System
     J. Comp. Chem. 2022 44(3), 381
     doi.org/10.1002/jcc.26942

List of suggested additional citations. These are papers that are important in the 'surrounding' of 
of this run, or papers that preceded the highly important papers. If you like your results we are grateful for a citation.

  1. Neese, F.
     The ORCA program system
     WIRES Comput. Molec. Sci. 2012 2(1), 73-78
     doi.org/10.1002/wcms.81
  2. Neese, F.
     Software update: the ORCA program system, version 4.0
     WIRES Comput. Molec. Sci. 2018 8(1), 1-6
     doi.org/10.1002/wcms.1327
  3. Neese, F.; Wennmohs, F.; Becker, U.; Riplinger, C.
     The ORCA quantum chemistry program package
     J. Chem. Phys. 2020 152(22), 224108
     doi.org/10.1063/5.0004608
  4. Neese, F.
     Software update: The ORCA program system—Version 5.0
     WIRES Comput. Molec. Sci. 2022 12(1), e1606
     doi.org/10.1002/wcms.1606

List of optional additional citations

  1. Neese, F.
     Approximate second-order SCF convergence for spin unrestricted wavefunctions
     Chem. Phys. Lett. 2000 325(1-3), 93-98
     doi.org/10.1016/s0009-2614(00)00662-x

Timings for individual modules:

Sum of individual times          ...      978.757 sec (=  16.313 min)
Startup calculation              ...        5.002 sec (=   0.083 min)   0.5 %
SCF iterations                   ...      164.351 sec (=   2.739 min)  16.8 %
Property calculations            ...        0.042 sec (=   0.001 min)   0.0 %
MP2 module                       ...      809.345 sec (=  13.489 min)  82.7 %
Geometry relaxation              ...        0.018 sec (=   0.000 min)   0.0 %
                             ****ORCA TERMINATED NORMALLY****
TOTAL RUN TIME: 0 days 0 hours 16 minutes 18 seconds 974 msec
