
                                 *****************
                                 * O   R   C   A *
                                 *****************

                                            #,                                       
                                            ###                                      
                                            ####                                     
                                            #####                                    
                                            ######                                   
                                           ########,                                 
                                     ,,################,,,,,                         
                               ,,#################################,,                 
                          ,,##########################################,,             
                       ,#########################################, ''#####,          
                    ,#############################################,,   '####,        
                  ,##################################################,,,,####,       
                ,###########''''           ''''###############################       
              ,#####''   ,,,,##########,,,,          '''####'''          '####       
            ,##' ,,,,###########################,,,                        '##       
           ' ,,###''''                  '''############,,,                           
         ,,##''                                '''############,,,,        ,,,,,,###''
      ,#''                                            '''#######################'''  
     '                                                          ''''####''''         
             ,#######,   #######,   ,#######,      ##                                
            ,#'     '#,  ##    ##  ,#'     '#,    #''#        ,####,    ,#,          
            ##       ##  ##   ,#'  ##            #'  '#       #'       ,# #          
            ##       ##  #######   ##           ,######,      #####,      #          
            '#,     ,#'  ##    ##  '#,     ,#' ,#      #,     #,   #      #          
             '#######'   ##     ##  '#######'  #'      '#     '####' #    #          



                #########################################################
                #                        -***-                          #
                #          Department of theory and spectroscopy        #
                #                                                       #
                #                      Frank Neese                      #
                #                                                       #
                #     Directorship, Architecture, Infrastructure        #
                #                    SHARK, DRIVERS                     #
                #        Core code/Algorithms in most modules           #
                #                                                       #
                #        Max Planck Institute fuer Kohlenforschung      #
                #                Kaiser Wilhelm Platz 1                 #
                #                 D-45470 Muelheim/Ruhr                 #
                #                      Germany                          #
                #                                                       #
                #                  All rights reserved                  #
                #                        -***-                          #
                #########################################################


                         Program Version 6.1.0  -  RELEASE   -
                                (GIT: $679e74b$)
                          ($2025-06-10 18:02:51 +0200$)


 With contributions from (in alphabetic order):
[Max-Planck-Institut fuer Kohlenforschung]                               
  Daniel Aravena         : Magnetic Suceptibility                        
  Michael Atanasov       : Ab Initio Ligand Field Theory (pilot matlab implementation)
  Alexander A. Auer      : GIAO ZORA, VPT2 properties, NMR spectrum      
  Ute Becker             : All parallelization in ORCA, NUMFREQ, NUMCALC 
  Giovanni Bistoni       : ED, misc. LED, open-shell LED, HFLD           
  Dmytro Bykov           : pre 5.0 version of the SCF Hessian            
  Marcos Casanova-Páez   : Triplet and SCS-CIS(D). UHF-(DLPNO)-IP/EA/STEOM-CCSD. UHF-CVS-IP/STEOM-CCSD   
  Vijay G. Chilkuri      : MRCI spin determinant printing, contributions to CSF-ICE 
  Pauline Colinet        : FMM embedding                                 
  Dipayan Datta          : RHF DLPNO-CCSD density                        
  Achintya Kumar Dutta   : EOM-CC, STEOM-CC                              
  Nicolas Foglia         : Exact transition moments, OPA infrastructure, MCD improvements    
  Dmitry Ganyushin       : Spin-Orbit,Spin-Spin,Magnetic field MRCI      
  Miquel Garcia-Rates    : C-PCM and meta-GGA Hessian, CCSD/C-PCM, Gaussian charge scheme 
  Tiago L. C. Gouveia    : GS-ROHF, GS-ROCIS                             
  Yang Guo               : DLPNO-NEVPT2, F12-NEVPT2, CIM, IAO-localization        
  Andreas Hansen         : Spin unrestricted coupled pair/coupled cluster methods 
  Ingolf Harden          : AUTO-CI MPn and infrastructure                
  Benjamin Helmich-Paris : MC-RPA, TRAH-(SCF,CASSCF), AVAS, COSX integrals, SCF dyn. polar., MC-PDFT, srDFT 
  Lee Huntington         : MR-EOM, pCC                                   
  Robert Izsak           : Overlap fitted RIJCOSX, COSX-SCS-MP3, EOM     
  Riya Kayal             : Wick's Theorem for AUTO-CI, AUTO-CI UHF-CCSDT 
  Emily Kempfer          : AUTO-CI RHF CISDT and CCSDT, approximate NEVPT4
  Christian Kollmar      : KDIIS, OOCD, Brueckner-CCSD(T), CCSD density, CASPT2, CASPT2-K, improved NEVPT2 
  Axel Koslowski         : Symmetry handling                             
  Simone Kossmann        : meta-GGA functionals, TD-DFT gradient, OOMP2, (MP2 Hessian; deprecated post 5.0) 
  Lucas Lang             : DCDCAS, Hyperfine gauge corrections, ICE-SOC+SSC
  Marvin Lechner         : AUTO-CI (C++ implementation), FIC-MRCC        
  Spencer Leger          : CASSCF response                               
  Dagmar Lenk            : GEPOL surface, SMD, ORCA-2-JSON               
  Dimitrios Liakos       : Extrapolation schemes; Compound Job, Property file
  Dimitrios Manganas     : Further ROCIS development; embedding schemes. LFT, Crystal Embedding 
  Dimitrios Pantazis     : SARC Basis sets                               
  Anastasios Papadopoulos: AUTO-CI, single reference methods and gradients 
  Taras Petrenko         : pre 6.0 DFT Hessian and TD-DFT gradient,  ECA, NRVS 
  Petra Pikulova         : Analytic Raman intensities                    
  Peter Pinski           : DLPNO-MP2, DLPNO-MP2 Gradient                 
  Shashank Vittal Rao    : ES-AILFT, MagRelax                            
  Christoph Reimann      : Effective Core Potentials                     
  Marius Retegan         : Local ZFS, SOC                                
  Christoph Riplinger    : Optimizer, TS searches, QM/MM, DLPNO-CCSD(T), (RO)-DLPNO pert. Triples 
  Michael Roemelt        : Original ROCIS implementation, recursive CI coupling coefficients
  Masaaki Saitow         : Open-shell DLPNO-CCSD energy and density      
  Barbara Sandhoefer     : DKH picture change effects                    
  Yorick L. A. Schmerwitz: GMF and freeze-and-release deltaSCF, NEB S-IDPP initial path                    
  Kantharuban Sivalingam : CASSCF convergence/infrastructure, NEVPT2, NEVPT3, NEVPT4(SD), FIC-MRCI and CEPA variants
  Bernardo de Souza      : ESD, SOC TD-DFT                               
  Georgi L. Stoychev     : AutoAux, RI-MP2 NMR, DLPNO-MP2 response, X2C  
  Van Anh Tran           : RI-MP2 g-tensors                              
  Willem Van den Heuvel  : Paramagnetic NMR                              
  Zikuan Wang            : NOTCH, Electric field optimization            
  Frank Wennmohs         : Technical directorship and infrastructure     
  Hang Xu                : AUTO-CI-Response properties                   
                                                                         
[FACCTs GmbH]                                                            
  Markus Bursch, Nicolas Foglia, Miquel Garcia-Rates, Ingolf Harden, Hagen Neugebauer, Anastasios Papadopoulos, 
  Christoph Riplinger, Bernardo de Souza, Georgi L. Stoychev                                                    
                                                                 
  APM, various basis sets, CI-OPT, improved COSX, DLPNO-Multilevel,           
  DOCKER, DRACO, updates on ESD, Fragmentator, GOAT, IRC, LR-CPCM, L-BFGS, MBIS, meta-GGA TD-DFT gradient, ML-optimized integration grids, 
  MM, NACMEs, nearIR, NEB, NEB-TS, NL-DFT gradient (VV10), 2- and 3-layer-ONIOM, interface openCOSMO-RS, QMMM,   
  Crystal-QMMM, RESP, rigid body optimization, SF, symmetry and pop. for TD-DFT, various functionals, SOLVATOR                                   
                                                                         
[Other institutions]                                                     
  V. Asgeirsson          : NEB                                           
  Christoph Bannwarth    : sTDA-DFT, sTD-DFT, PBEh-3c, B97-3c, D3        
  Giovanni Bistoni       : ETS/NOCV, ADLD/ADEX, COVALED                  
  Martin Brehm           : Molecular dynamics                            
  Ronald Cardenas        : ETS/NOCV                                      
  Martina Colucci        : COVALED                                       
  Sebastian Ehlert       : rSCAN, r2SCAN, r2SCAN-3c, D4, dhf basis sets  
  Marvin Friede          : D4 for Fr, Ra, Ac-Lr                          
  Lars Goerigk           : TD-DFT with DH, B97 family of functionals     
  Stefan Grimme          : VdW corrections, initial TS optimization, DFT functionals, gCP, sTDA/sTD-DF 
  Waldemar Hujo          : DFT-NL                                        
  H. Jonsson             : NEB                                           
  Holger Kruse           : gCP                                           
  Marcel Mueller         : wB97X-3c, vDZP basis set                      
  Hagen Neugebauer       : wr2SCAN, Native XTB                           
  Gianluca Regni         : ADLD/ADEX                                     
  Tobias Risthaus        : pre 6.0 range-separated hybrid DFT and stability analysis
  Lukas Wittmann         : regularized MP2, r2SCAN double-hybrids, wr2SCAN        
                                                                         
We gratefully acknowledge several colleagues who have allowed us to      
interface, adapt or use parts of their codes:                            
  Ed Valeev, F. Pavosevic, A. Kumar             : LibInt (2-el integral package), F12 methods 
  Garnet Chan, S. Sharma, J. Yang, R. Olivares  : DMRG                   
  Ulf Ekstrom                                   : XCFun DFT Library      
  Mihaly Kallay                                 : mrcc  (arbitrary order and MRCC methods)
  Frank Weinhold                                : gennbo (NPA and NBO analysis)           
  Simon Mueller                                 : openCOSMO-RS                            
  Christopher J. Cramer and Donald G. Truhlar   : smd solvation model                     
  S Lehtola, MJT Oliveira, MAL Marques          : LibXC Library                           
  Liviu Ungur et al                             : ANISO software                          


 Your calculation uses the libint2 library for the computation of 2-el integrals
 For citations please refer to: http://libint.valeyev.net

 Your ORCA version has been built with support for libXC version: 7.0.0
 For citations please refer to: https://libxc.gitlab.io

 This ORCA versions uses:
   CBLAS   interface :  Fast vector & matrix operations
   LAPACKE interface :  Fast linear algebra routines
   SCALAPACK package :  Parallel linear algebra routines
   Shared memory     :  Shared parallel matrices
   BLAS/LAPACK       :  OpenBLAS 0.3.29  USE64BITINT DYNAMIC_ARCH NO_AFFINITY Haswell SINGLE_THREADED
        Core in use  :  Haswell
   Copyright (c) 2011-2014, The OpenBLAS Project


  ***********************************
  * Starting time: Wed Sep  3 07:24:03 2025
  * Host name:     chemlab03
  * Process ID:    120134
  * Working dir.:  /home/vivek/mm-project/vivek/xtb-goat/MP2-opt/i/5
  ***********************************



***************************************
The coordinates will be read from file: /home/vivek/mm-project/vivek/xtb-goat/xtb-goat/i/I_CONF/5.xyz
***************************************


================================================================================

----- Orbital basis set information -----
Your calculation utilizes the basis: 6-31G**
   H-He, Li-Ne : W. J. Hehre, R. Ditchfield and J.A. Pople, J. Chem. Phys. 56, 2257 (1972).
                 Note: He and Ne are unpublished basis sets taken from the Gaussian program.
                 Note: Li and B from J. D. Dill and J. A. Pople, J. Chem. Phys. 62, 2921 (1975).
   Na - Ar     : M. M. Francl, W. J. Pietro, W. J. Hehre, J. S. Binkley, M. S. Gordon, 
                 D. J. DeFrees and J. A. Pople, J. Chem. Phys. 77, 3654 (1982).
   K - Zn      : V. A. Rassolov, J. A. Pople, M. A. Ratner, and T. L. Windus, J. Chem. Phys. 109, 1223 (1998).

================================================================================
                                        WARNINGS
                       Please study these warnings very carefully!
================================================================================


WARNING: The frozen-core approximation for MP2-gradient calculations is turned on by default.

WARNING: Geometry Optimization
  ===> : Switching off AutoStart
         For restart on a previous wavefunction, please use MOREAD

WARNING: Post HF methods need fully converged wavefunctions
  ===> : Setting SCFConvForced true
         You can overwrite this default with %scf ConvForced false 


================================================================================
                                       INPUT FILE
================================================================================
NAME = 5.inp
|  1> ! MP2 6-31G** opt
|  2> 
|  3> * xyzfile 0 1 /home/vivek/mm-project/vivek/xtb-goat/xtb-goat/i/I_CONF/5.xyz
|  4> 
|  5>                          ****END OF INPUT****
================================================================================

                       *****************************
                       * Geometry Optimization Run *
                       *****************************

Geometry optimization settings:
Update method            Update   .... BFGS
Choice of coordinates    CoordSys .... (2022) Redundant Internals
Initial Hessian          InHess   .... Almloef's Model
Max. no of cycles        MaxIter  .... 66

Convergence Tolerances:
Energy Change            TolE     ....  5.0000e-06 Eh
Max. Gradient            TolMAXG  ....  3.0000e-04 Eh/bohr
RMS Gradient             TolRMSG  ....  1.0000e-04 Eh/bohr
Max. Displacement        TolMAXD  ....  4.0000e-03 bohr
RMS Displacement         TolRMSD  ....  2.0000e-03 bohr
Strict Convergence                .... False

------------------------------------------------------------------------------
                        ORCA OPTIMIZATION COORDINATE SETUP
------------------------------------------------------------------------------

The optimization will be done in redundant internal coordinates (2022)
Making redundant internal coordinates   ...  (2022 redundants) done
Evaluating the initial hessian          ...  (Almloef) done
Evaluating the coordinates              ...  done
Calculating the B-matrix                .... done
Calculating the G-matrix                .... done
The number of degrees of freedom        ....   94

    -----------------------------------------------------------------
                    Redundant Internal Coordinates


    -----------------------------------------------------------------
         Definition                    Initial Value    Approx d2E/dq
    -----------------------------------------------------------------
      1. B(C   1,C   0)                  1.5247         0.380926   
      2. B(C   2,C   0)                  1.5315         0.371539   
      3. B(C   5,C   2)                  1.5493         0.347970   
      4. B(C   7,C   2)                  1.5284         0.375838   
      5. B(C   8,C   5)                  1.5223         0.384353   
      6. B(H   9,C   7)                  1.0875         0.363407   
      7. B(N  10,H   3)                  1.0149         0.425061   
      8. B(N  10,C   5)                  1.4510         0.447281   
      9. B(N  10,H   4)                  1.0154         0.424226   
     10. B(O  11,C   8)                  1.3382         0.676780   
     11. B(O  11,H   6)                  0.9711         0.499091   
     12. B(H  12,C   1)                  1.0878         0.363004   
     13. B(O  13,C   8)                  1.2035         1.110241   
     14. B(H  14,C   2)                  1.0949         0.353734   
     15. B(H  15,C   7)                  1.0886         0.361896   
     16. B(H  16,C   7)                  1.0864         0.364897   
     17. B(H  17,C   5)                  1.0961         0.352065   
     18. B(H  18,C   0)                  1.0924         0.356955   
     19. B(H  19,C   0)                  1.0913         0.358426   
     20. B(H  20,C   1)                  1.0864         0.364896   
     21. B(H  21,C   1)                  1.0875         0.363448   
     22. A(H  18,C   0,H  19)          107.5794         0.290227   
     23. A(C   1,C   0,C   2)          112.9873         0.364224   
     24. A(C   1,C   0,H  19)          109.5504         0.325110   
     25. A(C   2,C   0,H  18)          108.5220         0.323562   
     26. A(C   2,C   0,H  19)          109.4533         0.323780   
     27. A(C   1,C   0,H  18)          108.5966         0.324890   
     28. A(C   0,C   1,H  20)          111.3036         0.326068   
     29. A(H  20,C   1,H  21)          108.0444         0.291869   
     30. A(C   0,C   1,H  12)          110.4727         0.325789   
     31. A(H  12,C   1,H  20)          108.5936         0.291813   
     32. A(H  12,C   1,H  21)          108.3422         0.291631   
     33. A(C   0,C   1,H  21)          109.9971         0.325855   
     34. A(C   0,C   2,C   7)          111.8439         0.363387   
     35. A(C   0,C   2,C   5)          110.8817         0.358644   
     36. A(C   5,C   2,H  14)          105.1938         0.319635   
     37. A(C   0,C   2,H  14)          108.7110         0.323081   
     38. A(C   5,C   2,C   7)          111.2591         0.359347   
     39. A(C   7,C   2,H  14)          108.6792         0.323691   
     40. A(C   8,C   5,H  17)          107.5678         0.324632   
     41. A(C   2,C   5,H  17)          108.5742         0.319388   
     42. A(N  10,C   5,H  17)          107.9050         0.330852   
     43. A(C   2,C   5,C   8)          111.1173         0.360722   
     44. A(C   8,C   5,N  10)          111.9445         0.374243   
     45. A(C   2,C   5,N  10)          109.6023         0.367895   
     46. A(C   2,C   7,H   9)          110.8823         0.325129   
     47. A(H  15,C   7,H  16)          108.4379         0.291673   
     48. A(H   9,C   7,H  16)          107.8754         0.291864   
     49. A(C   2,C   7,H  16)          110.5017         0.325348   
     50. A(H   9,C   7,H  15)          108.2793         0.291485   
     51. A(C   2,C   7,H  15)          110.7654         0.324906   
     52. A(C   5,C   8,O  13)          124.3162         0.439414   
     53. A(C   5,C   8,O  11)          113.2237         0.402275   
     54. A(O  11,C   8,O  13)          122.4464         0.484010   
     55. A(H   3,N  10,H   4)          106.5885         0.301440   
     56. A(H   4,N  10,C   5)          109.6004         0.338337   
     57. A(H   3,N  10,C   5)          110.2014         0.338448   
     58. A(H   6,O  11,C   8)          110.2909         0.373101   
     59. D(H  20,C   1,C   0,H  19)    -55.7163         0.011562   
     60. D(H  12,C   1,C   0,H  18)     66.3247         0.011562   
     61. D(H  12,C   1,C   0,H  19)   -176.4401         0.011562   
     62. D(H  12,C   1,C   0,C   2)    -54.1273         0.011562   
     63. D(H  20,C   1,C   0,H  18)   -172.9515         0.011562   
     64. D(H  20,C   1,C   0,C   2)     66.5965         0.011562   
     65. D(C   5,C   2,C   0,C   1)    173.3976         0.011030   
     66. D(C   7,C   2,C   0,H  19)     60.5861         0.011030   
     67. D(C   7,C   2,C   0,H  18)    177.7244         0.011030   
     68. D(C   7,C   2,C   0,C   1)    -61.7810         0.011030   
     69. D(C   5,C   2,C   0,H  18)     52.9030         0.011030   
     70. D(C   5,C   2,C   0,H  19)    -64.2353         0.011030   
     71. D(C   8,C   5,C   2,H  14)   -159.9808         0.010000   
     72. D(C   8,C   5,C   2,C   7)    -42.4799         0.010000   
     73. D(C   8,C   5,C   2,C   0)     82.6715         0.010000   
     74. D(N  10,C   5,C   2,H  14)    -35.7311         0.010000   
     75. D(N  10,C   5,C   2,C   7)     81.7698         0.010000   
     76. D(N  10,C   5,C   2,C   0)   -153.0788         0.010000   
     77. D(H  15,C   7,C   2,H  14)   -170.2848         0.011271   
     78. D(H  15,C   7,C   2,C   5)     74.3497         0.011271   
     79. D(H  15,C   7,C   2,C   0)    -50.2619         0.011271   
     80. D(H   9,C   7,C   2,H  14)     69.4713         0.011271   
     81. D(H   9,C   7,C   2,C   5)    -45.8941         0.011271   
     82. D(H   9,C   7,C   2,C   0)   -170.5057         0.011271   
     83. D(O  13,C   8,C   5,N  10)    -15.2324         0.011008   
     84. D(O  13,C   8,C   5,C   2)    107.6789         0.011008   
     85. D(O  11,C   8,C   5,H  17)     45.0729         0.011008   
     86. D(O  11,C   8,C   5,N  10)    163.4471         0.011008   
     87. D(O  11,C   8,C   5,C   2)    -73.6416         0.011008   
     88. D(H   3,N  10,C   5,C   8)    -58.1464         0.017064   
     89. D(H   3,N  10,C   5,C   2)    178.0876         0.017064   
     90. D(H   4,N  10,C   5,C   8)     58.8509         0.017064   
     91. D(H   4,N  10,C   5,C   2)    -64.9152         0.017064   
     92. D(H   3,N  10,C   5,H  17)     60.0273         0.017064   
     93. D(H   6,O  11,C   8,O  13)     -1.1527         0.034086   
     94. D(H   6,O  11,C   8,C   5)   -179.8603         0.034086   
    -----------------------------------------------------------------

Number of atoms                         .... 22
Number of degrees of freedom            .... 94


         *************************************************************
         *                GEOMETRY OPTIMIZATION CYCLE   1            *
         *************************************************************
---------------------------------
CARTESIAN COORDINATES (ANGSTROEM)
---------------------------------
  C     -9.300386    4.040780    0.564482
  C    -10.640139    4.768506    0.577574
  C     -8.135912    4.939189    0.137498
  H     -4.837759    4.697151    0.654845
  H     -5.617033    5.750457   -0.310873
  C     -6.782329    4.202885    0.298998
  H     -7.032204    1.663651   -1.701484
  C     -8.314950    5.463705   -1.286827
  C     -6.497774    3.309017   -0.899875
  H     -7.410924    5.958393   -1.634247
  N     -5.724155    5.171567    0.516428
  O     -7.249406    2.202032   -0.922959
  H    -10.579943    5.665462    1.190097
  O     -5.667888    3.543623   -1.739322
  H     -8.081705    5.792595    0.821214
  H     -8.543446    4.649310   -1.972173
  H     -9.126394    6.184928   -1.327520
  H     -6.838068    3.560086    1.185131
  H     -9.098178    3.665076    1.570101
  H     -9.359002    3.179782   -0.103435
  H    -10.944121    5.053875   -0.425631
  H    -11.410368    4.122214    0.991905

----------------------------
CARTESIAN COORDINATES (A.U.)
----------------------------
  NO LB      ZA    FRAG     MASS         X           Y           Z
   0 C     6.0000    0    12.011  -17.575182    7.635968    1.066716
   1 C     6.0000    0    12.011  -20.106949    9.011170    1.091457
   2 C     6.0000    0    12.011  -15.374646    9.333715    0.259833
   3 H     1.0000    0     1.008   -9.142040    8.876329    1.237478
   4 H     1.0000    0     1.008  -10.614654   10.866790   -0.587464
   5 C     6.0000    0    12.011  -12.816744    7.942302    0.565024
   6 H     1.0000    0     1.008  -13.288940    3.143845   -3.215338
   7 C     6.0000    0    12.011  -15.712979   10.324906   -2.431750
   8 C     6.0000    0    12.011  -12.279014    6.253136   -1.700517
   9 H     1.0000    0     1.008  -14.004616   11.259731   -3.088278
  10 N     7.0000    0    14.007  -10.817085    9.772846    0.975907
  11 O     8.0000    0    15.999  -13.699391    4.161237   -1.744140
  12 H     1.0000    0     1.008  -19.993194   10.706172    2.248958
  13 O     8.0000    0    15.999  -10.710756    6.696477   -3.286842
  14 H     1.0000    0     1.008  -15.272209   10.946417    1.551870
  15 H     1.0000    0     1.008  -16.144773    8.785923   -3.726867
  16 H     1.0000    0     1.008  -17.246385   11.687820   -2.508649
  17 H     1.0000    0     1.008  -12.922076    6.727588    2.239574
  18 H     1.0000    0     1.008  -17.193064    6.925990    2.967061
  19 H     1.0000    0     1.008  -17.685950    6.008917   -0.195464
  20 H     1.0000    0     1.008  -20.681392    9.550440   -0.804327
  21 H     1.0000    0     1.008  -21.562470    7.789856    1.874429

--------------------------------
INTERNAL COORDINATES (ANGSTROEM)
--------------------------------
 C      0   0   0     0.000000000000     0.00000000     0.00000000
 C      1   0   0     1.524695173607     0.00000000     0.00000000
 C      1   2   0     1.531487130127   112.98734524     0.00000000
 H      3   1   2     3.347244385920   131.58212066   158.30075691
 H      4   3   1     1.627677238986    52.39331088   171.46115730
 C      3   1   2     1.549327066354   110.88171202   173.39756780
 H      6   3   1     3.242232532807   103.91892928    61.57047575
 C      3   1   2     1.528355792992   111.84386820   298.21899851
 C      6   3   1     1.522257283059   111.11734179    82.67152928
 H      8   3   1     1.087511286283   110.88225631   189.49428583
 N      4   3   1     1.014853567424    23.72372329   211.80504096
 O      7   6   3     0.971148825735    24.27800989   293.01297298
 H      2   1   3     1.087813883402   110.47272602   305.87270396
 O      9   6   3     1.203504305113   124.31618579   107.67894625
 H      3   1   2     1.094855058892   108.71097165    58.22332390
 H      8   3   1     1.088645442730   110.76544456   309.73809356
 H      8   3   1     1.086397431401   110.50174809    69.93029042
 H      6   3   1     1.096143031815   108.57420151   324.56410034
 H      1   2   3     1.092388031656   108.59662769   120.45199386
 H      1   2   3     1.091268400452   109.55039330   237.68721426
 H      2   1   3     1.086398649622   111.30363440    66.59653453
 H      2   1   3     1.087480836272   109.99714512   186.31340013

---------------------------
INTERNAL COORDINATES (A.U.)
---------------------------
 C      0   0   0     0.000000000000     0.00000000     0.00000000
 C      1   0   0     2.881256315829     0.00000000     0.00000000
 C      1   2   0     2.894091253565   112.98734524     0.00000000
 H      3   1   2     6.325375192694   131.58212066   158.30075691
 H      4   3   1     3.075864216101    52.39331088   171.46115730
 C      3   1   2     2.927803847281   110.88171202   173.39756780
 H      6   3   1     6.126931549495   103.91892928    61.57047575
 C      3   1   2     2.888173883946   111.84386820   298.21899851
 C      6   3   1     2.876649370348   111.11734179    82.67152928
 H      8   3   1     2.055098498622   110.88225631   189.49428583
 N      4   3   1     1.917795308465    23.72372329   211.80504096
 O      7   6   3     1.835205315918    24.27800989   293.01297298
 H      2   1   3     2.055670324307   110.47272602   305.87270396
 O      9   6   3     2.274293537659   124.31618579   107.67894625
 H      3   1   2     2.068976217644   108.71097165    58.22332390
 H      8   3   1     2.057241743701   110.76544456   309.73809356
 H      8   3   1     2.052993617943   110.50174809    69.93029042
 H      6   3   1     2.071410133737   108.57420151   324.56410034
 H      1   2   3     2.064314211803   108.59662769   120.45199386
 H      1   2   3     2.062198415457   109.55039330   237.68721426
 H      2   1   3     2.052995920048   111.30363440    66.59653453
 H      2   1   3     2.055040956442   109.99714512   186.31340013

---------------------
BASIS SET INFORMATION
---------------------
There are 4 groups of distinct atoms

 Group   1 Type C   : 10s4p1d contracted to 3s2p1d pattern {631/31/1}
 Group   2 Type H   : 4s1p contracted to 2s1p pattern {31/1}
 Group   3 Type N   : 10s4p1d contracted to 3s2p1d pattern {631/31/1}
 Group   4 Type O   : 10s4p1d contracted to 3s2p1d pattern {631/31/1}

Atom   0C    basis set group =>   1
Atom   1C    basis set group =>   1
Atom   2C    basis set group =>   1
Atom   3H    basis set group =>   2
Atom   4H    basis set group =>   2
Atom   5C    basis set group =>   1
Atom   6H    basis set group =>   2
Atom   7C    basis set group =>   1
Atom   8C    basis set group =>   1
Atom   9H    basis set group =>   2
Atom  10N    basis set group =>   3
Atom  11O    basis set group =>   4
Atom  12H    basis set group =>   2
Atom  13O    basis set group =>   4
Atom  14H    basis set group =>   2
Atom  15H    basis set group =>   2
Atom  16H    basis set group =>   2
Atom  17H    basis set group =>   2
Atom  18H    basis set group =>   2
Atom  19H    basis set group =>   2
Atom  20H    basis set group =>   2
Atom  21H    basis set group =>   2
------------------------------------------------------------------------------
                             ORCA STARTUP CALCULATIONS
------------------------------------------------------------------------------
------------------------------------------------------------------------------
                   ___                                                        
                  /   \      - P O W E R E D   B Y -                         
                 /     \                                                     
                 |  |  |   _    _      __       _____    __    __             
                 |  |  |  | |  | |    /  \     |  _  \  |  |  /  |          
                  \  \/   | |  | |   /    \    | | | |  |  | /  /          
                 / \  \   | |__| |  /  /\  \   | |_| |  |  |/  /          
                |  |  |   |  __  | /  /__\  \  |    /   |      \           
                |  |  |   | |  | | |   __   |  |    \   |  |\   \          
                \     /   | |  | | |  |  |  |  | |\  \  |  | \   \       
                 \___/    |_|  |_| |__|  |__|  |_| \__\ |__|  \__/        
                                                                              
                      - O R C A' S   B I G   F R I E N D -                    
                                      &                                       
                       - I N T E G R A L  F E E D E R -                       
                                                                              
 v1 FN, 2020, v2 2021, v3 2022-2024                                           
------------------------------------------------------------------------------


----------------------
SHARK INTEGRAL PACKAGE
----------------------

Number of atoms                             ...     22
Number of basis functions                   ...    191
Number of shells                            ...     93
Maximum angular momentum                    ...      2
Integral batch strategy                     ... SHARK/LIBINT Hybrid
RI-J (if used) integral strategy            ... SPLIT-RIJ (Revised 2003 algorithm where possible)
Printlevel                                  ...      1
Contraction scheme used                     ... SEGMENTED contraction
Prescreening option                         ... SCHWARTZ
   Thresh                                   ... 2.500e-11
   Tcut                                     ... 2.500e-12
   Tpresel                                  ... 2.500e-12 
Coulomb Range Separation                    ... NOT USED
Exchange Range Separation                   ... NOT USED
Multipole approximations                    ... NOT USED
Finite Nucleus Model                        ... NOT USED
CABS basis                                  ... NOT available
Auxiliary Coulomb fitting basis             ... NOT available
Auxiliary J/K fitting basis                 ... NOT available
Auxiliary Correlation fitting basis         ... NOT available
Auxiliary 'external' fitting basis          ... NOT available

Checking pre-screening integrals            ... done (  0.0 sec) Dimension = 93
   => SHARK Basis and OBASIS are compatible. Storing Pre-screening
Shell pair information
Shell pair cut-off parameter TPreSel        ...   2.5e-12
Total number of shell pairs                 ...      4371
Shell pairs after pre-screening             ...      3978
Total number of primitive shell pairs       ...     20328
Primitive shell pairs kept                  ...     12377
          la=0 lb=0:   1309 shell pairs
          la=1 lb=0:   1483 shell pairs
          la=1 lb=1:    444 shell pairs
          la=2 lb=0:    443 shell pairs
          la=2 lb=1:    256 shell pairs
          la=2 lb=2:     43 shell pairs

Checking whether 4 symmetric matrices of dimension 191 fit in memory
:Max Core in MB      =   4096.00
 MB in use           =      6.52
 MB left             =   4089.48
 MB needed           =      0.56
 Data fit in memory  = YES
Calculating Nuclear repulsion               ... done (  0.0 sec) ENN=    496.148611016916 Eh

Diagonalization of the overlap matrix:
Smallest eigenvalue                        ... 2.717e-03
Time for diagonalization                   ...    0.002 sec
Threshold for overlap eigenvalues          ... 1.000e-07
Number of eigenvalues below threshold      ... 0
Time for construction of square roots      ...    0.001 sec
Total time needed                          ...    0.003 sec

-------------------
DFT GRID GENERATION
-------------------

General Integration Accuracy     IntAcc      ... 4.388
Radial Grid Type                 RadialGrid  ... OptM3 with GC (2021)
Angular Grid (max. ang.)         AngularGrid ... 4 (Lebedev-302)
Angular grid pruning method      GridPruning ... 4 (adaptive)
Weight generation scheme         WeightScheme... mBecke (2022)
Basis function cutoff            BFCut       ... 1.0000e-11
Integration weight cutoff        WCut        ... 1.0000e-14
Partially contracted basis set               ... off
Rotationally invariant grid construction     ... off
Angular grids for H and He will be reduced by one unit

Total number of grid points                  ...    95523
Total number of batches                      ...     1503
Average number of points per batch           ...       63
Average number of grid points per atom       ...     4342
Grids setup in   0.4 sec
Initializing property integral containers    ... done (  0.0 sec)

SHARK setup successfully completed in   0.4 seconds

Maximum memory used throughout the entire STARTUP-calculation: 38.5 MB
-------------------------------------------------------------------------------
                                 ORCA GUESS
                   Start orbitals & Density for SCF / CASSCF
-------------------------------------------------------------------------------

------------
SCF SETTINGS
------------
Hamiltonian:
 Ab initio Hamiltonian  Method          .... Hartree-Fock(GTOs)


General Settings:
 Integral files         IntName         .... 5
 Hartree-Fock type      HFTyp           .... RHF
 Total Charge           Charge          ....    0
 Multiplicity           Mult            ....    1
 Number of Electrons    NEL             ....   72
 Basis Dimension        Dim             ....  191
 Nuclear Repulsion      ENuc            ....    496.1486110169 Eh

Convergence Acceleration:
 AO-DIIS                CNVDIIS         .... on
   Start iteration      DIISMaxIt       ....    12
   Startup error        DIISStart       ....  0.200000
   # of expansion vecs  DIISMaxEq       ....     5
   Bias factor          DIISBfac        ....   1.050
   Max. coefficient     DIISMaxC        ....  10.000
 MO-DIIS                CNVKDIIS        .... off
 Trust-Rad. Augm. Hess. CNVTRAH         .... auto
   Auto Start mean grad. ratio tolernc. ....  1.125000
   Auto Start start iteration           ....    50
   Auto Start num. interpolation iter.  ....    10
   Max. Number of Micro iterations      ....    24
   Max. Number of Macro iterations      .... Maxiter - #DIIS iter
   Number of Davidson start vectors     ....     2
   Converg. threshold    (grad. norm)   ....   1.000e-05
   Grad. Scal. Fac. for Micro threshold ....   0.100
   Minimum threshold for Micro iter.    ....   1.000e-02
   NR start threshold (gradient norm)   ....   1.000e-04
   Initial trust radius                 ....   0.400
   Minimum AH scaling param. (alpha)    ....   1.000
   Maximum AH scaling param. (alpha)    .... 1000.000
   Quad. conv. algorithm                .... NR
   White noise on init. David. guess    .... on
   Maximum white noise                  ....   0.010
   Pseudo random numbers                .... off
   Inactive MOs                         .... canonical
   Orbital update algorithm             .... Taylor
   Preconditioner                       .... Diag
   Full preconditioner red. dimension   ....   250
 SOSCF                 CNVSOSCF           .... on
   Start iteration     SOSCFMaxIt         ....   150
   Startup grad/error  SOSCFStart         ....  0.003300
   Hessian update      SOSCFHessUp        .... L-BFGS
   Autom. constraints  SOSCFAutoConstrain .... off
 Level Shifting         CNVShift        .... on
   Level shift para.    LevelShift      ....    0.2500
   Turn off err/grad.   ShiftErr        ....    0.0010
 Zerner damping         CNVZerner       .... off
 Static damping         CNVDamp         .... on
   Fraction old density DampFac         ....    0.7000
   Max. Damping (<1)    DampMax         ....    0.9800
   Min. Damping (>=0)   DampMin         ....    0.0000
   Turn off err/grad.   DampErr         ....    0.1000

SCF Procedure:
 Maximum # iterations   MaxIter         ....   125
 SCF integral mode      SCFMode         .... Direct
   Integral package                     .... SHARK and LIBINT hybrid scheme
 Reset frequency        DirectResetFreq ....    20
 Integral Threshold     Thresh          ....  2.500e-11 Eh
 Primitive CutOff       TCut            ....  2.500e-12 Eh

Convergence Tolerance:
 Convergence Check Mode ConvCheckMode   .... Total+1el-Energy
 Convergence forced     ConvForced      .... 1
 Energy Change          TolE            ....  1.000e-08 Eh
 1-El. energy change                    ....  1.000e-05 Eh
 Orbital Gradient       TolG            ....  1.000e-05
 Orbital Rotation angle TolX            ....  1.000e-05
 DIIS Error             TolErr          ....  5.000e-07

------------------------------
INITIAL GUESS: MODEL POTENTIAL
------------------------------
Loading Hartree-Fock densities                     ... done
Calculating cut-offs                               ... done
Initializing the effective Hamiltonian             ... done
Setting up the integral package (SHARK)            ... done
Starting the Coulomb interaction                   ... done (   0.1 sec)
Making the grid                                    ... done (   0.1 sec)
Mapping shells                                     ... done
Starting the XC term evaluation                    ... done (   0.1 sec)
Transforming the Hamiltonian                       ... done (   0.0 sec)
Diagonalizing the Hamiltonian                      ... done (   0.0 sec)
Back transforming the eigenvectors                 ... done (   0.0 sec)
Now organizing SCF variables                       ... done
                      ------------------
                      INITIAL GUESS DONE (   0.2 sec)
                      ------------------
             **** ENERGY FILE WAS UPDATED (5.en.tmp) ****
Finished Guess after   0.3 sec
Maximum memory used throughout the entire GUESS-calculation: 11.8 MB

-------------------------------------------------------------------------------------------
                                      ORCA LEAN-SCF
                              memory conserving SCF solver
-------------------------------------------------------------------------------------------

----------------------------------------D-I-I-S--------------------------------------------
Iteration    Energy (Eh)           Delta-E    RMSDP     MaxDP     DIISErr   Damp  Time(sec)
-------------------------------------------------------------------------------------------
               ***  Starting incremental Fock matrix formation  ***
    1    -438.5396920023378584     0.00e+00  2.47e-03  6.50e-02  2.47e-01  0.700   2.1
    2    -438.7021693517082781    -1.62e-01  1.87e-03  4.67e-02  1.52e-01  0.700   2.0
                               ***Turning on AO-DIIS***
    3    -438.7976348631408996    -9.55e-02  1.02e-03  2.27e-02  8.38e-02  0.700   1.9
    4    -438.8575660833291181    -5.99e-02  2.31e-03  4.77e-02  5.57e-02  0.000   1.9
    5    -438.9898325284598855    -1.32e-01  2.69e-04  4.70e-03  5.46e-03  0.000   2.0
                              *** Initializing SOSCF ***
---------------------------------------S-O-S-C-F--------------------------------------
Iteration    Energy (Eh)           Delta-E    RMSDP     MaxDP     MaxGrad    Time(sec)
--------------------------------------------------------------------------------------
    6    -438.9903144782068125    -4.82e-04  1.32e-04  2.57e-03  2.72e-03     1.8
               *** Restarting incremental Fock matrix formation ***
    7    -438.9904204244963353    -1.06e-04  7.70e-05  2.01e-03  1.35e-03     2.1
    8    -438.9904501807046131    -2.98e-05  7.30e-05  1.52e-03  4.12e-04     1.7
    9    -438.9904609392580710    -1.08e-05  1.20e-05  1.81e-04  1.75e-04     1.7
   10    -438.9904615760129332    -6.37e-07  7.94e-06  1.42e-04  4.59e-05     1.5
   11    -438.9904617079473041    -1.32e-07  1.57e-06  3.63e-05  1.22e-05     1.5
   12    -438.9904617186929840    -1.07e-08  4.27e-07  1.09e-05  3.35e-06     1.3
   13    -438.9904617203374642    -1.64e-09  1.55e-07  3.46e-06  1.24e-06     1.2
                 **** Energy Check signals convergence ****

               *****************************************************
               *                     SUCCESS                       *
               *           SCF CONVERGED AFTER  13 CYCLES          *
               *****************************************************

             **** ENERGY FILE WAS UPDATED (5.en.tmp) ****

----------------
TOTAL SCF ENERGY
----------------

Total Energy       :       -438.99046172255390 Eh          -11945.53776 eV

Components:
Nuclear Repulsion  :        496.14861101691628 Eh           13500.89008 eV
Electronic Energy  :       -935.13907273947018 Eh          -25446.42784 eV
One Electron Energy:      -1582.84158006720577 Eh          -43071.30910 eV
Two Electron Energy:        647.70250732773559 Eh           17624.88126 eV

Virial components:
Potential Energy   :       -877.61469240373253 Eh          -23881.10987 eV
Kinetic Energy     :        438.62423068117869 Eh           11935.57211 eV
Virial Ratio       :          2.00083495396688

---------------
SCF CONVERGENCE
---------------

  Last Energy change         ...    1.6445e-09  Tolerance :   1.0000e-08
  Last MAX-Density change    ...    3.4649e-06  Tolerance :   1.0000e-07
  Last RMS-Density change    ...    1.5493e-07  Tolerance :   5.0000e-09
  Last DIIS Error            ...    2.7195e-03  Tolerance :   5.0000e-07
  Last Orbital Gradient      ...    1.2410e-06  Tolerance :   1.0000e-05
  Last Orbital Rotation      ...    2.0987e-06  Tolerance :   1.0000e-05


----------------
ORBITAL ENERGIES
----------------

  NO   OCC          E(Eh)            E(eV) 
   0   2.0000     -20.619032      -561.0724 
   1   2.0000     -20.553153      -559.2797 
   2   2.0000     -15.544579      -422.9895 
   3   2.0000     -11.381720      -309.7123 
   4   2.0000     -11.269296      -306.6531 
   5   2.0000     -11.232411      -305.6494 
   6   2.0000     -11.216659      -305.2208 
   7   2.0000     -11.216327      -305.2118 
   8   2.0000     -11.211200      -305.0723 
   9   2.0000      -1.469334       -39.9826 
  10   2.0000      -1.362044       -37.0631 
  11   2.0000      -1.196291       -32.5527 
  12   2.0000      -1.087527       -29.5931 
  13   2.0000      -0.994463       -27.0607 
  14   2.0000      -0.952202       -25.9107 
  15   2.0000      -0.879557       -23.9340 
  16   2.0000      -0.818404       -22.2699 
  17   2.0000      -0.767866       -20.8947 
  18   2.0000      -0.703582       -19.1454 
  19   2.0000      -0.698321       -19.0023 
  20   2.0000      -0.669315       -18.2130 
  21   2.0000      -0.643483       -17.5101 
  22   2.0000      -0.616817       -16.7845 
  23   2.0000      -0.602273       -16.3887 
  24   2.0000      -0.588812       -16.0224 
  25   2.0000      -0.581453       -15.8221 
  26   2.0000      -0.564706       -15.3664 
  27   2.0000      -0.538302       -14.6479 
  28   2.0000      -0.513226       -13.9656 
  29   2.0000      -0.510142       -13.8817 
  30   2.0000      -0.485783       -13.2188 
  31   2.0000      -0.467937       -12.7332 
  32   2.0000      -0.460655       -12.5350 
  33   2.0000      -0.458487       -12.4761 
  34   2.0000      -0.445061       -12.1107 
  35   2.0000      -0.397863       -10.8264 
  36   0.0000       0.182513         4.9664 
  37   0.0000       0.216548         5.8926 
  38   0.0000       0.226326         6.1586 
  39   0.0000       0.252676         6.8757 
  40   0.0000       0.264780         7.2050 
  41   0.0000       0.287045         7.8109 
  42   0.0000       0.290167         7.8958 
  43   0.0000       0.302044         8.2190 
  44   0.0000       0.314137         8.5481 
  45   0.0000       0.323965         8.8155 
  46   0.0000       0.337514         9.1842 
*Only the first 10 virtual orbitals were printed.

                    ********************************
                    * MULLIKEN POPULATION ANALYSIS *
                    ********************************

-----------------------
MULLIKEN ATOMIC CHARGES
-----------------------
   0 C :   -0.212875
   1 C :   -0.336473
   2 C :   -0.132247
   3 H :    0.274350
   4 H :    0.279270
   5 C :   -0.032654
   6 H :    0.371044
   7 C :   -0.349256
   8 C :    0.792899
   9 H :    0.121722
  10 N :   -0.678233
  11 O :   -0.636985
  12 H :    0.110322
  13 O :   -0.590544
  14 H :    0.149873
  15 H :    0.114952
  16 H :    0.126413
  17 H :    0.156920
  18 H :    0.110275
  19 H :    0.133150
  20 H :    0.112780
  21 H :    0.115297
Sum of atomic charges:    0.0000000

--------------------------------
MULLIKEN REDUCED ORBITAL CHARGES
--------------------------------
  0 C s       :     3.236048  s :     3.236048
      pz      :     1.044462  p :     2.927622
      px      :     0.898939
      py      :     0.984220
      dz2     :     0.010452  d :     0.049205
      dxz     :     0.004973
      dyz     :     0.012522
      dx2y2   :     0.008905
      dxy     :     0.012353

  1 C s       :     3.253469  s :     3.253469
      pz      :     1.047878  p :     3.040765
      px      :     0.965750
      py      :     1.027136
      dz2     :     0.008687  d :     0.042239
      dxz     :     0.005725
      dyz     :     0.010038
      dx2y2   :     0.007168
      dxy     :     0.010621

  2 C s       :     3.235706  s :     3.235706
      pz      :     0.971204  p :     2.842102
      px      :     0.874540
      py      :     0.996359
      dz2     :     0.012412  d :     0.054439
      dxz     :     0.005838
      dyz     :     0.014339
      dx2y2   :     0.008440
      dxy     :     0.013409

  3 H s       :     0.699638  s :     0.699638
      pz      :     0.006637  p :     0.026013
      px      :     0.012845
      py      :     0.006530

  4 H s       :     0.694636  s :     0.694636
      pz      :     0.012672  p :     0.026094
      px      :     0.003877
      py      :     0.009544

  5 C s       :     3.201110  s :     3.201110
      pz      :     0.955502  p :     2.761955
      px      :     0.891661
      py      :     0.914792
      dz2     :     0.010665  d :     0.069589
      dxz     :     0.006526
      dyz     :     0.022678
      dx2y2   :     0.012160
      dxy     :     0.017559

  6 H s       :     0.587470  s :     0.587470
      pz      :     0.020006  p :     0.041486
      px      :     0.008376
      py      :     0.013105

  7 C s       :     3.254459  s :     3.254459
      pz      :     0.941212  p :     3.052850
      px      :     1.070106
      py      :     1.041532
      dz2     :     0.010049  d :     0.041947
      dxz     :     0.004523
      dyz     :     0.011411
      dx2y2   :     0.003907
      dxy     :     0.012056

  8 C s       :     2.953632  s :     2.953632
      pz      :     0.792471  p :     2.107748
      px      :     0.651857
      py      :     0.663420
      dz2     :     0.033694  d :     0.145722
      dxz     :     0.021125
      dyz     :     0.028723
      dx2y2   :     0.027749
      dxy     :     0.034432

  9 H s       :     0.865604  s :     0.865604
      pz      :     0.002707  p :     0.012674
      px      :     0.006684
      py      :     0.003283

 10 N s       :     3.603309  s :     3.603309
      pz      :     1.559606  p :     4.040085
      px      :     1.145348
      py      :     1.335130
      dz2     :     0.008950  d :     0.034839
      dxz     :     0.002168
      dyz     :     0.006855
      dx2y2   :     0.004016
      dxy     :     0.012849

 11 O s       :     3.838497  s :     3.838497
      pz      :     1.618837  p :     4.773168
      px      :     1.729960
      py      :     1.424371
      dz2     :     0.005714  d :     0.025320
      dxz     :     0.003075
      dyz     :     0.005029
      dx2y2   :     0.003747
      dxy     :     0.007755

 12 H s       :     0.877056  s :     0.877056
      pz      :     0.004114  p :     0.012622
      px      :     0.001805
      py      :     0.006703

 13 O s       :     3.874645  s :     3.874645
      pz      :     1.498896  p :     4.683222
      px      :     1.446039
      py      :     1.738287
      dz2     :     0.008452  d :     0.032678
      dxz     :     0.008584
      dyz     :     0.005311
      dx2y2   :     0.006327
      dxy     :     0.004005

 14 H s       :     0.837775  s :     0.837775
      pz      :     0.004584  p :     0.012352
      px      :     0.001515
      py      :     0.006254

 15 H s       :     0.872441  s :     0.872441
      pz      :     0.004759  p :     0.012607
      px      :     0.002165
      py      :     0.005683

 16 H s       :     0.860787  s :     0.860787
      pz      :     0.001858  p :     0.012800
      px      :     0.005888
      py      :     0.005055

 17 H s       :     0.830943  s :     0.830943
      pz      :     0.006774  p :     0.012137
      px      :     0.001331
      py      :     0.004032

 18 H s       :     0.877325  s :     0.877325
      pz      :     0.007872  p :     0.012400
      px      :     0.001887
      py      :     0.002641

 19 H s       :     0.854088  s :     0.854088
      pz      :     0.004487  p :     0.012761
      px      :     0.001751
      py      :     0.006524

 20 H s       :     0.874473  s :     0.874473
      pz      :     0.007939  p :     0.012747
      px      :     0.002438
      py      :     0.002370

 21 H s       :     0.871989  s :     0.871989
      pz      :     0.002924  p :     0.012714
      px      :     0.005452
      py      :     0.004339



                     *******************************
                     * LOEWDIN POPULATION ANALYSIS *
                     *******************************

----------------------
LOEWDIN ATOMIC CHARGES
----------------------
   0 C :   -0.115488
   1 C :   -0.183948
   2 C :   -0.057735
   3 H :    0.130608
   4 H :    0.131206
   5 C :   -0.024963
   6 H :    0.200601
   7 C :   -0.184078
   8 C :    0.228773
   9 H :    0.066079
  10 N :   -0.274329
  11 O :   -0.208213
  12 H :    0.061795
  13 O :   -0.312099
  14 H :    0.074325
  15 H :    0.064105
  16 H :    0.069858
  17 H :    0.080019
  18 H :    0.059317
  19 H :    0.066611
  20 H :    0.062070
  21 H :    0.065486

-------------------------------
LOEWDIN REDUCED ORBITAL CHARGES
-------------------------------
  0 C s       :     2.889155  s :     2.889155
      pz      :     1.068730  p :     3.133073
      px      :     1.012468
      py      :     1.051875
      dz2     :     0.018788  d :     0.093261
      dxz     :     0.010192
      dyz     :     0.021319
      dx2y2   :     0.017857
      dxy     :     0.025105

  1 C s       :     2.905170  s :     2.905170
      pz      :     1.083798  p :     3.203706
      px      :     1.045194
      py      :     1.074714
      dz2     :     0.014648  d :     0.075073
      dxz     :     0.010581
      dyz     :     0.016659
      dx2y2   :     0.013647
      dxy     :     0.019537

  2 C s       :     2.878422  s :     2.878422
      pz      :     1.040207  p :     3.072071
      px      :     0.990608
      py      :     1.041256
      dz2     :     0.024904  d :     0.107242
      dxz     :     0.012278
      dyz     :     0.026300
      dx2y2   :     0.016736
      dxy     :     0.027026

  3 H s       :     0.788029  s :     0.788029
      pz      :     0.020919  p :     0.081363
      px      :     0.038881
      py      :     0.021563

  4 H s       :     0.786788  s :     0.786788
      pz      :     0.040611  p :     0.082007
      px      :     0.012174
      py      :     0.029222

  5 C s       :     2.872061  s :     2.872061
      pz      :     1.023407  p :     3.013761
      px      :     0.992486
      py      :     0.997867
      dz2     :     0.021161  d :     0.139141
      dxz     :     0.013207
      dyz     :     0.044867
      dx2y2   :     0.024432
      dxy     :     0.035474

  6 H s       :     0.679159  s :     0.679159
      pz      :     0.057085  p :     0.120240
      px      :     0.026570
      py      :     0.036584

  7 C s       :     2.904939  s :     2.904939
      pz      :     1.037252  p :     3.204279
      px      :     1.086339
      py      :     1.080688
      dz2     :     0.019091  d :     0.074860
      dxz     :     0.009007
      dyz     :     0.020990
      dx2y2   :     0.006049
      dxy     :     0.019723

  8 C s       :     2.850482  s :     2.850482
      pz      :     0.943987  p :     2.604320
      px      :     0.818439
      py      :     0.841894
      dz2     :     0.071363  d :     0.316425
      dxz     :     0.047671
      dyz     :     0.059814
      dx2y2   :     0.057706
      dxy     :     0.079870

  9 H s       :     0.893664  s :     0.893664
      pz      :     0.008901  p :     0.040257
      px      :     0.020290
      py      :     0.011066

 10 N s       :     3.186847  s :     3.186847
      pz      :     1.524077  p :     4.025900
      px      :     1.166766
      py      :     1.335057
      dz2     :     0.012145  d :     0.061582
      dxz     :     0.004565
      dyz     :     0.011919
      dx2y2   :     0.010525
      dxy     :     0.022427

 11 O s       :     3.458747  s :     3.458747
      pz      :     1.582309  p :     4.701500
      px      :     1.703592
      py      :     1.415600
      dz2     :     0.009020  d :     0.047965
      dxz     :     0.004130
      dyz     :     0.012096
      dx2y2   :     0.008149
      dxy     :     0.014569

 12 H s       :     0.898683  s :     0.898683
      pz      :     0.012933  p :     0.039523
      px      :     0.006593
      py      :     0.019996

 13 O s       :     3.547581  s :     3.547581
      pz      :     1.534027  p :     4.707358
      px      :     1.473120
      py      :     1.700210
      dz2     :     0.012004  d :     0.057160
      dxz     :     0.020526
      dyz     :     0.007867
      dx2y2   :     0.009247
      dxy     :     0.007517

 14 H s       :     0.885572  s :     0.885572
      pz      :     0.014517  p :     0.040103
      px      :     0.006200
      py      :     0.019386

 15 H s       :     0.895912  s :     0.895912
      pz      :     0.014807  p :     0.039982
      px      :     0.007776
      py      :     0.017399

 16 H s       :     0.889733  s :     0.889733
      pz      :     0.006701  p :     0.040409
      px      :     0.018025
      py      :     0.015683

 17 H s       :     0.880317  s :     0.880317
      pz      :     0.020903  p :     0.039664
      px      :     0.006305
      py      :     0.012456

 18 H s       :     0.901716  s :     0.901716
      pz      :     0.022865  p :     0.038967
      px      :     0.006960
      py      :     0.009143

 19 H s       :     0.892675  s :     0.892675
      pz      :     0.014130  p :     0.040714
      px      :     0.006831
      py      :     0.019753

 20 H s       :     0.897959  s :     0.897959
      pz      :     0.023466  p :     0.039971
      px      :     0.008396
      py      :     0.008109

 21 H s       :     0.894940  s :     0.894940
      pz      :     0.009561  p :     0.039574
      px      :     0.016550
      py      :     0.013463



                      *****************************
                      * MAYER POPULATION ANALYSIS *
                      *****************************

  NA   - Mulliken gross atomic population
  ZA   - Total nuclear charge
  QA   - Mulliken gross atomic charge
  VA   - Mayer's total valence
  BVA  - Mayer's bonded valence
  FA   - Mayer's free valence

  ATOM       NA         ZA         QA         VA         BVA        FA
  0 C      6.2129     6.0000    -0.2129     3.7945     3.7945     0.0000
  1 C      6.3365     6.0000    -0.3365     3.8567     3.8567     0.0000
  2 C      6.1322     6.0000    -0.1322     3.7470     3.7470    -0.0000
  3 H      0.7257     1.0000     0.2743     0.9062     0.9062     0.0000
  4 H      0.7207     1.0000     0.2793     0.9062     0.9062     0.0000
  5 C      6.0327     6.0000    -0.0327     3.7503     3.7503     0.0000
  6 H      0.6290     1.0000     0.3710     0.8732     0.8732    -0.0000
  7 C      6.3493     6.0000    -0.3493     3.8391     3.8391    -0.0000
  8 C      5.2071     6.0000     0.7929     3.6659     3.6659     0.0000
  9 H      0.8783     1.0000     0.1217     0.9529     0.9529    -0.0000
 10 N      7.6782     7.0000    -0.6782     2.7787     2.7787     0.0000
 11 O      8.6370     8.0000    -0.6370     1.8222     1.8222    -0.0000
 12 H      0.8897     1.0000     0.1103     0.9513     0.9513     0.0000
 13 O      8.5905     8.0000    -0.5905     1.8893     1.8893    -0.0000
 14 H      0.8501     1.0000     0.1499     0.9460     0.9460     0.0000
 15 H      0.8850     1.0000     0.1150     0.9544     0.9544    -0.0000
 16 H      0.8736     1.0000     0.1264     0.9529     0.9529     0.0000
 17 H      0.8431     1.0000     0.1569     0.9425     0.9425     0.0000
 18 H      0.8897     1.0000     0.1103     0.9496     0.9496     0.0000
 19 H      0.8668     1.0000     0.1332     0.9515     0.9515     0.0000
 20 H      0.8872     1.0000     0.1128     0.9508     0.9508    -0.0000
 21 H      0.8847     1.0000     0.1153     0.9523     0.9523     0.0000

  Mayer bond orders larger than 0.100000
B(  0-C ,  1-C ) :   0.9704 B(  0-C ,  2-C ) :   0.9671 B(  0-C , 18-H ) :   0.9770 
B(  0-C , 19-H ) :   0.9637 B(  1-C , 12-H ) :   0.9749 B(  1-C , 20-H ) :   0.9752 
B(  1-C , 21-H ) :   0.9785 B(  2-C ,  5-C ) :   0.9578 B(  2-C ,  7-C ) :   0.9634 
B(  2-C , 14-H ) :   0.9640 B(  3-H , 10-N ) :   0.9093 B(  4-H , 10-N ) :   0.8996 
B(  5-C ,  8-C ) :   0.9070 B(  5-C , 10-N ) :   0.9991 B(  5-C , 17-H ) :   0.9594 
B(  6-H , 11-O ) :   0.8403 B(  7-C ,  9-H ) :   0.9731 B(  7-C , 15-H ) :   0.9685 
B(  7-C , 16-H ) :   0.9742 B(  8-C , 11-O ) :   0.9642 B(  8-C , 13-O ) :   1.8190 


-------
TIMINGS
-------

Total SCF time: 0 days 0 hours 0 min 23 sec 

Total time                  ....      23.755 sec
Sum of individual times     ....      22.722 sec  ( 95.7%)

SCF preparation             ....       0.018 sec  (  0.1%)
Fock matrix formation       ....      22.646 sec  ( 95.3%)
  Startup                   ....       0.001 sec  (  0.0% of F)
  Coulomb+Exchange Fock     ....      23.664 sec  (104.5% of F)
Diagonalization             ....       0.000 sec  (  0.0%)
Density matrix formation    ....       0.005 sec  (  0.0%)
Total Energy calculation    ....       0.001 sec  (  0.0%)
Population analysis         ....       0.003 sec  (  0.0%)
Orbital Transformation      ....       0.006 sec  (  0.0%)
Orbital Orthonormalization  ....       0.000 sec  (  0.0%)
DIIS solution               ....       0.026 sec  (  0.1%)
SOSCF solution              ....       0.017 sec  (  0.1%)
Finished LeanSCF after  23.8 sec

Maximum memory used throughout the entire LEANSCF-calculation: 15.4 MB

------------------------------------------------------------------------------
                                ORCA  MP2 
------------------------------------------------------------------------------

Freezing NCore=18 chemical core electrons
MP2 will be done in the AO integral direct mode
The Q1-step will be done using symmetric double matrices
Dimension of the basis                    ...  191
Memory devoted for MP2                    ... 4096 MB   
Memory needed for all in one shot         ...  722 MB
Number of MOs that can be treated together...  152      
MP2 density construction                  ... relaxed
The MP2 gradient is requested => amplitudes will be stored on disk
Total number of MOs              ...   27
Number of MOs treated per batch  ...   27 
Number of batches necessary      ...    1 
OPERATORS   0/  0 PASS   0
-----------------------------------------------
 MP2 CORRELATION ENERGY   :     -1.370686403 Eh
-----------------------------------------------


---------------------
MP2 DENSITY FORMATION
---------------------

Completing the external part of the density      ... done
Storing the unrelaxed density                    ... done

Calculating G(D)                                 ... done
Completing the Lagrangian                        ... done
Solving the Z-vector equations                   ... 
-------------------
SHARK CP-SCF DRIVER
-------------------

Dimension of the orbital basis          ...    191
Dimension of the CPSCF-problem          ...   5580
Number of operators                     ...      1
Max. number of iterations               ...    128
Convergence Tolerance                   ... 1.0e-04
Number of perturbations                 ...      1
Perturbation type                       ... REAL

----------------------------
POPLE LINEAR EQUATION SOLVER
----------------------------

  ITERATION   0:   ||err||_max =   1.2785e-01 (   2.7 sec)
  ITERATION   1:   ||err||_max =   3.2956e-02 (   2.7 sec)
  ITERATION   2:   ||err||_max =   1.4190e-02 (   2.8 sec)
  ITERATION   3:   ||err||_max =   3.4524e-03 (   2.7 sec)
  ITERATION   4:   ||err||_max =   1.2582e-03 (   2.8 sec)
  ITERATION   5:   ||err||_max =   3.1959e-04 (   2.8 sec)
  ITERATION   6:   ||err||_max =   9.7617e-05 (   2.8 sec)
                                                 ... done
Finalizing the relaxed density                   ... done
Transforming P to the AO basis                   ... done
Storing the relaxed density                      ... done

------------------------------------
ENERGY WEIGHTED DENSITY FINALIZATION
------------------------------------

Gathering the parts of the W-matrix              ...                                                      done
Forming the Z-density                            ... done
Transforming Z to the AO basis                   ... done
Calculating G(Z)                                 ... done
Finalizing the W-matrix                          ...                                                      done
Transforming W to the AO basis and storing       ... done

                *********************************************
                * UNRELAXED MP2 DENSITY POPULATION ANALYSIS *
                *********************************************

------------------------------------------------------------------------------
                           ORCA POPULATION ANALYSIS
------------------------------------------------------------------------------
Input electron density              ... 5.pmp2ur
BaseName (.gbw .S,...)              ... 5

                    ********************************
                    * MULLIKEN POPULATION ANALYSIS *
                    ********************************

-----------------------
MULLIKEN ATOMIC CHARGES
-----------------------
   0 C :   -0.214859
   1 C :   -0.338591
   2 C :   -0.134542
   3 H :    0.273111
   4 H :    0.277667
   5 C :   -0.037735
   6 H :    0.367742
   7 C :   -0.350842
   8 C :    0.759255
   9 H :    0.122531
  10 N :   -0.670396
  11 O :   -0.622965
  12 H :    0.111261
  13 O :   -0.567337
  14 H :    0.150298
  15 H :    0.115800
  16 H :    0.127244
  17 H :    0.157504
  18 H :    0.111250
  19 H :    0.133651
  20 H :    0.113701
  21 H :    0.116252
Sum of atomic charges:    0.0000000

--------------------------------
MULLIKEN REDUCED ORBITAL CHARGES
--------------------------------
  0 C s       :     3.232675  s :     3.232675
      pz      :     1.040548  p :     2.916838
      px      :     0.895597
      py      :     0.980693
      dz2     :     0.013499  d :     0.065345
      dxz     :     0.008518
      dyz     :     0.015597
      dx2y2   :     0.012400
      dxy     :     0.015331
  1 C s       :     3.250302  s :     3.250302
      pz      :     1.044545  p :     3.030470
      px      :     0.962264
      py      :     1.023661
      dz2     :     0.011662  d :     0.057819
      dxz     :     0.009086
      dyz     :     0.013037
      dx2y2   :     0.010438
      dxy     :     0.013596
  2 C s       :     3.232115  s :     3.232115
      pz      :     0.966997  p :     2.831337
      px      :     0.872010
      py      :     0.992330
      dz2     :     0.015531  d :     0.071090
      dxz     :     0.009606
      dyz     :     0.017551
      dx2y2   :     0.011984
      dxy     :     0.016418
  3 H s       :     0.698845  s :     0.698845
      pz      :     0.007483  p :     0.028045
      px      :     0.013267
      py      :     0.007294
  4 H s       :     0.694185  s :     0.694185
      pz      :     0.013213  p :     0.028149
      px      :     0.004753
      py      :     0.010183
  5 C s       :     3.198022  s :     3.198022
      pz      :     0.952845  p :     2.754444
      px      :     0.888710
      py      :     0.912889
      dz2     :     0.013801  d :     0.085270
      dxz     :     0.010143
      dyz     :     0.025379
      dx2y2   :     0.015507
      dxy     :     0.020441
  6 H s       :     0.589618  s :     0.589618
      pz      :     0.020198  p :     0.042641
      px      :     0.008996
      py      :     0.013447
  7 C s       :     3.251267  s :     3.251267
      pz      :     0.937763  p :     3.041716
      px      :     1.066133
      py      :     1.037819
      dz2     :     0.013087  d :     0.057859
      dxz     :     0.007998
      dyz     :     0.014513
      dx2y2   :     0.007201
      dxy     :     0.015060
  8 C s       :     2.955316  s :     2.955316
      pz      :     0.795910  p :     2.129095
      px      :     0.661993
      py      :     0.671192
      dz2     :     0.035938  d :     0.156334
      dxz     :     0.023339
      dyz     :     0.030882
      dx2y2   :     0.029769
      dxy     :     0.036406
  9 H s       :     0.861999  s :     0.861999
      pz      :     0.003744  p :     0.015470
      px      :     0.007465
      py      :     0.004261
 10 N s       :     3.598642  s :     3.598642
      pz      :     1.548974  p :     4.014970
      px      :     1.139278
      py      :     1.326719
      dz2     :     0.013350  d :     0.056784
      dxz     :     0.006773
      dyz     :     0.011353
      dx2y2   :     0.008536
      dxy     :     0.016772
 11 O s       :     3.834207  s :     3.834207
      pz      :     1.608126  p :     4.740341
      px      :     1.717362
      py      :     1.414853
      dz2     :     0.010173  d :     0.048416
      dxz     :     0.007659
      dyz     :     0.009783
      dx2y2   :     0.008556
      dxy     :     0.012245
 12 H s       :     0.873343  s :     0.873343
      pz      :     0.005033  p :     0.015396
      px      :     0.002864
      py      :     0.007500
 13 O s       :     3.869985  s :     3.869985
      pz      :     1.486455  p :     4.643001
      px      :     1.433398
      py      :     1.723148
      dz2     :     0.012871  d :     0.054351
      dxz     :     0.012584
      dyz     :     0.009776
      dx2y2   :     0.010619
      dxy     :     0.008501
 14 H s       :     0.834557  s :     0.834557
      pz      :     0.005483  p :     0.015144
      px      :     0.002596
      py      :     0.007066
 15 H s       :     0.868773  s :     0.868773
      pz      :     0.005694  p :     0.015427
      px      :     0.003213
      py      :     0.006520
 16 H s       :     0.857194  s :     0.857194
      pz      :     0.002921  p :     0.015563
      px      :     0.006711
      py      :     0.005930
 17 H s       :     0.827620  s :     0.827620
      pz      :     0.007535  p :     0.014876
      px      :     0.002384
      py      :     0.004957
 18 H s       :     0.873491  s :     0.873491
      pz      :     0.008619  p :     0.015259
      px      :     0.002966
      py      :     0.003675
 19 H s       :     0.850769  s :     0.850769
      pz      :     0.005387  p :     0.015579
      px      :     0.002842
      py      :     0.007351
 20 H s       :     0.870762  s :     0.870762
      pz      :     0.008650  p :     0.015536
      px      :     0.003489
      py      :     0.003398
 21 H s       :     0.868298  s :     0.868298
      pz      :     0.003897  p :     0.015450
      px      :     0.006325
      py      :     0.005228


                     *******************************
                     * LOEWDIN POPULATION ANALYSIS *
                     *******************************

----------------------
LOEWDIN ATOMIC CHARGES
----------------------
   0 C :   -0.116048
   1 C :   -0.184162
   2 C :   -0.059235
   3 H :    0.129886
   4 H :    0.130301
   5 C :   -0.028195
   6 H :    0.198166
   7 C :   -0.183821
   8 C :    0.204356
   9 H :    0.066246
  10 N :   -0.269754
  11 O :   -0.199364
  12 H :    0.062011
  13 O :   -0.293501
  14 H :    0.074472
  15 H :    0.064283
  16 H :    0.070041
  17 H :    0.080095
  18 H :    0.059596
  19 H :    0.066666
  20 H :    0.062263
  21 H :    0.065700

-------------------------------
LOEWDIN REDUCED ORBITAL CHARGES
-------------------------------
  0 C s       :     2.888824  s :     2.888824
      pz      :     1.063044  p :     3.115374
      px      :     1.006294
      py      :     1.046036
      dz2     :     0.022412  d :     0.111850
      dxz     :     0.013963
      dyz     :     0.024990
      dx2y2   :     0.021724
      dxy     :     0.028761
  1 C s       :     2.904382  s :     2.904382
      pz      :     1.078548  p :     3.187039
      px      :     1.039211
      py      :     1.069280
      dz2     :     0.018108  d :     0.092741
      dxz     :     0.014167
      dyz     :     0.020136
      dx2y2   :     0.017243
      dxy     :     0.023087
  2 C s       :     2.878537  s :     2.878537
      pz      :     1.033983  p :     3.054093
      px      :     0.984916
      py      :     1.035194
      dz2     :     0.028656  d :     0.126605
      dxz     :     0.016310
      dyz     :     0.030199
      dx2y2   :     0.020731
      dxy     :     0.030709
  3 H s       :     0.785005  s :     0.785005
      pz      :     0.021808  p :     0.085109
      px      :     0.040533
      py      :     0.022768
  4 H s       :     0.783949  s :     0.783949
      pz      :     0.042176  p :     0.085750
      px      :     0.013237
      py      :     0.030337
  5 C s       :     2.872299  s :     2.872299
      pz      :     1.018411  p :     2.998488
      px      :     0.986953
      py      :     0.993123
      dz2     :     0.024947  d :     0.157409
      dxz     :     0.017052
      dyz     :     0.048173
      dx2y2   :     0.028020
      dxy     :     0.039217
  6 H s       :     0.679112  s :     0.679112
      pz      :     0.058083  p :     0.122722
      px      :     0.027322
      py      :     0.037317
  7 C s       :     2.904153  s :     2.904153
      pz      :     1.031022  p :     3.186622
      px      :     1.080607
      py      :     1.074993
      dz2     :     0.022722  d :     0.093046
      dxz     :     0.012713
      dyz     :     0.024655
      dx2y2   :     0.009589
      dxy     :     0.023367
  8 C s       :     2.851196  s :     2.851196
      pz      :     0.945104  p :     2.616421
      px      :     0.825507
      py      :     0.845809
      dz2     :     0.073387  d :     0.328028
      dxz     :     0.051078
      dyz     :     0.061922
      dx2y2   :     0.059684
      dxy     :     0.081957
  9 H s       :     0.888814  s :     0.888814
      pz      :     0.010280  p :     0.044939
      px      :     0.022139
      py      :     0.012521
 10 N s       :     3.184956  s :     3.184956
      pz      :     1.513373  p :     3.999229
      px      :     1.159713
      py      :     1.326144
      dz2     :     0.017050  d :     0.085569
      dxz     :     0.009228
      dyz     :     0.016891
      dx2y2   :     0.015211
      dxy     :     0.027189
 11 O s       :     3.456808  s :     3.456808
      pz      :     1.571922  p :     4.669966
      px      :     1.691573
      py      :     1.406471
      dz2     :     0.013758  d :     0.072590
      dxz     :     0.008758
      dyz     :     0.017178
      dx2y2   :     0.013145
      dxy     :     0.019750
 12 H s       :     0.893877  s :     0.893877
      pz      :     0.014431  p :     0.044113
      px      :     0.007833
      py      :     0.021848
 13 O s       :     3.544605  s :     3.544605
      pz      :     1.521348  p :     4.667491
      px      :     1.460433
      py      :     1.685710
      dz2     :     0.016820  d :     0.081405
      dxz     :     0.025756
      dyz     :     0.012606
      dx2y2   :     0.014015
      dxy     :     0.012208
 14 H s       :     0.880457  s :     0.880457
      pz      :     0.016204  p :     0.045071
      px      :     0.007616
      py      :     0.021251
 15 H s       :     0.891041  s :     0.891041
      pz      :     0.016463  p :     0.044676
      px      :     0.009085
      py      :     0.019129
 16 H s       :     0.884930  s :     0.884930
      pz      :     0.007969  p :     0.045029
      px      :     0.019746
      py      :     0.017314
 17 H s       :     0.875369  s :     0.875369
      pz      :     0.022704  p :     0.044536
      px      :     0.007714
      py      :     0.014118
 18 H s       :     0.896557  s :     0.896557
      pz      :     0.024921  p :     0.043847
      px      :     0.008343
      py      :     0.010583
 19 H s       :     0.887794  s :     0.887794
      pz      :     0.015721  p :     0.045540
      px      :     0.008206
      py      :     0.021612
 20 H s       :     0.893138  s :     0.893138
      pz      :     0.025435  p :     0.044598
      px      :     0.009748
      py      :     0.009416
 21 H s       :     0.890167  s :     0.890167
      pz      :     0.010901  p :     0.044134
      px      :     0.018273
      py      :     0.014959


                      *****************************
                      * MAYER POPULATION ANALYSIS *
                      *****************************

  NA   - Mulliken gross atomic population
  ZA   - Total nuclear charge
  QA   - Mulliken gross atomic charge
  VA   - Mayer's total valence
  BVA  - Mayer's bonded valence
  FA   - Mayer's free valence

  ATOM       NA         ZA         QA         VA         BVA        FA
  0 C      6.2149     6.0000    -0.2149     3.8773     3.6097     0.2677
  1 C      6.3386     6.0000    -0.3386     3.9433     3.6939     0.2494
  2 C      6.1345     6.0000    -0.1345     3.8272     3.5394     0.2878
  3 H      0.7269     1.0000     0.2731     0.9133     0.8673     0.0460
  4 H      0.7223     1.0000     0.2777     0.9136     0.8676     0.0461
  5 C      6.0377     6.0000    -0.0377     3.8258     3.5439     0.2820
  6 H      0.6323     1.0000     0.3677     0.8802     0.8356     0.0446
  7 C      6.3508     6.0000    -0.3508     3.9274     3.6724     0.2550
  8 C      5.2407     6.0000     0.7593     3.7310     3.4391     0.2919
  9 H      0.8775     1.0000     0.1225     0.9621     0.9144     0.0477
 10 N      7.6704     7.0000    -0.6704     2.9711     2.6447     0.3264
 11 O      8.6230     8.0000    -0.6230     2.0818     1.7245     0.3573
 12 H      0.8887     1.0000     0.1113     0.9607     0.9139     0.0468
 13 O      8.5673     8.0000    -0.5673     2.1550     1.7566     0.3984
 14 H      0.8497     1.0000     0.1503     0.9552     0.9050     0.0502
 15 H      0.8842     1.0000     0.1158     0.9640     0.9161     0.0479
 16 H      0.8728     1.0000     0.1272     0.9618     0.9148     0.0470
 17 H      0.8425     1.0000     0.1575     0.9511     0.9021     0.0490
 18 H      0.8887     1.0000     0.1113     0.9593     0.9100     0.0494
 19 H      0.8663     1.0000     0.1337     0.9608     0.9122     0.0487
 20 H      0.8863     1.0000     0.1137     0.9601     0.9135     0.0467
 21 H      0.8837     1.0000     0.1163     0.9615     0.9148     0.0466

  Mayer bond orders larger than 0.100000
B(  0-C ,  1-C ) :   0.9185 B(  0-C ,  2-C ) :   0.9124 B(  0-C , 18-H ) :   0.9385 
B(  0-C , 19-H ) :   0.9257 B(  1-C , 12-H ) :   0.9382 B(  1-C , 20-H ) :   0.9385 
B(  1-C , 21-H ) :   0.9419 B(  2-C ,  5-C ) :   0.9019 B(  2-C ,  7-C ) :   0.9099 
B(  2-C , 14-H ) :   0.9248 B(  3-H , 10-N ) :   0.8722 B(  4-H , 10-N ) :   0.8625 
B(  5-C ,  8-C ) :   0.8572 B(  5-C , 10-N ) :   0.9418 B(  5-C , 17-H ) :   0.9215 
B(  6-H , 11-O ) :   0.8052 B(  7-C ,  9-H ) :   0.9357 B(  7-C , 15-H ) :   0.9311 
B(  7-C , 16-H ) :   0.9372 B(  8-C , 11-O ) :   0.9108 B(  8-C , 13-O ) :   1.6998 



                *******************************************
                * RELAXED MP2 DENSITY POPULATION ANALYSIS *
                *******************************************

------------------------------------------------------------------------------
                           ORCA POPULATION ANALYSIS
------------------------------------------------------------------------------
Input electron density              ... 5.pmp2re
BaseName (.gbw .S,...)              ... 5

                    ********************************
                    * MULLIKEN POPULATION ANALYSIS *
                    ********************************

-----------------------
MULLIKEN ATOMIC CHARGES
-----------------------
   0 C :   -0.203830
   1 C :   -0.336025
   2 C :   -0.096912
   3 H :    0.258132
[...]
   5 C :   -0.046226
   6 H :    0.187125
   7 C :   -0.198591
   8 C :    0.144183
   9 H :    0.073827
  10 N :   -0.259903
  11 O :   -0.172327
  12 H :    0.067064
  13 O :   -0.231674
  14 H :    0.074463
  15 H :    0.069969
  16 H :    0.070664
  17 H :    0.079825
  18 H :    0.066551
  19 H :    0.062968
  20 H :    0.066414
  21 H :    0.069732

-------------------------------
LOEWDIN REDUCED ORBITAL CHARGES
-------------------------------
  0 C s       :     2.890279  s :     2.890279
      pz      :     1.073272  p :     3.129847
      px      :     1.013068
      py      :     1.043507
      dz2     :     0.016978  d :     0.105014
      dxz     :     0.012501
      dyz     :     0.029125
      dx2y2   :     0.019046
      dxy     :     0.027364
  1 C s       :     2.906048  s :     2.906048
      pz      :     1.085348  p :     3.202484
      px      :     1.040598
      py      :     1.076539
      dz2     :     0.014882  d :     0.086815
      dxz     :     0.010974
      dyz     :     0.024031
      dx2y2   :     0.012872
      dxy     :     0.024056
  2 C s       :     2.880538  s :     2.880538
      pz      :     1.046732  p :     3.060577
      px      :     0.986572
      py      :     1.027274
      dz2     :     0.024974  d :     0.121149
      dxz     :     0.014066
      dyz     :     0.032169
      dx2y2   :     0.019737
      dxy     :     0.030203
  3 H s       :     0.787709  s :     0.787709
      pz      :     0.020736  p :     0.083791
      px      :     0.037361
      py      :     0.025694
  4 H s       :     0.784478  s :     0.784478
      pz      :     0.048045  p :     0.085335
      px      :     0.014177
      py      :     0.023112
  5 C s       :     2.876168  s :     2.876168
      pz      :     1.041578  p :     3.019867
      px      :     0.987733
      py      :     0.990557
      dz2     :     0.025132  d :     0.150191
      dxz     :     0.015121
      dyz     :     0.038997
      dx2y2   :     0.033676
      dxy     :     0.037265
  6 H s       :     0.692766  s :     0.692766
      pz      :     0.053647  p :     0.120109
      px      :     0.027404
      py      :     0.039059
  7 C s       :     2.905278  s :     2.905278
      pz      :     1.043459  p :     3.206615
      px      :     1.088370
      py      :     1.074786
      dz2     :     0.022335  d :     0.086698
      dxz     :     0.007432
      dyz     :     0.024734
      dx2y2   :     0.008836
      dxy     :     0.023361
  8 C s       :     2.863534  s :     2.863534
      pz      :     0.989843  p :     2.688185
      px      :     0.796831
      py      :     0.901511
      dz2     :     0.070865  d :     0.304099
      dxz     :     0.044135
      dyz     :     0.102360
      dx2y2   :     0.038853
      dxy     :     0.047885
  9 H s       :     0.881288  s :     0.881288
      pz      :     0.008213  p :     0.044886
      px      :     0.019165
      py      :     0.017508
 10 N s       :     3.201385  s :     3.201385
      pz      :     1.314352  p :     3.975536
      px      :     1.156982
      py      :     1.504202
      dz2     :     0.023814  d :     0.082982
      dxz     :     0.011487
      dyz     :     0.008830
      dx2y2   :     0.013786
      dxy     :     0.025066
 11 O s       :     3.483402  s :     3.483402
      pz      :     1.583109  p :     4.616513
      px      :     1.717724
      py      :     1.315680
      dz2     :     0.012262  d :     0.072411
      dxz     :     0.007753
      dyz     :     0.024046
      dx2y2   :     0.014626
      dxy     :     0.013725
 12 H s       :     0.889305  s :     0.889305
      pz      :     0.020193  p :     0.043631
      px      :     0.007879
      py      :     0.015559
 13 O s       :     3.562157  s :     3.562157
      pz      :     1.456167  p :     4.590824
      px      :     1.408104
      py      :     1.726553
      dz2     :     0.025993  d :     0.078692
      dxz     :     0.021817
      dyz     :     0.016180
      dx2y2   :     0.007441
      dxy     :     0.007261
 14 H s       :     0.881042  s :     0.881042
      pz      :     0.018956  p :     0.044495
      px      :     0.007890
      py      :     0.017650
 15 H s       :     0.885271  s :     0.885271
      pz      :     0.020779  p :     0.044760
      px      :     0.008383
      py      :     0.015599
 16 H s       :     0.884684  s :     0.884684
      pz      :     0.008282  p :     0.044652
      px      :     0.023059
      py      :     0.013311
 17 H s       :     0.875398  s :     0.875398
      pz      :     0.025618  p :     0.044778
      px      :     0.008020
      py      :     0.011140
 18 H s       :     0.889512  s :     0.889512
      pz      :     0.019907  p :     0.043937
      px      :     0.008808
      py      :     0.015222
 19 H s       :     0.892788  s :     0.892788
      pz      :     0.020144  p :     0.044244
      px      :     0.008449
      py      :     0.015651
 20 H s       :     0.889385  s :     0.889385
      pz      :     0.020387  p :     0.044201
      px      :     0.009804
      py      :     0.014010
 21 H s       :     0.886520  s :     0.886520
      pz      :     0.008772  p :     0.043748
      px      :     0.018423
      py      :     0.016552


                      *****************************
                      * MAYER POPULATION ANALYSIS *
                      *****************************

  NA   - Mulliken gross atomic population
  ZA   - Total nuclear charge
  QA   - Mulliken gross atomic charge
  VA   - Mayer's total valence
  BVA  - Mayer's bonded valence
  FA   - Mayer's free valence

  ATOM       NA         ZA         QA         VA         BVA        FA
  0 C      6.2012     6.0000    -0.2012     3.9294     3.6633     0.2661
  1 C      6.3337     6.0000    -0.3337     3.9684     3.7204     0.2480
  2 C      6.0864     6.0000    -0.0864     3.9145     3.6319     0.2825
  3 H      0.7440     1.0000     0.2560     0.9174     0.8709     0.0465
  4 H      0.7332     1.0000     0.2668     0.9253     0.8795     0.0458
  5 C      6.0574     6.0000    -0.0574     3.8997     3.6219     0.2778
  6 H      0.6603     1.0000     0.3397     0.9046     0.8604     0.0442
  7 C      6.3472     6.0000    -0.3472     3.9539     3.7011     0.2529
  8 C      5.4296     6.0000     0.5704     3.9269     3.6472     0.2797
  9 H      0.8770     1.0000     0.1230     0.9648     0.9178     0.0471
 10 N      7.6104     7.0000    -0.6104     3.0321     2.7077     0.3244
 11 O      8.5215     8.0000    -0.5215     2.2101     1.8567     0.3534
 12 H      0.8896     1.0000     0.1104     0.9635     0.9167     0.0468
 13 O      8.4455     8.0000    -0.4455     2.3072     1.9164     0.3907
 14 H      0.8741     1.0000     0.1259     0.9593     0.9086     0.0507
 15 H      0.8817     1.0000     0.1183     0.9704     0.9228     0.0476
 16 H      0.8858     1.0000     0.1142     0.9651     0.9175     0.0476
 17 H      0.8605     1.0000     0.1395     0.9559     0.9075     0.0484
 18 H      0.8889     1.0000     0.1111     0.9614     0.9121     0.0494
 19 H      0.8952     1.0000     0.1048     0.9670     0.9174     0.0496
 20 H      0.8888     1.0000     0.1112     0.9635     0.9167     0.0468
 21 H      0.8881     1.0000     0.1119     0.9629     0.9161     0.0468

  Mayer bond orders larger than 0.100000
B(  0-C ,  1-C ) :   0.9369 B(  0-C ,  2-C ) :   0.9266 B(  0-C , 18-H ) :   0.9265 
B(  0-C , 19-H ) :   0.9210 B(  1-C , 12-H ) :   0.9353 B(  1-C , 20-H ) :   0.9342 
B(  1-C , 21-H ) :   0.9360 B(  2-C ,  5-C ) :   0.9127 B(  2-C ,  7-C ) :   0.9372 
B(  2-C , 14-H ) :   0.9125 B(  3-H , 10-N ) :   0.8735 B(  4-H , 10-N ) :   0.8572 
B(  5-C ,  8-C ) :   0.8624 B(  5-C , 10-N ) :   0.9689 B(  5-C , 17-H ) :   0.9100 
B(  6-H , 11-O ) :   0.8125 B(  7-C ,  9-H ) :   0.9285 B(  7-C , 15-H ) :   0.9240 
B(  7-C , 16-H ) :   0.9301 B(  8-C , 11-O ) :   0.9865 B(  8-C , 13-O ) :   1.7845 



----------------------------------
MP2 DERIVATIVE INTEGRAL GENERATION
----------------------------------

Input SCF Electron Density              ... 5.scfp
Input Correlated Electron Density       ... 5.pmp2re
Input Energy Weighted Density           ... 5.wmp2.tmp
Input Wavefunction Amplitudes           ... 5.mp2tsaa.tmp

Nuclear repulsion gradient              ... done (  0.0 sec)
HCore & Overlap gradient  (SHARK)       ... done (  0.1 sec)
Analytic two-electron gradient terms    ... 
  Batch handling in the gradient evaluation:
  General contraction                   ... not used
  Memory available                      ... 4081.4 MB
  Memory per occupied orbital in Q2     ...    7.5 MB
  Memory per occupied orbital in Q3     ...    0.0 MB
  Total memory requirement per |i>      ...    7.6 MB
  Number of orbitals treated per batch  ...     27
  Number of batches to be done          ...      1
done ( 21.8 sec)

---------------------------------------
MP2 TOTAL ENERGY:     -440.364417000 Eh
---------------------------------------

The final MP2 gradient
  0:  -0.00002392  -0.00000496  -0.00002552
  1:   0.00003832   0.00000455  -0.00000636
  2:   0.00004807   0.00002666   0.00004536
  3:   0.00000813   0.00000414  -0.00001141
  4:   0.00001679   0.00000117   0.00000623
  5:  -0.00002863   0.00006153   0.00002089
  6:   0.00000486   0.00001288  -0.00000225
  7:  -0.00000445   0.00001281  -0.00002209
  8:   0.00003794   0.00011092  -0.00008317
  9:  -0.00000015  -0.00000094   0.00001138
 10:  -0.00003385  -0.00003165  -0.00000711
 11:  -0.00001461  -0.00008393   0.00003253
 12:  -0.00001135   0.00001152  -0.00000413
 13:  -0.00001091  -0.00005022   0.00003782
 14:  -0.00001641  -0.00001145  -0.00000200
 15:   0.00000140  -0.00000669   0.00000663
 16:  -0.00000000  -0.00000039   0.00000025
 17:   0.00000197  -0.00003185  -0.00001373
 18:   0.00001645  -0.00000712  -0.00000483
 19:  -0.00001286  -0.00001202   0.00001882
 20:  -0.00001362  -0.00000262   0.00000070
 21:  -0.00000317  -0.00000236   0.00000200

-----------------------------------
NORM OF THE MP2 GRADIENT:  0.000230
-----------------------------------

Maximum memory used throughout the entire MP2-calculation: 780.4 MB

-------------------------   --------------------
FINAL SINGLE POINT ENERGY      -440.364417000136
-------------------------   --------------------

                                *** OPTIMIZATION RUN DONE ***


------------------------------------------------------------------------------
                              ORCA PROPERTY CALCULATIONS
------------------------------------------------------------------------------

GBWName                                 ... 5.gbw
Number of atoms                         ...     22
Number of basis functions               ...    191
Max core memory                         ...   4096 MB

Electric properties:
Dipole moment                           ... YES
Quadrupole moment                       ...  NO
Static polarizability (Dipole/Dipole)   ...  NO
Static polarizability (Dipole/Quad.)    ...  NO
Static polarizability (Quad./Quad.)     ...  NO
Static polarizability (Velocity)        ...  NO
Static hyperpolarizability              ...  NO

Atomic electric properties:
Dipole moment                           ...  NO
Quadrupole moment                       ...  NO
Static polarizability                   ...  NO

Choice of electric origin               ... Center of mass
Position of electric origin             ...   -14.378645     7.797420    -0.601035

General magnetic properties:
Magnetizability                         ...  NO

EPR properties:
g-Tensor (aka g-matrix)                 ...  NO
Zero-Field splitting spin-orbit         ...  NO
Zero-field splitting spin-spin          ...  NO
Hyperfine couplings                     ...  NO (   0 nuclei)
Quadrupole couplings                    ...  NO (   0 nuclei)
Contact density                         ...  NO (   0 nuclei)

NMR properties:
Chemical shifts                         ...  NO (   0 nuclei)
Spin-rotation constants                 ...  NO (   0 nuclei)
Spin-spin couplings                     ...  NO (   0 nuclei,    0 pairs)

Choice of magnetic origin               ... GIAO
Position of magnetic origin             ...     0.000000     0.000000     0.000000

Properties with geometric perturbations:
SCF Hessian                             ...  NO
IR spectrum                             ...  NO
VCD spectrum                            ...  NO
X-ray spectroscopy properties:
SCF XES/XAS/RIXS spectra                ...  NO

SCF SOC stabilization energy            ...  NO
Diagonal Born-Oppenheimer correction    ...  NO

-------------
DIPOLE MOMENT
-------------

Method             : SCF
Type of density    : Electron Density
Multiplicity       :   1
Irrep              :   0
Energy             :  -438.9890405407454068 Eh
Basis              : AO
                                X                 Y                 Z
Electronic contribution:      8.794966714      -6.646626476      -2.480331621
Nuclear contribution   :     -8.986612987       6.123233278       2.787035948
                        -----------------------------------------
Total Dipole Moment    :     -0.191646273      -0.523393198       0.306704328
                        -----------------------------------------
Magnitude (a.u.)       :      0.636188870
Magnitude (Debye)      :      1.617063599



--------------------
Rotational spectrum 
--------------------
 
Rotational constants in cm-1:             0.072124             0.038658             0.031921 
Rotational constants in MHz :          2162.234355          1158.950432           956.980384 

Dipole components along the rotational axes: 
x,y,z [a.u.] :    -0.082044    -0.557767    -0.294789 
x,y,z [Debye]:    -0.208540    -1.417732    -0.749295 

 

-------------
DIPOLE MOMENT
-------------

Method             : MP2
Type of density    : Electron Density
Multiplicity       :   1
Level              : Unrelaxed density
Irrep              :   0
Energy             :     0.0000000000000000 Eh
Basis              : AO
                                X                 Y                 Z
Electronic contribution:      8.809409328      -6.645377429      -2.511654991
Nuclear contribution   :     -8.986612987       6.123233278       2.787035948
                        -----------------------------------------
Total Dipole Moment    :     -0.177203659      -0.522144152       0.275380958
                        -----------------------------------------
Magnitude (a.u.)       :      0.616336210
Magnitude (Debye)      :      1.566602146



--------------------
Rotational spectrum 
--------------------
 
Rotational constants in cm-1:             0.072124             0.038658             0.031921 
Rotational constants in MHz :          2162.234355          1158.950432           956.980384 

Dipole components along the rotational axes: 
x,y,z [a.u.] :    -0.060935    -0.551570    -0.268195 
x,y,z [Debye]:    -0.154884    -1.401978    -0.681696 

 

-------------
DIPOLE MOMENT
-------------

Method             : MP2
Type of density    : Electron Density
Multiplicity       :   1
Level              : Relaxed density
Irrep              :   0
Energy             :     0.0000000000000000 Eh
Basis              : AO
                                X                 Y                 Z
Electronic contribution:      8.877767667      -6.671087509      -2.629397059
Nuclear contribution   :     -8.986612987       6.123233278       2.787035948
                        -----------------------------------------
Total Dipole Moment    :     -0.108845320      -0.547854231       0.157638890
                        -----------------------------------------
Magnitude (a.u.)       :      0.580380549
Magnitude (Debye)      :      1.475210119



--------------------
Rotational spectrum 
--------------------
 
Rotational constants in cm-1:             0.072124             0.038658             0.031921 
Rotational constants in MHz :          2162.234355          1158.950432           956.980384 

Dipole components along the rotational axes: 
x,y,z [a.u.] :     0.041238    -0.551953    -0.174612 
x,y,z [Debye]:     0.104818    -1.402952    -0.443829 

 

Dipole moment calculation done in   0.0 sec 

Maximum memory used throughout the entire PROP-calculation: 10.8 MB

--------------------------------
SUGGESTED CITATIONS FOR THIS RUN
--------------------------------

Below you find a list of papers that are relevant to this ORCA run
We neither can nor want to force you to cite these papers, but we appreciate if you do
You receive ORCA, which is the product of decades of hard work by many enthusiastic individuals, for free
The only thing we kindly ask in return is that you cite our papers,
We deeply appreciate it, if you show your appreciation for ORCA by not just citing the generic ORCA reference.

Please note that relegating all ORCA citations to the supporting information does *not* help us.
SI sections are not indexed - citations you put there will not count into any citation statistics
But we need these citations in order to attract the funding resources that allow us to do what we are doing

Therefore, if you are a happy ORCA user, please consider citing a few of the papers listed below in the main body of your paper

In addition to the list printed below, the program has created the file 5.bibtex that contains the list in bibtex format
You can import this file easily into all common literature databanks and citation aid programs


List of essential papers. We consider these as the minimum necessary citations

  1. Neese, F.
     Software update: the ORCA program system, version 6.0
     WIRES Comput. Molec. Sci. 2025 15(1), e70019
     doi.org/10.1002/wcms.7019

List of papers to cite with high priority. The work reported in these papers was absolutely
necessary for this run to complete.
Our perspective: the developers of density functionals and basis sets usually get cited in chemistry papers
Good! But without the algorithms to do something with them, the functionals or basis sets would not do anything.
Hence, in our opinion, the algorithm design and method developments papers are equally worthy of getting cited

  1. Neese, F.
     The SHARK Integral Generation and Digestion System
     J. Comp. Chem. 2022 44(3), 381
     doi.org/10.1002/jcc.26942

List of suggested additional citations. These are papers that are important in the 'surrounding' of 
of this run, or papers that preceded the highly important papers. If you like your results we are grateful for a citation.

  1. Neese, F.
     The ORCA program system
     WIRES Comput. Molec. Sci. 2012 2(1), 73-78
     doi.org/10.1002/wcms.81
  2. Neese, F.
     Software update: the ORCA program system, version 4.0
     WIRES Comput. Molec. Sci. 2018 8(1), 1-6
     doi.org/10.1002/wcms.1327
  3. Neese, F.; Wennmohs, F.; Becker, U.; Riplinger, C.
     The ORCA quantum chemistry program package
     J. Chem. Phys. 2020 152(22), 224108
     doi.org/10.1063/5.0004608
  4. Neese, F.
     Software update: The ORCA program system—Version 5.0
     WIRES Comput. Molec. Sci. 2022 12(1), e1606
     doi.org/10.1002/wcms.1606

List of optional additional citations

  1. Neese, F.
     Approximate second-order SCF convergence for spin unrestricted wavefunctions
     Chem. Phys. Lett. 2000 325(1-3), 93-98
     doi.org/10.1016/s0009-2614(00)00662-x

Timings for individual modules:

Sum of individual times          ...     1354.472 sec (=  22.575 min)
Startup calculation              ...        7.266 sec (=   0.121 min)   0.5 %
SCF iterations                   ...      279.760 sec (=   4.663 min)  20.7 %
Property calculations            ...        0.049 sec (=   0.001 min)   0.0 %
MP2 module                       ...     1067.370 sec (=  17.789 min)  78.8 %
Geometry relaxation              ...        0.027 sec (=   0.000 min)   0.0 %
                             ****ORCA TERMINATED NORMALLY****
TOTAL RUN TIME: 0 days 0 hours 22 minutes 34 seconds 811 msec
