
                                 *****************
                                 * O   R   C   A *
                                 *****************

                                            #,                                       
                                            ###                                      
                                            ####                                     
                                            #####                                    
                                            ######                                   
                                           ########,                                 
                                     ,,################,,,,,                         
                               ,,#################################,,                 
                          ,,##########################################,,             
                       ,#########################################, ''#####,          
                    ,#############################################,,   '####,        
                  ,##################################################,,,,####,       
                ,###########''''           ''''###############################       
              ,#####''   ,,,,##########,,,,          '''####'''          '####       
            ,##' ,,,,###########################,,,                        '##       
           ' ,,###''''                  '''############,,,                           
         ,,##''                                '''############,,,,        ,,,,,,###''
      ,#''                                            '''#######################'''  
     '                                                          ''''####''''         
             ,#######,   #######,   ,#######,      ##                                
            ,#'     '#,  ##    ##  ,#'     '#,    #''#        ,####,    ,#,          
            ##       ##  ##   ,#'  ##            #'  '#       #'       ,# #          
            ##       ##  #######   ##           ,######,      #####,      #          
            '#,     ,#'  ##    ##  '#,     ,#' ,#      #,     #,   #      #          
             '#######'   ##     ##  '#######'  #'      '#     '####' #    #          



                #########################################################
                #                        -***-                          #
                #          Department of theory and spectroscopy        #
                #                                                       #
                #                      Frank Neese                      #
                #                                                       #
                #     Directorship, Architecture, Infrastructure        #
                #                    SHARK, DRIVERS                     #
                #        Core code/Algorithms in most modules           #
                #                                                       #
                #        Max Planck Institute fuer Kohlenforschung      #
                #                Kaiser Wilhelm Platz 1                 #
                #                 D-45470 Muelheim/Ruhr                 #
                #                      Germany                          #
                #                                                       #
                #                  All rights reserved                  #
                #                        -***-                          #
                #########################################################


                         Program Version 6.1.0  -  RELEASE   -
                                (GIT: $679e74b$)
                          ($2025-06-10 18:02:51 +0200$)


 With contributions from (in alphabetic order):
[Max-Planck-Institut fuer Kohlenforschung]                               
  Daniel Aravena         : Magnetic Suceptibility                        
  Michael Atanasov       : Ab Initio Ligand Field Theory (pilot matlab implementation)
  Alexander A. Auer      : GIAO ZORA, VPT2 properties, NMR spectrum      
  Ute Becker             : All parallelization in ORCA, NUMFREQ, NUMCALC 
  Giovanni Bistoni       : ED, misc. LED, open-shell LED, HFLD           
  Dmytro Bykov           : pre 5.0 version of the SCF Hessian            
  Marcos Casanova-Páez   : Triplet and SCS-CIS(D). UHF-(DLPNO)-IP/EA/STEOM-CCSD. UHF-CVS-IP/STEOM-CCSD   
  Vijay G. Chilkuri      : MRCI spin determinant printing, contributions to CSF-ICE 
  Pauline Colinet        : FMM embedding                                 
  Dipayan Datta          : RHF DLPNO-CCSD density                        
  Achintya Kumar Dutta   : EOM-CC, STEOM-CC                              
  Nicolas Foglia         : Exact transition moments, OPA infrastructure, MCD improvements    
  Dmitry Ganyushin       : Spin-Orbit,Spin-Spin,Magnetic field MRCI      
  Miquel Garcia-Rates    : C-PCM and meta-GGA Hessian, CCSD/C-PCM, Gaussian charge scheme 
  Tiago L. C. Gouveia    : GS-ROHF, GS-ROCIS                             
  Yang Guo               : DLPNO-NEVPT2, F12-NEVPT2, CIM, IAO-localization        
  Andreas Hansen         : Spin unrestricted coupled pair/coupled cluster methods 
  Ingolf Harden          : AUTO-CI MPn and infrastructure                
  Benjamin Helmich-Paris : MC-RPA, TRAH-(SCF,CASSCF), AVAS, COSX integrals, SCF dyn. polar., MC-PDFT, srDFT 
  Lee Huntington         : MR-EOM, pCC                                   
  Robert Izsak           : Overlap fitted RIJCOSX, COSX-SCS-MP3, EOM     
  Riya Kayal             : Wick's Theorem for AUTO-CI, AUTO-CI UHF-CCSDT 
  Emily Kempfer          : AUTO-CI RHF CISDT and CCSDT, approximate NEVPT4
  Christian Kollmar      : KDIIS, OOCD, Brueckner-CCSD(T), CCSD density, CASPT2, CASPT2-K, improved NEVPT2 
  Axel Koslowski         : Symmetry handling                             
  Simone Kossmann        : meta-GGA functionals, TD-DFT gradient, OOMP2, (MP2 Hessian; deprecated post 5.0) 
  Lucas Lang             : DCDCAS, Hyperfine gauge corrections, ICE-SOC+SSC
  Marvin Lechner         : AUTO-CI (C++ implementation), FIC-MRCC        
  Spencer Leger          : CASSCF response                               
  Dagmar Lenk            : GEPOL surface, SMD, ORCA-2-JSON               
  Dimitrios Liakos       : Extrapolation schemes; Compound Job, Property file
  Dimitrios Manganas     : Further ROCIS development; embedding schemes. LFT, Crystal Embedding 
  Dimitrios Pantazis     : SARC Basis sets                               
  Anastasios Papadopoulos: AUTO-CI, single reference methods and gradients 
  Taras Petrenko         : pre 6.0 DFT Hessian and TD-DFT gradient,  ECA, NRVS 
  Petra Pikulova         : Analytic Raman intensities                    
  Peter Pinski           : DLPNO-MP2, DLPNO-MP2 Gradient                 
  Shashank Vittal Rao    : ES-AILFT, MagRelax                            
  Christoph Reimann      : Effective Core Potentials                     
  Marius Retegan         : Local ZFS, SOC                                
  Christoph Riplinger    : Optimizer, TS searches, QM/MM, DLPNO-CCSD(T), (RO)-DLPNO pert. Triples 
  Michael Roemelt        : Original ROCIS implementation, recursive CI coupling coefficients
  Masaaki Saitow         : Open-shell DLPNO-CCSD energy and density      
  Barbara Sandhoefer     : DKH picture change effects                    
  Yorick L. A. Schmerwitz: GMF and freeze-and-release deltaSCF, NEB S-IDPP initial path                    
  Kantharuban Sivalingam : CASSCF convergence/infrastructure, NEVPT2, NEVPT3, NEVPT4(SD), FIC-MRCI and CEPA variants
  Bernardo de Souza      : ESD, SOC TD-DFT                               
  Georgi L. Stoychev     : AutoAux, RI-MP2 NMR, DLPNO-MP2 response, X2C  
  Van Anh Tran           : RI-MP2 g-tensors                              
  Willem Van den Heuvel  : Paramagnetic NMR                              
  Zikuan Wang            : NOTCH, Electric field optimization            
  Frank Wennmohs         : Technical directorship and infrastructure     
  Hang Xu                : AUTO-CI-Response properties                   
                                                                         
[FACCTs GmbH]                                                            
  Markus Bursch, Nicolas Foglia, Miquel Garcia-Rates, Ingolf Harden, Hagen Neugebauer, Anastasios Papadopoulos, 
  Christoph Riplinger, Bernardo de Souza, Georgi L. Stoychev                                                    
                                                                 
  APM, various basis sets, CI-OPT, improved COSX, DLPNO-Multilevel,           
  DOCKER, DRACO, updates on ESD, Fragmentator, GOAT, IRC, LR-CPCM, L-BFGS, MBIS, meta-GGA TD-DFT gradient, ML-optimized integration grids, 
  MM, NACMEs, nearIR, NEB, NEB-TS, NL-DFT gradient (VV10), 2- and 3-layer-ONIOM, interface openCOSMO-RS, QMMM,   
  Crystal-QMMM, RESP, rigid body optimization, SF, symmetry and pop. for TD-DFT, various functionals, SOLVATOR                                   
                                                                         
[Other institutions]                                                     
  V. Asgeirsson          : NEB                                           
  Christoph Bannwarth    : sTDA-DFT, sTD-DFT, PBEh-3c, B97-3c, D3        
  Giovanni Bistoni       : ETS/NOCV, ADLD/ADEX, COVALED                  
  Martin Brehm           : Molecular dynamics                            
  Ronald Cardenas        : ETS/NOCV                                      
  Martina Colucci        : COVALED                                       
  Sebastian Ehlert       : rSCAN, r2SCAN, r2SCAN-3c, D4, dhf basis sets  
  Marvin Friede          : D4 for Fr, Ra, Ac-Lr                          
  Lars Goerigk           : TD-DFT with DH, B97 family of functionals     
  Stefan Grimme          : VdW corrections, initial TS optimization, DFT functionals, gCP, sTDA/sTD-DF 
  Waldemar Hujo          : DFT-NL                                        
  H. Jonsson             : NEB                                           
  Holger Kruse           : gCP                                           
  Marcel Mueller         : wB97X-3c, vDZP basis set                      
  Hagen Neugebauer       : wr2SCAN, Native XTB                           
  Gianluca Regni         : ADLD/ADEX                                     
  Tobias Risthaus        : pre 6.0 range-separated hybrid DFT and stability analysis
  Lukas Wittmann         : regularized MP2, r2SCAN double-hybrids, wr2SCAN        
                                                                         
We gratefully acknowledge several colleagues who have allowed us to      
interface, adapt or use parts of their codes:                            
  Ed Valeev, F. Pavosevic, A. Kumar             : LibInt (2-el integral package), F12 methods 
  Garnet Chan, S. Sharma, J. Yang, R. Olivares  : DMRG                   
  Ulf Ekstrom                                   : XCFun DFT Library      
  Mihaly Kallay                                 : mrcc  (arbitrary order and MRCC methods)
  Frank Weinhold                                : gennbo (NPA and NBO analysis)           
  Simon Mueller                                 : openCOSMO-RS                            
  Christopher J. Cramer and Donald G. Truhlar   : smd solvation model                     
  S Lehtola, MJT Oliveira, MAL Marques          : LibXC Library                           
  Liviu Ungur et al                             : ANISO software                          


 Your calculation uses the libint2 library for the computation of 2-el integrals
 For citations please refer to: http://libint.valeyev.net

 Your ORCA version has been built with support for libXC version: 7.0.0
 For citations please refer to: https://libxc.gitlab.io

 This ORCA versions uses:
   CBLAS   interface :  Fast vector & matrix operations
   LAPACKE interface :  Fast linear algebra routines
   SCALAPACK package :  Parallel linear algebra routines
   Shared memory     :  Shared parallel matrices
   BLAS/LAPACK       :  OpenBLAS 0.3.29  USE64BITINT DYNAMIC_ARCH NO_AFFINITY Haswell SINGLE_THREADED
        Core in use  :  Haswell
   Copyright (c) 2011-2014, The OpenBLAS Project


  ***********************************
  * Starting time: Wed Aug 13 12:04:45 2025
  * Host name:     CHEMLAB02
  * Process ID:    1531771
  * Working dir.:  /home/vivek/mm-project/vivek/B97-D/e/2
  ***********************************



***************************************
The coordinates will be read from file: /home/vivek/mm-project/vivek/xtb-goat/e/E_CONF/2.xyz
***************************************


Your calculation utilizes empirical dispersion correction


Warning: RI is on but no J-basis has been assigned. Assigning Def2/J (nothing to worry about!)
================================================================================

----- Orbital basis set information -----
Your calculation utilizes the basis: 6-31G**
   H-He, Li-Ne : W. J. Hehre, R. Ditchfield and J.A. Pople, J. Chem. Phys. 56, 2257 (1972).
                 Note: He and Ne are unpublished basis sets taken from the Gaussian program.
                 Note: Li and B from J. D. Dill and J. A. Pople, J. Chem. Phys. 62, 2921 (1975).
   Na - Ar     : M. M. Francl, W. J. Pietro, W. J. Hehre, J. S. Binkley, M. S. Gordon, 
                 D. J. DeFrees and J. A. Pople, J. Chem. Phys. 77, 3654 (1982).
   K - Zn      : V. A. Rassolov, J. A. Pople, M. A. Ratner, and T. L. Windus, J. Chem. Phys. 109, 1223 (1998).

----- AuxJ basis set information -----
Your calculation utilizes the auxiliary basis: def2/J
   H-Rn: F. Weigend, Phys. Chem. Chem. Phys. 8, 1057 (2006).
   Fr-Lr: K. Eichkorn, F. Weigend, O. Treutler, R. Ahlrichs; Theor. Chem. Acc. 97, 119 (1997).

================================================================================
                                        WARNINGS
                       Please study these warnings very carefully!
================================================================================


INFO   : The exchange functional is Grimme's B97(-D)
         As described in S. Grimme, J. Comput. Chem. 27, 1787 (2006).
         Note that this functional defaults to a pure GGA. 

INFO   : The correlation functional is Grimme's B97(-D)
         As described in S. Grimme, J. Comput. Chem. 27, 1787 (2006).

================================================================================
                                       INPUT FILE
================================================================================
NAME = 2.inp
|  1> ! B97-D 6-31G** 
|  2> 
|  3> * xyzfile 0 1 /home/vivek/mm-project/vivek/xtb-goat/e/E_CONF/2.xyz
|  4> 
|  5>                          ****END OF INPUT****
================================================================================

                       ****************************
                       * Single Point Calculation *
                       ****************************

---------------------------------
CARTESIAN COORDINATES (ANGSTROEM)
---------------------------------
  C     -2.797156   -0.445423   -0.094750
  C     -2.360665    0.612925   -1.080924
  H     -0.016679    2.943180    1.328215
  H      1.422605    2.422080    0.744387
  O     -2.957408   -1.629771   -0.684331
  C     -1.634813    1.770281   -0.403026
  H     -1.741922    0.138568   -1.842668
  H     -3.268830    0.980933   -1.565444
  C     -0.190708    1.418447   -0.002993
  H     -1.583130    2.627988   -1.073467
  H     -2.186064    2.061929    0.493512
  C     -0.236102    0.265666    0.996332
  O     -0.138847   -0.898056    0.704072
  N      0.459326    2.616190    0.493707
  H     -3.213434   -2.304894   -0.036274
  O     -0.396910    0.691528    2.249634
  H      0.354847    1.069679   -0.887491
  O     -3.016425   -0.263023    1.073837
  H     -0.526658   -0.058904    2.849567

----------------------------
CARTESIAN COORDINATES (A.U.)
----------------------------
  NO LB      ZA    FRAG     MASS         X           Y           Z
   0 C     6.0000    0    12.011   -5.285860   -0.841727   -0.179052
   1 C     6.0000    0    12.011   -4.461011    1.158260   -2.042650
   2 H     1.0000    0     1.008   -0.031519    5.561803    2.509963
   3 H     1.0000    0     1.008    2.688334    4.577067    1.406687
   4 O     8.0000    0    15.999   -5.588692   -3.079821   -1.293199
   5 C     6.0000    0    12.011   -3.089349    3.345346   -0.761609
   6 H     1.0000    0     1.008   -3.291755    0.261855   -3.482137
   7 H     1.0000    0     1.008   -6.177193    1.853696   -2.958261
   8 C     6.0000    0    12.011   -0.360386    2.680476   -0.005655
   9 H     1.0000    0     1.008   -2.991681    4.966178   -2.028559
  10 H     1.0000    0     1.008   -4.131063    3.896482    0.932603
  11 C     6.0000    0    12.011   -0.446169    0.502037    1.882795
  12 O     8.0000    0    15.999   -0.262383   -1.697081    1.330504
  13 N     7.0000    0    14.007    0.868001    4.943882    0.932971
  14 H     1.0000    0     1.008   -6.072510   -4.355618   -0.068548
  15 O     8.0000    0    15.999   -0.750052    1.306798    4.251193
  16 H     1.0000    0     1.008    0.670563    2.021401   -1.677114
  17 O     8.0000    0    15.999   -5.700218   -0.497041    2.029258
  18 H     1.0000    0     1.008   -0.995239   -0.111312    5.384902

--------------------------------
INTERNAL COORDINATES (ANGSTROEM)
--------------------------------
 C      0   0   0     0.000000000000     0.00000000     0.00000000
 C      1   0   0     1.511013479041     0.00000000     0.00000000
 H      2   1   0     4.090025539119   100.38015832     0.00000000
 H      3   2   1     1.638273651541    96.45107773   104.41620356
 O      1   2   3     1.332654450627   111.62122980   212.70520500
 C      2   1   3     1.525083678573   112.26671334   350.84001971
 H      2   1   3     1.090005526821   108.37710930   114.76763025
 H      2   1   3     1.093139147010   106.56423151   230.73118056
 C      6   2   1     1.539238148529   112.86650355    76.02386654
 H      6   2   1     1.089873442991   110.26469214   195.84546346
 H      6   2   1     1.092116213229   109.10625249   315.02217345
 C      9   6   2     1.526307005526   108.35443342   298.60144667
 O     12   9   6     1.203796042623   124.66462204    94.00807045
 N      4   3   2     1.014112899462    36.16790459    33.28485128
 H      5   1   2     0.970215418122   110.77095467   178.42234292
 O     12   9   6     1.333410493701   112.19548901   273.96900976
 H      9   6   2     1.096177667202   109.26574687    55.59670448
 O      1   2   3     1.202890067958   125.48531827    34.66709371
 H     16  12   9     0.969485232995   110.52184925   173.36252758

---------------------------
INTERNAL COORDINATES (A.U.)
---------------------------
 C      0   0   0     0.000000000000     0.00000000     0.00000000
 C      1   0   0     2.855401660051     0.00000000     0.00000000
 H      2   1   0     7.729028149678   100.38015832     0.00000000
 H      3   2   1     3.095888533831    96.45107773   104.41620356
 O      1   2   3     2.518351942837   111.62122980   212.70520500
 C      2   1   3     2.881990483815   112.26671334   350.84001971
 H      2   1   3     2.059811930152   108.37710930   114.76763025
 H      2   1   3     2.065733614117   106.56423151   230.73118056
 C      6   2   1     2.908738555604   112.86650355    76.02386654
 H      6   2   1     2.059562327886   110.26469214   195.84546346
 H      6   2   1     2.063800549418   109.10625249   315.02217345
 C      9   6   2     2.884302236730   108.35443342   298.60144667
 O     12   9   6     2.274844841656   124.66462204    94.00807045
 N      4   3   2     1.916395648860    36.16790459    33.28485128
 H      5   1   2     1.833441431159   110.77095467   178.42234292
 O     12   9   6     2.519780657191   112.19548901   273.96900976
 H      9   6   2     2.071475585133   109.26574687    55.59670448
 O      1   2   3     2.273132797655   125.48531827    34.66709371
 H     16  12   9     1.832061581242   110.52184925   173.36252758

---------------------
BASIS SET INFORMATION
---------------------
There are 4 groups of distinct atoms

 Group   1 Type C   : 10s4p1d contracted to 3s2p1d pattern {631/31/1}
 Group   2 Type H   : 4s1p contracted to 2s1p pattern {31/1}
 Group   3 Type O   : 10s4p1d contracted to 3s2p1d pattern {631/31/1}
 Group   4 Type N   : 10s4p1d contracted to 3s2p1d pattern {631/31/1}

Atom   0C    basis set group =>   1
Atom   1C    basis set group =>   1
Atom   2H    basis set group =>   2
Atom   3H    basis set group =>   2
Atom   4O    basis set group =>   3
Atom   5C    basis set group =>   1
Atom   6H    basis set group =>   2
Atom   7H    basis set group =>   2
Atom   8C    basis set group =>   1
Atom   9H    basis set group =>   2
Atom  10H    basis set group =>   2
Atom  11C    basis set group =>   1
Atom  12O    basis set group =>   3
Atom  13N    basis set group =>   4
Atom  14H    basis set group =>   2
Atom  15O    basis set group =>   3
Atom  16H    basis set group =>   2
Atom  17O    basis set group =>   3
Atom  18H    basis set group =>   2
---------------------------------
AUXILIARY/J BASIS SET INFORMATION
---------------------------------
There are 4 groups of distinct atoms

 Group   1 Type C   : 12s5p4d2f1g contracted to 6s4p3d1f1g pattern {711111/2111/211/2/1}
 Group   2 Type H   : 5s2p1d contracted to 3s1p1d pattern {311/2/1}
 Group   3 Type O   : 12s5p4d2f1g contracted to 6s4p3d1f1g pattern {711111/2111/211/2/1}
 Group   4 Type N   : 12s5p4d2f1g contracted to 6s4p3d1f1g pattern {711111/2111/211/2/1}

Atom   0C    basis set group =>   1
Atom   1C    basis set group =>   1
Atom   2H    basis set group =>   2
Atom   3H    basis set group =>   2
Atom   4O    basis set group =>   3
Atom   5C    basis set group =>   1
Atom   6H    basis set group =>   2
Atom   7H    basis set group =>   2
Atom   8C    basis set group =>   1
Atom   9H    basis set group =>   2
Atom  10H    basis set group =>   2
Atom  11C    basis set group =>   1
Atom  12O    basis set group =>   3
Atom  13N    basis set group =>   4
Atom  14H    basis set group =>   2
Atom  15O    basis set group =>   3
Atom  16H    basis set group =>   2
Atom  17O    basis set group =>   3
Atom  18H    basis set group =>   2
------------------------------------------------------------------------------
                             ORCA STARTUP CALCULATIONS
                           -- RI-GTO INTEGRALS CHOSEN --
------------------------------------------------------------------------------
------------------------------------------------------------------------------
                   ___                                                        
                  /   \      - P O W E R E D   B Y -                         
                 /     \                                                     
                 |  |  |   _    _      __       _____    __    __             
                 |  |  |  | |  | |    /  \     |  _  \  |  |  /  |          
                  \  \/   | |  | |   /    \    | | | |  |  | /  /          
                 / \  \   | |__| |  /  /\  \   | |_| |  |  |/  /          
                |  |  |   |  __  | /  /__\  \  |    /   |      \           
                |  |  |   | |  | | |   __   |  |    \   |  |\   \          
                \     /   | |  | | |  |  |  |  | |\  \  |  | \   \       
                 \___/    |_|  |_| |__|  |__|  |_| \__\ |__|  \__/        
                                                                              
                      - O R C A' S   B I G   F R I E N D -                    
                                      &                                       
                       - I N T E G R A L  F E E D E R -                       
                                                                              
 v1 FN, 2020, v2 2021, v3 2022-2024                                           
------------------------------------------------------------------------------


----------------------
SHARK INTEGRAL PACKAGE
----------------------

Number of atoms                             ...     19
Number of basis functions                   ...    185
Number of shells                            ...     87
Maximum angular momentum                    ...      2
Integral batch strategy                     ... SHARK/LIBINT Hybrid
RI-J (if used) integral strategy            ... SPLIT-RIJ (Revised 2003 algorithm where possible)
Printlevel                                  ...      1
Contraction scheme used                     ... SEGMENTED contraction
Prescreening option                         ... SCHWARTZ
   Thresh                                   ... 1.000e-10
   Tcut                                     ... 1.000e-11
   Tpresel                                  ... 1.000e-11 
Coulomb Range Separation                    ... NOT USED
Exchange Range Separation                   ... NOT USED
Multipole approximations                    ... NOT USED
Finite Nucleus Model                        ... NOT USED
CABS basis                                  ... NOT available
Auxiliary Coulomb fitting basis             ... AVAILABLE
   # of basis functions in Aux-J            ...    589
   # of shells in Aux-J                     ...    195
   Maximum angular momentum in Aux-J        ...      4
Auxiliary J/K fitting basis                 ... NOT available
Auxiliary Correlation fitting basis         ... NOT available
Auxiliary 'external' fitting basis          ... NOT available

Checking pre-screening integrals            ... done (  0.0 sec) Dimension = 87
   => SHARK Basis and OBASIS are compatible. Storing Pre-screening
Shell pair information
Shell pair cut-off parameter TPreSel        ...   1.0e-11
Total number of shell pairs                 ...      3828
Shell pairs after pre-screening             ...      3454
Total number of primitive shell pairs       ...     19347
Primitive shell pairs kept                  ...     11277
          la=0 lb=0:   1045 shell pairs
          la=1 lb=0:   1247 shell pairs
          la=1 lb=1:    398 shell pairs
          la=2 lb=0:    443 shell pairs
          la=2 lb=1:    267 shell pairs
          la=2 lb=2:     54 shell pairs

Checking whether 4 symmetric matrices of dimension 185 fit in memory
:Max Core in MB      =   4096.00
 MB in use           =      8.12
 MB left             =   4087.88
 MB needed           =      0.53
 Data fit in memory  = YES
Calculating RI/J V-Matrix + Cholesky decomp.... done (  0.0 sec)
Calculating Nuclear repulsion               ... done (  0.0 sec) ENN=    582.766122090233 Eh

Diagonalization of the overlap matrix:
Smallest eigenvalue                        ... 3.241e-03
Time for diagonalization                   ...    0.002 sec
Threshold for overlap eigenvalues          ... 1.000e-07
Number of eigenvalues below threshold      ... 0
Time for construction of square roots      ...    0.001 sec
Total time needed                          ...    0.002 sec

-------------------
DFT GRID GENERATION
-------------------

General Integration Accuracy     IntAcc      ... 4.388
Radial Grid Type                 RadialGrid  ... OptM3 with GC (2021)
Angular Grid (max. ang.)         AngularGrid ... 4 (Lebedev-302)
Angular grid pruning method      GridPruning ... 4 (adaptive)
Weight generation scheme         WeightScheme... mBecke (2022)
Basis function cutoff            BFCut       ... 1.0000e-10
Integration weight cutoff        WCut        ... 1.0000e-14
Partially contracted basis set               ... off
Rotationally invariant grid construction     ... off
Angular grids for H and He will be reduced by one unit

Total number of grid points                  ...    89137
Total number of batches                      ...     1401
Average number of points per batch           ...       63
Average number of grid points per atom       ...     4691
Grids setup in   0.4 sec
Initializing property integral containers    ... done (  0.0 sec)

SHARK setup successfully completed in   0.4 seconds

Maximum memory used throughout the entire STARTUP-calculation: 37.8 MB
-------------------------------------------------------------------------------
                                 ORCA GUESS
                   Start orbitals & Density for SCF / CASSCF
-------------------------------------------------------------------------------

------------
SCF SETTINGS
------------
Hamiltonian:
 Density Functional     Method          .... DFT(GTOs)
 Exchange Functional    Exchange        .... B97(D)
 Correlation Functional Correlation     .... B97(D)
 Gradients option       PostSCFGGA      .... off
 RI-approximation to the Coulomb term is turned on
   Number of AuxJ basis functions       .... 589


General Settings:
 Integral files         IntName         .... 2
 Hartree-Fock type      HFTyp           .... RHF
 Total Charge           Charge          ....    0
 Multiplicity           Mult            ....    1
 Number of Electrons    NEL             ....   78
 Basis Dimension        Dim             ....  185
 Nuclear Repulsion      ENuc            ....    582.7661220902 Eh

Convergence Acceleration:
 AO-DIIS                CNVDIIS         .... on
   Start iteration      DIISMaxIt       ....    12
   Startup error        DIISStart       ....  0.200000
   # of expansion vecs  DIISMaxEq       ....     5
   Bias factor          DIISBfac        ....   1.050
   Max. coefficient     DIISMaxC        ....  10.000
 MO-DIIS                CNVKDIIS        .... off
 Trust-Rad. Augm. Hess. CNVTRAH         .... auto
   Auto Start mean grad. ratio tolernc. ....  1.125000
   Auto Start start iteration           ....    50
   Auto Start num. interpolation iter.  ....    10
   Max. Number of Micro iterations      ....    24
   Max. Number of Macro iterations      .... Maxiter - #DIIS iter
   Number of Davidson start vectors     ....     2
   Converg. threshold    (grad. norm)   ....   5.000e-05
   Grad. Scal. Fac. for Micro threshold ....   0.100
   Minimum threshold for Micro iter.    ....   1.000e-02
   NR start threshold (gradient norm)   ....   1.000e-04
   Initial trust radius                 ....   0.400
   Minimum AH scaling param. (alpha)    ....   1.000
   Maximum AH scaling param. (alpha)    .... 1000.000
   Quad. conv. algorithm                .... NR
   White noise on init. David. guess    .... on
   Maximum white noise                  ....   0.010
   Pseudo random numbers                .... off
   Inactive MOs                         .... canonical
   Orbital update algorithm             .... Taylor
   Preconditioner                       .... Diag
   Full preconditioner red. dimension   ....   250
 SOSCF                 CNVSOSCF           .... on
   Start iteration     SOSCFMaxIt         ....   150
   Startup grad/error  SOSCFStart         ....  0.003300
   Hessian update      SOSCFHessUp        .... L-BFGS
   Autom. constraints  SOSCFAutoConstrain .... off
 Level Shifting         CNVShift        .... on
   Level shift para.    LevelShift      ....    0.2500
   Turn off err/grad.   ShiftErr        ....    0.0010
 Zerner damping         CNVZerner       .... off
 Static damping         CNVDamp         .... on
   Fraction old density DampFac         ....    0.7000
   Max. Damping (<1)    DampMax         ....    0.9800
   Min. Damping (>=0)   DampMin         ....    0.0000
   Turn off err/grad.   DampErr         ....    0.1000

SCF Procedure:
 Maximum # iterations   MaxIter         ....   125
 SCF integral mode      SCFMode         .... Direct
   Integral package                     .... SHARK and LIBINT hybrid scheme
 Reset frequency        DirectResetFreq ....    20
 Integral Threshold     Thresh          ....  1.000e-10 Eh
 Primitive CutOff       TCut            ....  1.000e-11 Eh

Convergence Tolerance:
 Convergence Check Mode ConvCheckMode   .... Total+1el-Energy
 Convergence forced     ConvForced      .... 0
 Energy Change          TolE            ....  1.000e-06 Eh
 1-El. energy change                    ....  1.000e-03 Eh
 Orbital Gradient       TolG            ....  5.000e-05
 Orbital Rotation angle TolX            ....  5.000e-05
 DIIS Error             TolErr          ....  1.000e-06

------------------------------
INITIAL GUESS: MODEL POTENTIAL
------------------------------
Loading Hartree-Fock densities                     ... done
Calculating cut-offs                               ... done
Initializing the effective Hamiltonian             ... done
Setting up the integral package (SHARK)            ... done
Starting the Coulomb interaction                   ... done (   0.1 sec)
Making the grid                                    ... done (   0.1 sec)
Mapping shells                                     ... done
Starting the XC term evaluation                    ... done (   0.1 sec)
  promolecular density results
     # of electrons  =     77.999076695
     EX              =    -66.732051233
     EC              =     -3.511254449
     EX+EC           =    -70.243305682
Transforming the Hamiltonian                       ... done (   0.0 sec)
Diagonalizing the Hamiltonian                      ... done (   0.0 sec)
Back transforming the eigenvectors                 ... done (   0.0 sec)
Now organizing SCF variables                       ... done
                      ------------------
                      INITIAL GUESS DONE (   0.3 sec)
                      ------------------
             **** ENERGY FILE WAS UPDATED (2.en.tmp) ****
Finished Guess after   0.3 sec
Maximum memory used throughout the entire GUESS-calculation: 13.4 MB

-------------------------------------------------------------------------------------------
                                      ORCA LEAN-SCF
                              memory conserving SCF solver
-------------------------------------------------------------------------------------------

----------------------------------------D-I-I-S--------------------------------------------
Iteration    Energy (Eh)           Delta-E    RMSDP     MaxDP     DIISErr   Damp  Time(sec)
-------------------------------------------------------------------------------------------
               ***  Starting incremental Fock matrix formation  ***
    1    -550.8647242736742555     0.00e+00  3.99e-03  1.08e-01  2.59e-01  0.700   0.5
    2    -551.0629385816632748    -1.98e-01  2.42e-03  5.91e-02  9.39e-02  0.700   0.5
                               ***Turning on AO-DIIS***
    3    -551.1208261465972100    -5.79e-02  8.77e-04  1.51e-02  2.53e-02  0.700   0.5
    4    -551.1600719958771606    -3.92e-02  1.15e-03  1.94e-02  1.69e-02  0.000   0.5
    5    -551.2521597093304990    -9.21e-02  4.03e-04  8.26e-03  9.25e-03  0.000   0.5
                              *** Initializing SOSCF ***
---------------------------------------S-O-S-C-F--------------------------------------
Iteration    Energy (Eh)           Delta-E    RMSDP     MaxDP     MaxGrad    Time(sec)
--------------------------------------------------------------------------------------
    6    -551.2530569761722745    -8.97e-04  1.41e-04  2.40e-03  2.78e-03     0.5
               *** Restarting incremental Fock matrix formation ***
    7    -551.2531206876133183    -6.37e-05  1.26e-04  3.43e-03  5.96e-04     0.5
    8    -551.2530950077602938     2.57e-05  7.06e-05  2.54e-03  1.58e-03     0.4
    9    -551.2531313155898260    -3.63e-05  4.38e-05  9.22e-04  1.88e-04     0.4
   10    -551.2531287559118027     2.56e-06  2.57e-05  5.27e-04  2.41e-04     0.4
   11    -551.2531329742062098    -4.22e-06  9.90e-06  2.94e-04  4.46e-05     0.4
   12    -551.2531327592314483     2.15e-07  6.27e-06  2.00e-04  9.26e-05     0.4
                 **** Energy Check signals convergence ****

               *****************************************************
               *                     SUCCESS                       *
               *           SCF CONVERGED AFTER  12 CYCLES          *
               *****************************************************

             **** ENERGY FILE WAS UPDATED (2.en.tmp) ****

----------------
TOTAL SCF ENERGY
----------------

Total Energy       :       -551.25313303234157 Eh          -15000.36035 eV

Components:
Nuclear Repulsion  :        582.76612209023278 Eh           15857.87238 eV
Electronic Energy  :      -1134.01925512257435 Eh          -30858.23273 eV
One Electron Energy:      -1910.94660493263609 Eh          -51999.50072 eV
Two Electron Energy:        776.92734981006174 Eh           21141.26799 eV

Virial components:
Potential Energy   :      -1099.77762275471559 Eh          -29926.47055 eV
Kinetic Energy     :        548.52448972237414 Eh           14926.11019 eV
Virial Ratio       :          2.00497451501454

DFT components:
N(Alpha)           :       39.000030033158 electrons
N(Beta)            :       39.000030033158 electrons
N(Total)           :       78.000060066317 electrons
E(X)               :      -68.100078102958 Eh       
E(C)               :       -3.499636904254 Eh       
E(XC)              :      -71.599715007211 Eh       

---------------
SCF CONVERGENCE
---------------

  Last Energy change         ...   -2.1497e-07  Tolerance :   1.0000e-06
  Last MAX-Density change    ...    2.0000e-04  Tolerance :   1.0000e-05
  Last RMS-Density change    ...    6.2700e-06  Tolerance :   1.0000e-06
  Last DIIS Error            ...    2.7835e-03  Tolerance :   1.0000e-06
  Last Orbital Gradient      ...    9.2585e-05  Tolerance :   5.0000e-05
  Last Orbital Rotation      ...    1.1997e-04  Tolerance :   5.0000e-05


----------------
ORBITAL ENERGIES
----------------

  NO   OCC          E(Eh)            E(eV) 
   0   2.0000     -18.809315      -511.8275 
   1   2.0000     -18.807588      -511.7805 
   2   2.0000     -18.747931      -510.1571 
   3   2.0000     -18.746970      -510.1310 
   4   2.0000     -13.989377      -380.6703 
   5   2.0000     -10.029936      -272.9284 
   6   2.0000     -10.023475      -272.7526 
   7   2.0000      -9.947266      -270.6789 
   8   2.0000      -9.921016      -269.9646 
   9   2.0000      -9.914313      -269.7822 
  10   2.0000      -1.019003       -27.7285 
  11   2.0000      -1.014849       -27.6155 
  12   2.0000      -0.928351       -25.2617 
  13   2.0000      -0.925871       -25.1942 
  14   2.0000      -0.818950       -22.2848 
  15   2.0000      -0.725382       -19.7387 
  16   2.0000      -0.649584       -17.6761 
  17   2.0000      -0.600333       -16.3359 
  18   2.0000      -0.554764       -15.0959 
  19   2.0000      -0.525915       -14.3109 
  20   2.0000      -0.459791       -12.5115 
  21   2.0000      -0.439678       -11.9643 
  22   2.0000      -0.434631       -11.8269 
  23   2.0000      -0.426110       -11.5950 
  24   2.0000      -0.414293       -11.2735 
  25   2.0000      -0.409995       -11.1565 
  26   2.0000      -0.383098       -10.4246 
  27   2.0000      -0.374367       -10.1871 
  28   2.0000      -0.354671        -9.6511 
  29   2.0000      -0.343654        -9.3513 
  30   2.0000      -0.331805        -9.0289 
  31   2.0000      -0.321467        -8.7476 
  32   2.0000      -0.307666        -8.3720 
  33   2.0000      -0.301124        -8.1940 
  34   2.0000      -0.269967        -7.3462 
  35   2.0000      -0.265311        -7.2195 
  36   2.0000      -0.236723        -6.4416 
  37   2.0000      -0.220854        -6.0098 
  38   2.0000      -0.185015        -5.0345 
  39   0.0000      -0.014884        -0.4050 
  40   0.0000      -0.010100        -0.2748 
  41   0.0000       0.051988         1.4147 
  42   0.0000       0.060364         1.6426 
  43   0.0000       0.086420         2.3516 
  44   0.0000       0.091129         2.4797 
  45   0.0000       0.104162         2.8344 
  46   0.0000       0.142291         3.8719 
  47   0.0000       0.144045         3.9197 
  48   0.0000       0.152571         4.1517 
  49   0.0000       0.163984         4.4622 
*Only the first 10 virtual orbitals were printed.

                    ********************************
                    * MULLIKEN POPULATION ANALYSIS *
                    ********************************

-----------------------
MULLIKEN ATOMIC CHARGES
-----------------------
   0 C :    0.529433
   1 C :   -0.274923
   2 H :    0.249316
   3 H :    0.241817
   4 O :   -0.451963
   5 C :   -0.199284
   6 H :    0.142773
   7 H :    0.144341
   8 C :   -0.038865
   9 H :    0.124862
  10 H :    0.133647
  11 C :    0.513535
  12 O :   -0.432159
  13 N :   -0.563273
  14 H :    0.318573
  15 O :   -0.456530
  16 H :    0.128011
  17 O :   -0.432082
  18 H :    0.322771
Sum of atomic charges:    0.0000000

--------------------------------
MULLIKEN REDUCED ORBITAL CHARGES
--------------------------------
  0 C s       :     2.973902  s :     2.973902
      pz      :     0.800107  p :     2.369173
      px      :     0.793223
      py      :     0.775842
      dz2     :     0.028492  d :     0.127492
      dxz     :     0.023302
      dyz     :     0.048772
      dx2y2   :     0.013318
      dxy     :     0.013607

  1 C s       :     3.245325  s :     3.245325
      pz      :     0.998219  p :     2.995110
      px      :     1.036960
      py      :     0.959931
      dz2     :     0.003325  d :     0.034488
      dxz     :     0.007990
      dyz     :     0.010254
      dx2y2   :     0.006137
      dxy     :     0.006783

  2 H s       :     0.726680  s :     0.726680
      pz      :     0.010548  p :     0.024004
      px      :     0.006195
      py      :     0.007262

  3 H s       :     0.734242  s :     0.734242
      pz      :     0.006600  p :     0.023941
      px      :     0.011241
      py      :     0.006101

  4 O s       :     3.825288  s :     3.825288
      pz      :     1.612825  p :     4.603724
      px      :     1.737028
      py      :     1.253871
      dz2     :     0.003802  d :     0.022950
      dxz     :     0.003733
      dyz     :     0.009820
      dx2y2   :     0.002589
      dxy     :     0.003006

  5 C s       :     3.235813  s :     3.235813
      pz      :     1.030429  p :     2.927776
      px      :     0.921487
      py      :     0.975860
      dz2     :     0.004386  d :     0.035695
      dxz     :     0.008011
      dyz     :     0.009179
      dx2y2   :     0.008259
      dxy     :     0.005859

  6 H s       :     0.845619  s :     0.845619
      pz      :     0.004525  p :     0.011609
      px      :     0.003787
      py      :     0.003297

  7 H s       :     0.843642  s :     0.843642
      pz      :     0.003582  p :     0.012016
      px      :     0.005290
      py      :     0.003144

  8 C s       :     3.202211  s :     3.202211
      pz      :     0.972299  p :     2.779512
      px      :     0.960119
      py      :     0.847094
      dz2     :     0.007584  d :     0.057142
      dxz     :     0.009607
      dyz     :     0.015430
      dx2y2   :     0.013707
      dxy     :     0.010814

  9 H s       :     0.863594  s :     0.863594
      pz      :     0.003902  p :     0.011544
      px      :     0.002412
      py      :     0.005229

 10 H s       :     0.854602  s :     0.854602
      pz      :     0.005423  p :     0.011751
      px      :     0.003610
      py      :     0.002717

 11 C s       :     2.993847  s :     2.993847
      pz      :     0.762187  p :     2.366866
      px      :     0.777143
      py      :     0.827537
      dz2     :     0.029938  d :     0.125752
      dxz     :     0.014486
      dyz     :     0.045788
      dx2y2   :     0.015734
      dxy     :     0.019806

 12 O s       :     3.864011  s :     3.864011
      pz      :     1.746047  p :     4.540169
      px      :     1.423172
      py      :     1.370950
      dz2     :     0.003022  d :     0.027979
      dxz     :     0.000812
      dyz     :     0.007381
      dx2y2   :     0.006954
      dxy     :     0.009808

 13 N s       :     3.589365  s :     3.589365
      pz      :     1.424007  p :     3.945391
      px      :     1.122531
      py      :     1.398853
      dz2     :     0.006648  d :     0.028517
      dxz     :     0.006291
      dyz     :     0.003717
      dx2y2   :     0.006825
      dxy     :     0.005036

 14 H s       :     0.643429  s :     0.643429
      pz      :     0.013880  p :     0.037998
      px      :     0.010200
      py      :     0.013918

 15 O s       :     3.823289  s :     3.823289
      pz      :     1.269700  p :     4.610355
      px      :     1.754767
      py      :     1.585889
      dz2     :     0.004284  d :     0.022886
      dxz     :     0.003123
      dyz     :     0.009136
      dx2y2   :     0.003797
      dxy     :     0.002546

 16 H s       :     0.861253  s :     0.861253
      pz      :     0.005085  p :     0.010736
      px      :     0.003218
      py      :     0.002433

 17 O s       :     3.864091  s :     3.864091
      pz      :     1.350378  p :     4.539978
      px      :     1.447902
      py      :     1.741698
      dz2     :     0.009743  d :     0.028013
      dxz     :     0.009707
      dyz     :     0.007199
      dx2y2   :     0.000675
      dxy     :     0.000689

 18 H s       :     0.639094  s :     0.639094
      pz      :     0.012435  p :     0.038135
      px      :     0.009606
      py      :     0.016095



                     *******************************
                     * LOEWDIN POPULATION ANALYSIS *
                     *******************************

----------------------
LOEWDIN ATOMIC CHARGES
----------------------
   0 C :    0.118669
   1 C :   -0.149690
   2 H :    0.127291
   3 H :    0.125857
   4 O :   -0.129431
   5 C :   -0.112963
   6 H :    0.089942
   7 H :    0.098073
   8 C :   -0.044928
   9 H :    0.080921
  10 H :    0.081325
  11 C :    0.099346
  12 O :   -0.225078
  13 N :   -0.247753
  14 H :    0.183170
  15 O :   -0.132424
  16 H :    0.082598
  17 O :   -0.229958
  18 H :    0.185032

-------------------------------
LOEWDIN REDUCED ORBITAL CHARGES
-------------------------------
  0 C s       :     2.845854  s :     2.845854
      pz      :     1.015905  p :     2.733241
      px      :     0.803712
      py      :     0.913624
      dz2     :     0.070338  d :     0.302236
      dxz     :     0.049990
      dyz     :     0.122483
      dx2y2   :     0.030990
      dxy     :     0.028435

  1 C s       :     2.904730  s :     2.904730
      pz      :     1.058035  p :     3.166952
      px      :     1.068795
      py      :     1.040121
      dz2     :     0.006694  d :     0.078008
      dxz     :     0.017653
      dyz     :     0.025000
      dx2y2   :     0.012652
      dxy     :     0.016009

  2 H s       :     0.793096  s :     0.793096
      pz      :     0.038539  p :     0.079613
      px      :     0.018675
      py      :     0.022399

  3 H s       :     0.795145  s :     0.795145
      pz      :     0.019330  p :     0.078998
      px      :     0.040957
      py      :     0.018711

  4 O s       :     3.467038  s :     3.467038
      pz      :     1.617747  p :     4.611486
      px      :     1.701813
      py      :     1.291925
      dz2     :     0.006252  d :     0.050907
      dxz     :     0.004448
      dyz     :     0.022712
      dx2y2   :     0.010295
      dxy     :     0.007200

  5 C s       :     2.902753  s :     2.902753
      pz      :     1.076823  p :     3.130231
      px      :     1.010926
      py      :     1.042483
      dz2     :     0.009592  d :     0.079978
      dxz     :     0.017256
      dyz     :     0.019990
      dx2y2   :     0.019344
      dxy     :     0.013796

  6 H s       :     0.868761  s :     0.868761
      pz      :     0.017149  p :     0.041297
      px      :     0.013320
      py      :     0.010829

  7 H s       :     0.861468  s :     0.861468
      pz      :     0.011137  p :     0.040459
      px      :     0.019736
      py      :     0.009587

  8 C s       :     2.883938  s :     2.883938
      pz      :     1.036448  p :     3.030886
      px      :     1.025046
      py      :     0.969393
      dz2     :     0.016149  d :     0.130103
      dxz     :     0.020471
      dyz     :     0.037400
      dx2y2   :     0.032390
      dxy     :     0.023693

  9 H s       :     0.878661  s :     0.878661
      pz      :     0.014131  p :     0.040417
      px      :     0.006948
      py      :     0.019338

 10 H s       :     0.877394  s :     0.877394
      pz      :     0.020699  p :     0.041281
      px      :     0.012330
      py      :     0.008251

 11 C s       :     2.859330  s :     2.859330
      pz      :     0.919795  p :     2.741708
      px      :     0.784174
      py      :     1.037740
      dz2     :     0.072641  d :     0.299615
      dxz     :     0.030962
      dyz     :     0.115091
      dx2y2   :     0.040235
      dxy     :     0.040686

 12 O s       :     3.553092  s :     3.553092
      pz      :     1.728009  p :     4.613870
      px      :     1.407000
      py      :     1.478861
      dz2     :     0.007747  d :     0.058115
      dxz     :     0.001209
      dyz     :     0.015750
      dx2y2   :     0.019616
      dxy     :     0.013794

 13 N s       :     3.194156  s :     3.194156
      pz      :     1.428579  p :     3.995510
      px      :     1.153745
      py      :     1.413186
      dz2     :     0.011309  d :     0.058087
      dxz     :     0.011598
      dyz     :     0.007759
      dx2y2   :     0.015723
      dxy     :     0.011698

 14 H s       :     0.701337  s :     0.701337
      pz      :     0.044493  p :     0.115493
      px      :     0.029257
      py      :     0.041743

 15 O s       :     3.463520  s :     3.463520
      pz      :     1.308635  p :     4.617679
      px      :     1.720011
      py      :     1.589034
      dz2     :     0.015510  d :     0.051225
      dxz     :     0.006809
      dyz     :     0.021089
      dx2y2   :     0.005273
      dxy     :     0.002545

 16 H s       :     0.878910  s :     0.878910
      pz      :     0.019959  p :     0.038493
      px      :     0.011383
      py      :     0.007151

 17 O s       :     3.552276  s :     3.552276
      pz      :     1.461075  p :     4.619921
      px      :     1.435973
      py      :     1.722873
      dz2     :     0.026202  d :     0.057761
      dxz     :     0.015122
      dyz     :     0.014260
      dx2y2   :     0.001125
      dxy     :     0.001052

 18 H s       :     0.698800  s :     0.698800
      pz      :     0.037021  p :     0.116168
      px      :     0.027015
      py      :     0.052132



                      *****************************
                      * MAYER POPULATION ANALYSIS *
                      *****************************

  NA   - Mulliken gross atomic population
  ZA   - Total nuclear charge
  QA   - Mulliken gross atomic charge
  VA   - Mayer's total valence
  BVA  - Mayer's bonded valence
  FA   - Mayer's free valence

  ATOM       NA         ZA         QA         VA         BVA        FA
  0 C      5.4706     6.0000     0.5294     3.9974     3.9974    -0.0000
  1 C      6.2749     6.0000    -0.2749     3.8301     3.8301    -0.0000
  2 H      0.7507     1.0000     0.2493     0.9266     0.9266     0.0000
  3 H      0.7582     1.0000     0.2418     0.9193     0.9193     0.0000
  4 O      8.4520     8.0000    -0.4520     2.0577     2.0577     0.0000
  5 C      6.1993     6.0000    -0.1993     3.8603     3.8603    -0.0000
  6 H      0.8572     1.0000     0.1428     0.9538     0.9538     0.0000
  7 H      0.8557     1.0000     0.1443     0.9479     0.9479    -0.0000
  8 C      6.0389     6.0000    -0.0389     3.8891     3.8891    -0.0000
  9 H      0.8751     1.0000     0.1249     0.9564     0.9564    -0.0000
 10 H      0.8664     1.0000     0.1336     0.9625     0.9625     0.0000
 11 C      5.4865     6.0000     0.5135     3.9413     3.9413     0.0000
 12 O      8.4322     8.0000    -0.4322     2.0734     2.0734     0.0000
 13 N      7.5633     7.0000    -0.5633     2.8962     2.8962    -0.0000
 14 H      0.6814     1.0000     0.3186     0.9168     0.9168    -0.0000
 15 O      8.4565     8.0000    -0.4565     2.0603     2.0603     0.0000
 16 H      0.8720     1.0000     0.1280     0.9514     0.9514    -0.0000
 17 O      8.4321     8.0000    -0.4321     2.0900     2.0900    -0.0000
 18 H      0.6772     1.0000     0.3228     0.9165     0.9165     0.0000

  Mayer bond orders larger than 0.100000
B(  0-C ,  1-C ) :   0.9518 B(  0-C ,  4-O ) :   1.1093 B(  0-C , 17-O ) :   1.8765 
B(  1-C ,  5-C ) :   0.9854 B(  1-C ,  6-H ) :   0.9319 B(  1-C ,  7-H ) :   0.9301 
B(  2-H , 13-N ) :   0.8988 B(  3-H , 13-N ) :   0.9094 B(  4-O , 14-H ) :   0.8536 
B(  5-C ,  8-C ) :   0.9861 B(  5-C ,  9-H ) :   0.9364 B(  5-C , 10-H ) :   0.9304 
B(  8-C , 11-C ) :   0.9064 B(  8-C , 13-N ) :   1.0349 B(  8-C , 16-H ) :   0.9339 
B( 11-C , 12-O ) :   1.8601 B( 11-C , 15-O ) :   1.1015 B( 15-O , 18-H ) :   0.8514 


-------
TIMINGS
-------

Total SCF time: 0 days 0 hours 0 min 5 sec 

Total time                  ....       5.908 sec
Sum of individual times     ....       5.511 sec  ( 93.3%)

SCF preparation             ....       0.025 sec  (  0.4%)
Fock matrix formation       ....       5.433 sec  ( 92.0%)
  Startup                   ....       0.001 sec  (  0.0% of F)
  Split-RI-J                ....       1.974 sec  ( 36.3% of F)
  XC integration            ....       3.839 sec  ( 70.7% of F)
    XC Preparation          ....       0.000 sec  (  0.0% of XC)
    Basis function eval.    ....       1.337 sec  ( 34.8% of XC)
    Density eval.           ....       0.851 sec  ( 22.2% of XC)
    XC-Functional eval.     ....       0.678 sec  ( 17.7% of XC)
    XC-Potential eval.      ....       0.877 sec  ( 22.8% of XC)
Diagonalization             ....       0.000 sec  (  0.0%)
Density matrix formation    ....       0.004 sec  (  0.1%)
Total Energy calculation    ....       0.001 sec  (  0.0%)
Population analysis         ....       0.003 sec  (  0.0%)
Orbital Transformation      ....       0.006 sec  (  0.1%)
Orbital Orthonormalization  ....       0.000 sec  (  0.0%)
DIIS solution               ....       0.025 sec  (  0.4%)
SOSCF solution              ....       0.015 sec  (  0.2%)
Finished LeanSCF after   5.9 sec

Maximum memory used throughout the entire LEANSCF-calculation: 20.5 MB



-------------------------------------------------------------------------------
                          DFT DISPERSION CORRECTION                            
-------------------------------------------------------------------------------
Active option DFTDOPT                   ...         2   
Final C6-coefficient scaling factor     ...     1.250
Final VDW-radii scaling factor          ...     1.100
Damping factor alpha                    ...    20.000
-------------------------   ----------------
Dispersion correction           -0.027863447
-------------------------   ----------------


-------------------------   --------------------
FINAL SINGLE POINT ENERGY      -551.280996479570
-------------------------   --------------------


------------------------------------------------------------------------------
                              ORCA PROPERTY CALCULATIONS
------------------------------------------------------------------------------

GBWName                                 ... 2.gbw
Number of atoms                         ...     19
Number of basis functions               ...    185
Max core memory                         ...   4096 MB

Electric properties:
Dipole moment                           ... YES
Quadrupole moment                       ...  NO
Static polarizability (Dipole/Dipole)   ...  NO
Static polarizability (Dipole/Quad.)    ...  NO
Static polarizability (Quad./Quad.)     ...  NO
Static polarizability (Velocity)        ...  NO
Static hyperpolarizability              ...  NO

Atomic electric properties:
Dipole moment                           ...  NO
Quadrupole moment                       ...  NO
Static polarizability                   ...  NO

Choice of electric origin               ... Center of mass
Position of electric origin             ...    -2.508049     0.725940     0.685648

General magnetic properties:
Magnetizability                         ...  NO

EPR properties:
g-Tensor (aka g-matrix)                 ...  NO
Zero-Field splitting spin-orbit         ...  NO
Zero-field splitting spin-spin          ...  NO
Hyperfine couplings                     ...  NO (   0 nuclei)
Quadrupole couplings                    ...  NO (   0 nuclei)
Contact density                         ...  NO (   0 nuclei)

NMR properties:
Chemical shifts                         ...  NO (   0 nuclei)
Spin-rotation constants                 ...  NO (   0 nuclei)
Spin-spin couplings                     ...  NO (   0 nuclei,    0 pairs)

Choice of magnetic origin               ... GIAO
Position of magnetic origin             ...     0.000000     0.000000     0.000000

Properties with geometric perturbations:
SCF Hessian                             ...  NO
IR spectrum                             ...  NO
VCD spectrum                            ...  NO
X-ray spectroscopy properties:
SCF XES/XAS/RIXS spectra                ...  NO

SCF SOC stabilization energy            ...  NO
Diagonal Born-Oppenheimer correction    ...  NO

-------------
DIPOLE MOMENT
-------------

Method             : SCF
Type of density    : Electron Density
Multiplicity       :   1
Irrep              :   0
Energy             :  -551.2531330323415659 Eh
Basis              : AO
                                X                 Y                 Z
Electronic contribution:     -1.158702657      -5.957017368       3.198439583
Nuclear contribution   :      1.104338607       5.984615529      -3.025181055
                        -----------------------------------------
Total Dipole Moment    :     -0.054364050       0.027598160       0.173258528
                        -----------------------------------------
Magnitude (a.u.)       :      0.183672606
Magnitude (Debye)      :      0.466858662



--------------------
Rotational spectrum 
--------------------
 
Rotational constants in cm-1:             0.070749             0.035067             0.029313 
Rotational constants in MHz :          2121.002420          1051.281275           878.783720 

Dipole components along the rotational axes: 
x,y,z [a.u.] :    -0.024532     0.091610     0.157294 
x,y,z [Debye]:    -0.062356     0.232854     0.399810 

 

Dipole moment calculation done in   0.0 sec 

Maximum memory used throughout the entire PROP-calculation: 11.8 MB

--------------------------------
SUGGESTED CITATIONS FOR THIS RUN
--------------------------------

Below you find a list of papers that are relevant to this ORCA run
We neither can nor want to force you to cite these papers, but we appreciate if you do
You receive ORCA, which is the product of decades of hard work by many enthusiastic individuals, for free
The only thing we kindly ask in return is that you cite our papers,
We deeply appreciate it, if you show your appreciation for ORCA by not just citing the generic ORCA reference.

Please note that relegating all ORCA citations to the supporting information does *not* help us.
SI sections are not indexed - citations you put there will not count into any citation statistics
But we need these citations in order to attract the funding resources that allow us to do what we are doing

Therefore, if you are a happy ORCA user, please consider citing a few of the papers listed below in the main body of your paper

In addition to the list printed below, the program has created the file 2.bibtex that contains the list in bibtex format
You can import this file easily into all common literature databanks and citation aid programs


List of essential papers. We consider these as the minimum necessary citations

  1. Neese, F.
     Software update: the ORCA program system, version 6.0
     WIRES Comput. Molec. Sci. 2025 15(1), e70019
     doi.org/10.1002/wcms.7019

List of papers to cite with high priority. The work reported in these papers was absolutely
necessary for this run to complete.
Our perspective: the developers of density functionals and basis sets usually get cited in chemistry papers
Good! But without the algorithms to do something with them, the functionals or basis sets would not do anything.
Hence, in our opinion, the algorithm design and method developments papers are equally worthy of getting cited

  1. Neese, F.
     An improvement of the resolution of the identity approximation for the formation of the Coulomb matrix
     J. Comp. Chem. 2003 24(14), 1740-1747
     doi.org/10.1002/jcc.10318
  2. Grimme, S.
     Semiempirical GGA-type density functional constructed with a long-range dispersion correction
     J.Comput.Chem. 2006 27(15), 1787-1799
     doi.org/10.1002/jcc.20495
  3. Neese, F.
     The SHARK Integral Generation and Digestion System
     J. Comp. Chem. 2022 44(3), 381
     doi.org/10.1002/jcc.26942

List of suggested additional citations. These are papers that are important in the 'surrounding' of 
of this run, or papers that preceded the highly important papers. If you like your results we are grateful for a citation.

  1. Neese, F.
     The ORCA program system
     WIRES Comput. Molec. Sci. 2012 2(1), 73-78
     doi.org/10.1002/wcms.81
  2. Neese, F.
     Software update: the ORCA program system, version 4.0
     WIRES Comput. Molec. Sci. 2018 8(1), 1-6
     doi.org/10.1002/wcms.1327
  3. Neese, F.; Wennmohs, F.; Becker, U.; Riplinger, C.
     The ORCA quantum chemistry program package
     J. Chem. Phys. 2020 152(22), 224108
     doi.org/10.1063/5.0004608
  4. Neese, F.
     Software update: The ORCA program system—Version 5.0
     WIRES Comput. Molec. Sci. 2022 12(1), e1606
     doi.org/10.1002/wcms.1606

List of optional additional citations

  1. Neese, F.
     Approximate second-order SCF convergence for spin unrestricted wavefunctions
     Chem. Phys. Lett. 2000 325(1-3), 93-98
     doi.org/10.1016/s0009-2614(00)00662-x

Timings for individual modules:

Sum of individual times          ...        6.680 sec (=   0.111 min)
Startup calculation              ...        0.431 sec (=   0.007 min)   6.5 %
SCF iterations                   ...        6.217 sec (=   0.104 min)  93.1 %
Property calculations            ...        0.032 sec (=   0.001 min)   0.5 %
                             ****ORCA TERMINATED NORMALLY****
TOTAL RUN TIME: 0 days 0 hours 0 minutes 6 seconds 720 msec
