
                                 *****************
                                 * O   R   C   A *
                                 *****************

                                            #,                                       
                                            ###                                      
                                            ####                                     
                                            #####                                    
                                            ######                                   
                                           ########,                                 
                                     ,,################,,,,,                         
                               ,,#################################,,                 
                          ,,##########################################,,             
                       ,#########################################, ''#####,          
                    ,#############################################,,   '####,        
                  ,##################################################,,,,####,       
                ,###########''''           ''''###############################       
              ,#####''   ,,,,##########,,,,          '''####'''          '####       
            ,##' ,,,,###########################,,,                        '##       
           ' ,,###''''                  '''############,,,                           
         ,,##''                                '''############,,,,        ,,,,,,###''
      ,#''                                            '''#######################'''  
     '                                                          ''''####''''         
             ,#######,   #######,   ,#######,      ##                                
            ,#'     '#,  ##    ##  ,#'     '#,    #''#        ,####,    ,#,          
            ##       ##  ##   ,#'  ##            #'  '#       #'       ,# #          
            ##       ##  #######   ##           ,######,      #####,      #          
            '#,     ,#'  ##    ##  '#,     ,#' ,#      #,     #,   #      #          
             '#######'   ##     ##  '#######'  #'      '#     '####' #    #          



                #########################################################
                #                        -***-                          #
                #          Department of theory and spectroscopy        #
                #                                                       #
                #                      Frank Neese                      #
                #                                                       #
                #     Directorship, Architecture, Infrastructure        #
                #                    SHARK, DRIVERS                     #
                #        Core code/Algorithms in most modules           #
                #                                                       #
                #        Max Planck Institute fuer Kohlenforschung      #
                #                Kaiser Wilhelm Platz 1                 #
                #                 D-45470 Muelheim/Ruhr                 #
                #                      Germany                          #
                #                                                       #
                #                  All rights reserved                  #
                #                        -***-                          #
                #########################################################


                         Program Version 6.1.0  -  RELEASE   -
                                (GIT: $679e74b$)
                          ($2025-06-10 18:02:51 +0200$)


 With contributions from (in alphabetic order):
[Max-Planck-Institut fuer Kohlenforschung]                               
  Daniel Aravena         : Magnetic Suceptibility                        
  Michael Atanasov       : Ab Initio Ligand Field Theory (pilot matlab implementation)
  Alexander A. Auer      : GIAO ZORA, VPT2 properties, NMR spectrum      
  Ute Becker             : All parallelization in ORCA, NUMFREQ, NUMCALC 
  Giovanni Bistoni       : ED, misc. LED, open-shell LED, HFLD           
  Dmytro Bykov           : pre 5.0 version of the SCF Hessian            
  Marcos Casanova-Páez   : Triplet and SCS-CIS(D). UHF-(DLPNO)-IP/EA/STEOM-CCSD. UHF-CVS-IP/STEOM-CCSD   
  Vijay G. Chilkuri      : MRCI spin determinant printing, contributions to CSF-ICE 
  Pauline Colinet        : FMM embedding                                 
  Dipayan Datta          : RHF DLPNO-CCSD density                        
  Achintya Kumar Dutta   : EOM-CC, STEOM-CC                              
  Nicolas Foglia         : Exact transition moments, OPA infrastructure, MCD improvements    
  Dmitry Ganyushin       : Spin-Orbit,Spin-Spin,Magnetic field MRCI      
  Miquel Garcia-Rates    : C-PCM and meta-GGA Hessian, CCSD/C-PCM, Gaussian charge scheme 
  Tiago L. C. Gouveia    : GS-ROHF, GS-ROCIS                             
  Yang Guo               : DLPNO-NEVPT2, F12-NEVPT2, CIM, IAO-localization        
  Andreas Hansen         : Spin unrestricted coupled pair/coupled cluster methods 
  Ingolf Harden          : AUTO-CI MPn and infrastructure                
  Benjamin Helmich-Paris : MC-RPA, TRAH-(SCF,CASSCF), AVAS, COSX integrals, SCF dyn. polar., MC-PDFT, srDFT 
  Lee Huntington         : MR-EOM, pCC                                   
  Robert Izsak           : Overlap fitted RIJCOSX, COSX-SCS-MP3, EOM     
  Riya Kayal             : Wick's Theorem for AUTO-CI, AUTO-CI UHF-CCSDT 
  Emily Kempfer          : AUTO-CI RHF CISDT and CCSDT, approximate NEVPT4
  Christian Kollmar      : KDIIS, OOCD, Brueckner-CCSD(T), CCSD density, CASPT2, CASPT2-K, improved NEVPT2 
  Axel Koslowski         : Symmetry handling                             
  Simone Kossmann        : meta-GGA functionals, TD-DFT gradient, OOMP2, (MP2 Hessian; deprecated post 5.0) 
  Lucas Lang             : DCDCAS, Hyperfine gauge corrections, ICE-SOC+SSC
  Marvin Lechner         : AUTO-CI (C++ implementation), FIC-MRCC        
  Spencer Leger          : CASSCF response                               
  Dagmar Lenk            : GEPOL surface, SMD, ORCA-2-JSON               
  Dimitrios Liakos       : Extrapolation schemes; Compound Job, Property file
  Dimitrios Manganas     : Further ROCIS development; embedding schemes. LFT, Crystal Embedding 
  Dimitrios Pantazis     : SARC Basis sets                               
  Anastasios Papadopoulos: AUTO-CI, single reference methods and gradients 
  Taras Petrenko         : pre 6.0 DFT Hessian and TD-DFT gradient,  ECA, NRVS 
  Petra Pikulova         : Analytic Raman intensities                    
  Peter Pinski           : DLPNO-MP2, DLPNO-MP2 Gradient                 
  Shashank Vittal Rao    : ES-AILFT, MagRelax                            
  Christoph Reimann      : Effective Core Potentials                     
  Marius Retegan         : Local ZFS, SOC                                
  Christoph Riplinger    : Optimizer, TS searches, QM/MM, DLPNO-CCSD(T), (RO)-DLPNO pert. Triples 
  Michael Roemelt        : Original ROCIS implementation, recursive CI coupling coefficients
  Masaaki Saitow         : Open-shell DLPNO-CCSD energy and density      
  Barbara Sandhoefer     : DKH picture change effects                    
  Yorick L. A. Schmerwitz: GMF and freeze-and-release deltaSCF, NEB S-IDPP initial path                    
  Kantharuban Sivalingam : CASSCF convergence/infrastructure, NEVPT2, NEVPT3, NEVPT4(SD), FIC-MRCI and CEPA variants
  Bernardo de Souza      : ESD, SOC TD-DFT                               
  Georgi L. Stoychev     : AutoAux, RI-MP2 NMR, DLPNO-MP2 response, X2C  
  Van Anh Tran           : RI-MP2 g-tensors                              
  Willem Van den Heuvel  : Paramagnetic NMR                              
  Zikuan Wang            : NOTCH, Electric field optimization            
  Frank Wennmohs         : Technical directorship and infrastructure     
  Hang Xu                : AUTO-CI-Response properties                   
                                                                         
[FACCTs GmbH]                                                            
  Markus Bursch, Nicolas Foglia, Miquel Garcia-Rates, Ingolf Harden, Hagen Neugebauer, Anastasios Papadopoulos, 
  Christoph Riplinger, Bernardo de Souza, Georgi L. Stoychev                                                    
                                                                 
  APM, various basis sets, CI-OPT, improved COSX, DLPNO-Multilevel,           
  DOCKER, DRACO, updates on ESD, Fragmentator, GOAT, IRC, LR-CPCM, L-BFGS, MBIS, meta-GGA TD-DFT gradient, ML-optimized integration grids, 
  MM, NACMEs, nearIR, NEB, NEB-TS, NL-DFT gradient (VV10), 2- and 3-layer-ONIOM, interface openCOSMO-RS, QMMM,   
  Crystal-QMMM, RESP, rigid body optimization, SF, symmetry and pop. for TD-DFT, various functionals, SOLVATOR                                   
                                                                         
[Other institutions]                                                     
  V. Asgeirsson          : NEB                                           
  Christoph Bannwarth    : sTDA-DFT, sTD-DFT, PBEh-3c, B97-3c, D3        
  Giovanni Bistoni       : ETS/NOCV, ADLD/ADEX, COVALED                  
  Martin Brehm           : Molecular dynamics                            
  Ronald Cardenas        : ETS/NOCV                                      
  Martina Colucci        : COVALED                                       
  Sebastian Ehlert       : rSCAN, r2SCAN, r2SCAN-3c, D4, dhf basis sets  
  Marvin Friede          : D4 for Fr, Ra, Ac-Lr                          
  Lars Goerigk           : TD-DFT with DH, B97 family of functionals     
  Stefan Grimme          : VdW corrections, initial TS optimization, DFT functionals, gCP, sTDA/sTD-DF 
  Waldemar Hujo          : DFT-NL                                        
  H. Jonsson             : NEB                                           
  Holger Kruse           : gCP                                           
  Marcel Mueller         : wB97X-3c, vDZP basis set                      
  Hagen Neugebauer       : wr2SCAN, Native XTB                           
  Gianluca Regni         : ADLD/ADEX                                     
  Tobias Risthaus        : pre 6.0 range-separated hybrid DFT and stability analysis
  Lukas Wittmann         : regularized MP2, r2SCAN double-hybrids, wr2SCAN        
                                                                         
We gratefully acknowledge several colleagues who have allowed us to      
interface, adapt or use parts of their codes:                            
  Ed Valeev, F. Pavosevic, A. Kumar             : LibInt (2-el integral package), F12 methods 
  Garnet Chan, S. Sharma, J. Yang, R. Olivares  : DMRG                   
  Ulf Ekstrom                                   : XCFun DFT Library      
  Mihaly Kallay                                 : mrcc  (arbitrary order and MRCC methods)
  Frank Weinhold                                : gennbo (NPA and NBO analysis)           
  Simon Mueller                                 : openCOSMO-RS                            
  Christopher J. Cramer and Donald G. Truhlar   : smd solvation model                     
  S Lehtola, MJT Oliveira, MAL Marques          : LibXC Library                           
  Liviu Ungur et al                             : ANISO software                          


 Your calculation uses the libint2 library for the computation of 2-el integrals
 For citations please refer to: http://libint.valeyev.net

 Your ORCA version has been built with support for libXC version: 7.0.0
 For citations please refer to: https://libxc.gitlab.io

 This ORCA versions uses:
   CBLAS   interface :  Fast vector & matrix operations
   LAPACKE interface :  Fast linear algebra routines
   SCALAPACK package :  Parallel linear algebra routines
   Shared memory     :  Shared parallel matrices
   BLAS/LAPACK       :  OpenBLAS 0.3.29  USE64BITINT DYNAMIC_ARCH NO_AFFINITY Haswell SINGLE_THREADED
        Core in use  :  Haswell
   Copyright (c) 2011-2014, The OpenBLAS Project


  ***********************************
  * Starting time: Wed Sep  3 07:46:38 2025
  * Host name:     chemlab03
  * Process ID:    120356
  * Working dir.:  /home/vivek/mm-project/vivek/xtb-goat/MP2-opt/k/4
  ***********************************



***************************************
The coordinates will be read from file: /home/vivek/mm-project/vivek/xtb-goat/xtb-goat/k/K_CONF/4.xyz
***************************************


================================================================================

----- Orbital basis set information -----
Your calculation utilizes the basis: 6-31G**
   H-He, Li-Ne : W. J. Hehre, R. Ditchfield and J.A. Pople, J. Chem. Phys. 56, 2257 (1972).
                 Note: He and Ne are unpublished basis sets taken from the Gaussian program.
                 Note: Li and B from J. D. Dill and J. A. Pople, J. Chem. Phys. 62, 2921 (1975).
   Na - Ar     : M. M. Francl, W. J. Pietro, W. J. Hehre, J. S. Binkley, M. S. Gordon, 
                 D. J. DeFrees and J. A. Pople, J. Chem. Phys. 77, 3654 (1982).
   K - Zn      : V. A. Rassolov, J. A. Pople, M. A. Ratner, and T. L. Windus, J. Chem. Phys. 109, 1223 (1998).

================================================================================
                                        WARNINGS
                       Please study these warnings very carefully!
================================================================================


WARNING: The frozen-core approximation for MP2-gradient calculations is turned on by default.

WARNING: Geometry Optimization
  ===> : Switching off AutoStart
         For restart on a previous wavefunction, please use MOREAD

WARNING: Post HF methods need fully converged wavefunctions
  ===> : Setting SCFConvForced true
         You can overwrite this default with %scf ConvForced false 


================================================================================
                                       INPUT FILE
================================================================================
NAME = 4.inp
|  1> ! MP2 6-31G** opt
|  2> 
|  3> * xyzfile 0 1 /home/vivek/mm-project/vivek/xtb-goat/xtb-goat/k/K_CONF/4.xyz
|  4> 
|  5>                          ****END OF INPUT****
================================================================================

                       *****************************
                       * Geometry Optimization Run *
                       *****************************

Geometry optimization settings:
Update method            Update   .... BFGS
Choice of coordinates    CoordSys .... (2022) Redundant Internals
Initial Hessian          InHess   .... Almloef's Model
Max. no of cycles        MaxIter  .... 72

Convergence Tolerances:
Energy Change            TolE     ....  5.0000e-06 Eh
Max. Gradient            TolMAXG  ....  3.0000e-04 Eh/bohr
RMS Gradient             TolRMSG  ....  1.0000e-04 Eh/bohr
Max. Displacement        TolMAXD  ....  4.0000e-03 bohr
RMS Displacement         TolRMSD  ....  2.0000e-03 bohr
Strict Convergence                .... False

------------------------------------------------------------------------------
                        ORCA OPTIMIZATION COORDINATE SETUP
------------------------------------------------------------------------------

The optimization will be done in redundant internal coordinates (2022)
Making redundant internal coordinates   ...  (2022 redundants) done
Evaluating the initial hessian          ...  (Almloef) done
Evaluating the coordinates              ...  done
Calculating the B-matrix                .... done
Calculating the G-matrix                .... done
The number of degrees of freedom        ....  104

    -----------------------------------------------------------------
                    Redundant Internal Coordinates


    -----------------------------------------------------------------
         Definition                    Initial Value    Approx d2E/dq
    -----------------------------------------------------------------
      1. B(C   1,C   0)                  1.5357         0.365852   
      2. B(N   4,H   2)                  1.0151         0.424753   
      3. B(N   4,C   0)                  1.4512         0.446997   
      4. B(N   4,H   3)                  1.0150         0.424809   
      5. B(C   5,C   1)                  1.5262         0.378796   
      6. B(H   6,C   1)                  1.0938         0.355060   
      7. B(H   7,C   1)                  1.0937         0.355269   
      8. B(C   8,C   5)                  1.5252         0.380170   
      9. B(H   9,C   5)                  1.0921         0.357391   
     10. B(H  10,C   5)                  1.0914         0.358241   
     11. B(C  11,C   8)                  1.5394         0.360912   
     12. B(H  12,C   8)                  1.0929         0.356260   
     13. B(H  13,C   8)                  1.0913         0.358410   
     14. B(C  14,C  11)                  1.5228         0.383656   
     15. B(N  16,C  11)                  1.4515         0.446493   
     16. B(O  17,H  15)                  0.9714         0.498678   
     17. B(O  17,C  14)                  1.3371         0.679627   
     18. B(H  18,C   0)                  1.0937         0.355299   
     19. B(H  19,C   0)                  1.0935         0.355511   
     20. B(H  20,N  16)                  1.0148         0.425198   
     21. B(O  21,C  14)                  1.2034         1.110498   
     22. B(H  22,C  11)                  1.0946         0.354124   
     23. B(H  23,N  16)                  1.0160         0.423252   
     24. A(C   1,C   0,H  19)          109.4307         0.322530   
     25. A(C   1,C   0,N   4)          114.8463         0.371035   
     26. A(N   4,C   0,H  18)          107.4647         0.331319   
     27. A(C   1,C   0,H  18)          109.4782         0.322498   
     28. A(H  18,C   0,H  19)          107.9066         0.289644   
     29. A(N   4,C   0,H  19)          107.4828         0.331351   
     30. A(C   5,C   1,H   6)          109.4631         0.324307   
     31. A(C   5,C   1,H   7)          109.4054         0.324339   
     32. A(C   0,C   1,H   6)          109.1134         0.322463   
     33. A(C   0,C   1,C   5)          111.9151         0.362917   
     34. A(H   6,C   1,H   7)          107.7123         0.289582   
     35. A(C   0,C   1,H   7)          109.1367         0.322494   
     36. A(C   0,N   4,H   3)          110.1738         0.338379   
     37. A(C   0,N   4,H   2)          110.1831         0.338372   
     38. A(H   2,N   4,H   3)          107.4558         0.301471   
     39. A(C   8,C   5,H  10)          110.0175         0.324976   
     40. A(C   1,C   5,H  10)          109.2152         0.324783   
     41. A(C   8,C   5,H   9)          109.2858         0.324849   
     42. A(C   1,C   5,H   9)          109.2499         0.324656   
     43. A(C   1,C   5,C   8)          111.5449         0.365307   
     44. A(H   9,C   5,H  10)          107.4336         0.290259   
     45. A(H  12,C   8,H  13)          107.7948         0.290136   
     46. A(C  11,C   8,H  12)          108.8738         0.321923   
     47. A(C  11,C   8,H  13)          106.7332         0.322241   
     48. A(C   5,C   8,H  13)          109.8835         0.325001   
     49. A(C   5,C   8,H  12)          110.0872         0.324680   
     50. A(C   5,C   8,C  11)          113.2768         0.362299   
     51. A(C  14,C  11,N  16)          111.8900         0.374012   
     52. A(C   8,C  11,N  16)          108.9003         0.370097   
     53. A(C   8,C  11,C  14)          109.0061         0.362864   
     54. A(N  16,C  11,H  22)          108.9054         0.331075   
     55. A(C  14,C  11,H  22)          108.7759         0.324846   
     56. A(C   8,C  11,H  22)          109.3314         0.321606   
     57. A(C  11,C  14,O  17)          113.1143         0.402444   
     58. A(O  17,C  14,O  21)          122.6842         0.484406   
     59. A(C  11,C  14,O  21)          124.2014         0.439288   
     60. A(H  20,N  16,H  23)          107.0463         0.301345   
     61. A(C  11,N  16,H  23)          109.1319         0.338108   
     62. A(C  11,N  16,H  20)          110.4728         0.338367   
     63. A(C  14,O  17,H  15)          110.5587         0.373318   
     64. D(H   6,C   1,C   0,H  19)   -179.6864         0.010715   
     65. D(H   6,C   1,C   0,N   4)    -58.7289         0.010715   
     66. D(H   6,C   1,C   0,H  18)     62.2406         0.010715   
     67. D(C   5,C   1,C   0,N   4)    179.9708         0.010715   
     68. D(C   5,C   1,C   0,H  18)    -59.0596         0.010715   
     69. D(C   5,C   1,C   0,H  19)     59.0134         0.010715   
     70. D(H   2,N   4,C   0,C   1)     58.9997         0.017042   
     71. D(H   3,N   4,C   0,H  18)    178.5387         0.017042   
     72. D(H   3,N   4,C   0,C   1)    -59.3948         0.017042   
     73. D(H   2,N   4,C   0,H  19)   -178.9815         0.017042   
     74. D(H   2,N   4,C   0,H  18)    -63.0668         0.017042   
     75. D(H   9,C   5,C   1,C   0)    -58.3649         0.011440   
     76. D(C   8,C   5,C   1,H   6)     59.6067         0.011440   
     77. D(C   8,C   5,C   1,C   0)   -179.2951         0.011440   
     78. D(C   8,C   5,C   1,H   7)    -58.2069         0.011440   
     79. D(H   9,C   5,C   1,H   7)     62.7233         0.011440   
     80. D(H   9,C   5,C   1,H   6)   -179.4631         0.011440   
     81. D(H  12,C   8,C   5,H   9)   -178.5217         0.011518   
     82. D(H  12,C   8,C   5,C   1)    -57.6125         0.011518   
     83. D(C  11,C   8,C   5,H  10)    -58.4106         0.011518   
     84. D(C  11,C   8,C   5,H   9)     59.3192         0.011518   
     85. D(H  12,C   8,C   5,H  10)     63.7485         0.011518   
     86. D(C  11,C   8,C   5,C   1)   -179.7716         0.011518   
     87. D(N  16,C  11,C   8,H  13)    -42.3444         0.010447   
     88. D(N  16,C  11,C   8,H  12)     73.7617         0.010447   
     89. D(N  16,C  11,C   8,C   5)   -163.4053         0.010447   
     90. D(C  14,C  11,C   8,H  13)   -164.6698         0.010447   
     91. D(C  14,C  11,C   8,H  12)    -48.5637         0.010447   
     92. D(C  14,C  11,C   8,C   5)     74.2693         0.010447   
     93. D(O  17,C  14,C  11,N  16)    152.3617         0.010971   
     94. D(O  17,C  14,C  11,C   8)    -87.1330         0.010971   
     95. D(O  21,C  14,C  11,N  16)    -27.4858         0.010971   
     96. D(O  21,C  14,C  11,C   8)     93.0194         0.010971   
     97. D(O  17,C  14,C  11,H  22)     32.0037         0.010971   
     98. D(H  23,N  16,C  11,C  14)     55.2607         0.017003   
     99. D(H  23,N  16,C  11,C   8)    -65.3061         0.017003   
    100. D(H  20,N  16,C  11,H  22)     58.1100         0.017003   
    101. D(H  20,N  16,C  11,C  14)    -62.1725         0.017003   
    102. D(H  20,N  16,C  11,C   8)    177.2607         0.017003   
    103. D(H  15,O  17,C  14,O  21)     -1.0672         0.034399   
    104. D(H  15,O  17,C  14,C  11)    179.0827         0.034399   
    -----------------------------------------------------------------

Number of atoms                         .... 24
Number of degrees of freedom            .... 104


         *************************************************************
         *                GEOMETRY OPTIMIZATION CYCLE   1            *
         *************************************************************
---------------------------------
CARTESIAN COORDINATES (ANGSTROEM)
---------------------------------
  C    -13.851986    7.254313    0.562341
  C    -12.823895    6.314767    1.209344
  H    -14.713251    7.988295    2.257069
  H    -15.500105    6.700031    1.624665
  N    -15.007225    7.555053    1.387466
  C    -11.639642    6.043444    0.285611
  H    -12.464813    6.763254    2.140149
  H    -13.311668    5.369094    1.462149
  C    -10.632576    5.096064    0.929532
  H    -12.002918    5.604686   -0.646112
  H    -11.155648    6.988993    0.034889
  C     -9.417153    4.799129    0.032710
  H    -10.279802    5.510834    1.877154
  H    -11.108246    4.137099    1.141706
  C     -8.504828    6.018183    0.014292
  H     -8.242573    7.675871   -0.895057
  N     -8.736275    3.621253    0.538437
  O     -8.837911    6.908925   -0.925643
  H    -13.371157    8.204182    0.312080
  H    -14.218691    6.808189   -0.366219
  H     -7.955753    3.377124   -0.062343
  O     -7.573828    6.177682    0.759993
  H     -9.759742    4.600033   -0.987606
  H     -8.352565    3.826880    1.456462

----------------------------
CARTESIAN COORDINATES (A.U.)
----------------------------
  NO LB      ZA    FRAG     MASS         X           Y           Z
   0 C     6.0000    0    12.011  -26.176461   13.708665    1.062670
   1 C     6.0000    0    12.011  -24.233650   11.933180    2.285328
   2 H     1.0000    0     1.008  -27.804016   15.095690    4.265243
   3 H     1.0000    0     1.008  -29.290954   12.661225    3.070173
   4 N     7.0000    0    14.007  -28.359546   14.276981    2.621932
   5 C     6.0000    0    12.011  -21.995736   11.420454    0.539726
   6 H     1.0000    0     1.008  -23.555083   12.780698    4.044295
   7 H     1.0000    0     1.008  -25.155406   10.146118    2.763061
   8 C     6.0000    0    12.011  -20.092657    9.630166    1.756561
   9 H     1.0000    0     1.008  -22.682227   10.591322   -1.220975
  10 H     1.0000    0     1.008  -21.081120   13.207282    0.065931
  11 C     6.0000    0    12.011  -17.795841    9.069040    0.061814
  12 H     1.0000    0     1.008  -19.426011   10.413966    3.547306
  13 H     1.0000    0     1.008  -20.991543    7.817984    2.157511
  14 C     6.0000    0    12.011  -16.071795   11.372718    0.027008
  15 H     1.0000    0     1.008  -15.576206   14.505293   -1.691412
  16 N     7.0000    0    14.007  -16.509168    6.843176    1.017498
  17 O     8.0000    0    15.999  -16.701231   13.055976   -1.749212
  18 H     1.0000    0     1.008  -25.267825   15.503658    0.589745
  19 H     1.0000    0     1.008  -26.869433   12.865612   -0.692054
  20 H     1.0000    0     1.008  -15.034195    6.381840   -0.117811
  21 O     8.0000    0    15.999  -14.312460   11.674127    1.436179
  22 H     1.0000    0     1.008  -18.443240    8.692803   -1.866305
  23 H     1.0000    0     1.008  -15.784061    7.231755    2.752314

--------------------------------
INTERNAL COORDINATES (ANGSTROEM)
--------------------------------
 C      0   0   0     0.000000000000     0.00000000     0.00000000
 C      1   0   0     1.535686108340     0.00000000     0.00000000
 H      1   2   0     2.037795908974    98.79663884     0.00000000
 H      3   1   2     1.636672592867    66.31787327   265.91274761
 N      4   3   1     1.015015358744    36.27285689   320.82042547
 C      2   1   3     1.526222026926   111.91514055   203.89427920
 H      2   1   3     1.093836662839   109.11337368   325.19453393
 H      2   1   3     1.093676912045   109.13672881    82.65080745
 C      6   2   1     1.525235913595   111.54485888   180.70486625
 H      6   2   1     1.092055228866   109.24986107   301.63506710
 H      6   2   1     1.091408850003   109.21523225    58.87890157
 C      9   6   2     1.539386989270   113.27678588   180.22840179
 H      9   6   2     1.092917981266   110.08720994   302.38749756
 H      9   6   2     1.091280739783   109.88347573    60.96131593
 C     12   9   6     1.522751198482   109.00605798    74.26928166
 H     15  12   9     1.908826704136   141.56460664   273.57008602
 N     12   9   6     1.451463493308   108.90033010   196.59471962
 O     16  15  12     0.971374256140    40.98581694   358.64270172
 H      1   2   3     1.093653759508   109.47821479    97.04611248
 H      1   2   3     1.093491290841   109.43067083   215.11908546
 H     17  12   9     1.014765835571   110.47279171   177.26069066
 O     15  12   9     1.203441470328   124.20137759    93.01944822
 H     12   9   6     1.094555720321   109.33140920   315.47921611
 H     17  12   9     1.016014713739   109.13187416   294.69394571

---------------------------
INTERNAL COORDINATES (A.U.)
---------------------------
 C      0   0   0     0.000000000000     0.00000000     0.00000000
 C      1   0   0     2.902026172430     0.00000000     0.00000000
 H      1   2   0     3.850876184786    98.79663884     0.00000000
 H      3   1   2     3.092862971414    66.31787327   265.91274761
 N      4   3   1     1.918101049750    36.27285689   320.82042547
 C      2   1   3     2.884141650447   111.91514055   203.89427920
 H      2   1   3     2.067051728008   109.11337368   325.19453393
 H      2   1   3     2.066749842758   109.13672881    82.65080745
 C      6   2   1     2.882278166316   111.54485888   180.70486625
 H      6   2   1     2.063685305674   109.24986107   301.63506710
 H      6   2   1     2.062463826643   109.21523225    58.87890157
 C      9   6   2     2.909019823843   113.27678588   180.22840179
 H      9   6   2     2.065315671431   110.08720994   302.38749756
 H      9   6   2     2.062221733413   109.88347573    60.96131593
 C     12   9   6     2.877582735230   109.00605798    74.26928166
 H     15  12   9     3.607159707932   141.56460664   273.57008602
 N     12   9   6     2.742868495737   108.90033010   196.59471962
 O     16  15  12     1.835631317647    40.98581694   358.64270172
 H      1   2   3     2.066706090803   109.47821479    97.04611248
 H      1   2   3     2.066399069517   109.43067083   215.11908546
 H     17  12   9     1.917629519290   110.47279171   177.26069066
 O     15  12   9     2.274174797123   124.20137759    93.01944822
 H     12   9   6     2.068410549724   109.33140920   315.47921611
 H     17  12   9     1.919989557001   109.13187416   294.69394571

---------------------
BASIS SET INFORMATION
---------------------
There are 4 groups of distinct atoms

 Group   1 Type C   : 10s4p1d contracted to 3s2p1d pattern {631/31/1}
 Group   2 Type H   : 4s1p contracted to 2s1p pattern {31/1}
 Group   3 Type N   : 10s4p1d contracted to 3s2p1d pattern {631/31/1}
 Group   4 Type O   : 10s4p1d contracted to 3s2p1d pattern {631/31/1}

Atom   0C    basis set group =>   1
Atom   1C    basis set group =>   1
Atom   2H    basis set group =>   2
Atom   3H    basis set group =>   2
Atom   4N    basis set group =>   3
Atom   5C    basis set group =>   1
Atom   6H    basis set group =>   2
Atom   7H    basis set group =>   2
Atom   8C    basis set group =>   1
Atom   9H    basis set group =>   2
Atom  10H    basis set group =>   2
Atom  11C    basis set group =>   1
Atom  12H    basis set group =>   2
Atom  13H    basis set group =>   2
Atom  14C    basis set group =>   1
Atom  15H    basis set group =>   2
Atom  16N    basis set group =>   3
Atom  17O    basis set group =>   4
Atom  18H    basis set group =>   2
Atom  19H    basis set group =>   2
Atom  20H    basis set group =>   2
Atom  21O    basis set group =>   4
Atom  22H    basis set group =>   2
Atom  23H    basis set group =>   2
------------------------------------------------------------------------------
                             ORCA STARTUP CALCULATIONS
------------------------------------------------------------------------------
------------------------------------------------------------------------------
                   ___                                                        
                  /   \      - P O W E R E D   B Y -                         
                 /     \                                                     
                 |  |  |   _    _      __       _____    __    __             
                 |  |  |  | |  | |    /  \     |  _  \  |  |  /  |          
                  \  \/   | |  | |   /    \    | | | |  |  | /  /          
                 / \  \   | |__| |  /  /\  \   | |_| |  |  |/  /          
                |  |  |   |  __  | /  /__\  \  |    /   |      \           
                |  |  |   | |  | | |   __   |  |    \   |  |\   \          
                \     /   | |  | | |  |  |  |  | |\  \  |  | \   \       
                 \___/    |_|  |_| |__|  |__|  |_| \__\ |__|  \__/        
                                                                              
                      - O R C A' S   B I G   F R I E N D -                    
                                      &                                       
                       - I N T E G R A L  F E E D E R -                       
                                                                              
 v1 FN, 2020, v2 2021, v3 2022-2024                                           
------------------------------------------------------------------------------


----------------------
SHARK INTEGRAL PACKAGE
----------------------

Number of atoms                             ...     24
Number of basis functions                   ...    210
Number of shells                            ...    102
Maximum angular momentum                    ...      2
Integral batch strategy                     ... SHARK/LIBINT Hybrid
RI-J (if used) integral strategy            ... SPLIT-RIJ (Revised 2003 algorithm where possible)
Printlevel                                  ...      1
Contraction scheme used                     ... SEGMENTED contraction
Prescreening option                         ... SCHWARTZ
   Thresh                                   ... 2.500e-11
   Tcut                                     ... 2.500e-12
   Tpresel                                  ... 2.500e-12 
Coulomb Range Separation                    ... NOT USED
Exchange Range Separation                   ... NOT USED
Multipole approximations                    ... NOT USED
Finite Nucleus Model                        ... NOT USED
CABS basis                                  ... NOT available
Auxiliary Coulomb fitting basis             ... NOT available
Auxiliary J/K fitting basis                 ... NOT available
Auxiliary Correlation fitting basis         ... NOT available
Auxiliary 'external' fitting basis          ... NOT available

Checking pre-screening integrals            ... done (  0.0 sec) Dimension = 102
   => SHARK Basis and OBASIS are compatible. Storing Pre-screening
Shell pair information
Shell pair cut-off parameter TPreSel        ...   2.5e-12
Total number of shell pairs                 ...      5253
Shell pairs after pre-screening             ...      4301
Total number of primitive shell pairs       ...     24562
Primitive shell pairs kept                  ...     13154
          la=0 lb=0:   1429 shell pairs
          la=1 lb=0:   1618 shell pairs
          la=1 lb=1:    481 shell pairs
          la=2 lb=0:    464 shell pairs
          la=2 lb=1:    267 shell pairs
          la=2 lb=2:     42 shell pairs

Checking whether 4 symmetric matrices of dimension 210 fit in memory
:Max Core in MB      =   4096.00
 MB in use           =      6.92
 MB left             =   4089.08
 MB needed           =      0.68
 Data fit in memory  = YES
Calculating Nuclear repulsion               ... done (  0.0 sec) ENN=    550.812511994560 Eh

Diagonalization of the overlap matrix:
Smallest eigenvalue                        ... 2.817e-03
Time for diagonalization                   ...    0.002 sec
Threshold for overlap eigenvalues          ... 1.000e-07
Number of eigenvalues below threshold      ... 0
Time for construction of square roots      ...    0.001 sec
Total time needed                          ...    0.003 sec

-------------------
DFT GRID GENERATION
-------------------

General Integration Accuracy     IntAcc      ... 4.388
Radial Grid Type                 RadialGrid  ... OptM3 with GC (2021)
Angular Grid (max. ang.)         AngularGrid ... 4 (Lebedev-302)
Angular grid pruning method      GridPruning ... 4 (adaptive)
Weight generation scheme         WeightScheme... mBecke (2022)
Basis function cutoff            BFCut       ... 1.0000e-11
Integration weight cutoff        WCut        ... 1.0000e-14
Partially contracted basis set               ... off
Rotationally invariant grid construction     ... off
Angular grids for H and He will be reduced by one unit

Total number of grid points                  ...   105014
Total number of batches                      ...     1653
Average number of points per batch           ...       63
Average number of grid points per atom       ...     4376
Grids setup in   0.4 sec
Initializing property integral containers    ... done (  0.0 sec)

SHARK setup successfully completed in   0.5 seconds

Maximum memory used throughout the entire STARTUP-calculation: 41.7 MB
-------------------------------------------------------------------------------
                                 ORCA GUESS
                   Start orbitals & Density for SCF / CASSCF
-------------------------------------------------------------------------------

------------
SCF SETTINGS
------------
Hamiltonian:
 Ab initio Hamiltonian  Method          .... Hartree-Fock(GTOs)


General Settings:
 Integral files         IntName         .... 4
 Hartree-Fock type      HFTyp           .... RHF
 Total Charge           Charge          ....    0
 Multiplicity           Mult            ....    1
 Number of Electrons    NEL             ....   80
 Basis Dimension        Dim             ....  210
 Nuclear Repulsion      ENuc            ....    550.8125119946 Eh

Convergence Acceleration:
 AO-DIIS                CNVDIIS         .... on
   Start iteration      DIISMaxIt       ....    12
   Startup error        DIISStart       ....  0.200000
   # of expansion vecs  DIISMaxEq       ....     5
   Bias factor          DIISBfac        ....   1.050
   Max. coefficient     DIISMaxC        ....  10.000
 MO-DIIS                CNVKDIIS        .... off
 Trust-Rad. Augm. Hess. CNVTRAH         .... auto
   Auto Start mean grad. ratio tolernc. ....  1.125000
   Auto Start start iteration           ....    50
   Auto Start num. interpolation iter.  ....    10
   Max. Number of Micro iterations      ....    24
   Max. Number of Macro iterations      .... Maxiter - #DIIS iter
   Number of Davidson start vectors     ....     2
   Converg. threshold    (grad. norm)   ....   1.000e-05
   Grad. Scal. Fac. for Micro threshold ....   0.100
   Minimum threshold for Micro iter.    ....   1.000e-02
   NR start threshold (gradient norm)   ....   1.000e-04
   Initial trust radius                 ....   0.400
   Minimum AH scaling param. (alpha)    ....   1.000
   Maximum AH scaling param. (alpha)    .... 1000.000
   Quad. conv. algorithm                .... NR
   White noise on init. David. guess    .... on
   Maximum white noise                  ....   0.010
   Pseudo random numbers                .... off
   Inactive MOs                         .... canonical
   Orbital update algorithm             .... Taylor
   Preconditioner                       .... Diag
   Full preconditioner red. dimension   ....   250
 SOSCF                 CNVSOSCF           .... on
   Start iteration     SOSCFMaxIt         ....   150
   Startup grad/error  SOSCFStart         ....  0.003300
   Hessian update      SOSCFHessUp        .... L-BFGS
   Autom. constraints  SOSCFAutoConstrain .... off
 Level Shifting         CNVShift        .... on
   Level shift para.    LevelShift      ....    0.2500
   Turn off err/grad.   ShiftErr        ....    0.0010
 Zerner damping         CNVZerner       .... off
 Static damping         CNVDamp         .... on
   Fraction old density DampFac         ....    0.7000
   Max. Damping (<1)    DampMax         ....    0.9800
   Min. Damping (>=0)   DampMin         ....    0.0000
   Turn off err/grad.   DampErr         ....    0.1000

SCF Procedure:
 Maximum # iterations   MaxIter         ....   125
 SCF integral mode      SCFMode         .... Direct
   Integral package                     .... SHARK and LIBINT hybrid scheme
 Reset frequency        DirectResetFreq ....    20
 Integral Threshold     Thresh          ....  2.500e-11 Eh
 Primitive CutOff       TCut            ....  2.500e-12 Eh

Convergence Tolerance:
 Convergence Check Mode ConvCheckMode   .... Total+1el-Energy
 Convergence forced     ConvForced      .... 1
 Energy Change          TolE            ....  1.000e-08 Eh
 1-El. energy change                    ....  1.000e-05 Eh
 Orbital Gradient       TolG            ....  1.000e-05
 Orbital Rotation angle TolX            ....  1.000e-05
 DIIS Error             TolErr          ....  5.000e-07

------------------------------
INITIAL GUESS: MODEL POTENTIAL
------------------------------
Loading Hartree-Fock densities                     ... done
Calculating cut-offs                               ... done
Initializing the effective Hamiltonian             ... done
Setting up the integral package (SHARK)            ... done
Starting the Coulomb interaction                   ... done (   0.1 sec)
Making the grid                                    ... done (   0.1 sec)
Mapping shells                                     ... done
Starting the XC term evaluation                    ... done (   0.1 sec)
Transforming the Hamiltonian                       ... done (   0.0 sec)
Diagonalizing the Hamiltonian                      ... done (   0.0 sec)
Back transforming the eigenvectors                 ... done (   0.0 sec)
Now organizing SCF variables                       ... done
                      ------------------
                      INITIAL GUESS DONE (   0.3 sec)
                      ------------------
             **** ENERGY FILE WAS UPDATED (4.en.tmp) ****
Finished Guess after   0.3 sec
Maximum memory used throughout the entire GUESS-calculation: 12.4 MB

-------------------------------------------------------------------------------------------
                                      ORCA LEAN-SCF
                              memory conserving SCF solver
-------------------------------------------------------------------------------------------

----------------------------------------D-I-I-S--------------------------------------------
Iteration    Energy (Eh)           Delta-E    RMSDP     MaxDP     DIISErr   Damp  Time(sec)
-------------------------------------------------------------------------------------------
               ***  Starting incremental Fock matrix formation  ***
    1    -493.5181851005758062     0.00e+00  2.40e-03  6.52e-02  2.62e-01  0.700   2.2
    2    -493.6986860684997964    -1.81e-01  1.81e-03  4.72e-02  1.63e-01  0.700   2.1
                               ***Turning on AO-DIIS***
    3    -493.8045513514479126    -1.06e-01  9.64e-04  2.17e-02  9.24e-02  0.700   2.1
    4    -493.8710229996510179    -6.65e-02  2.16e-03  4.52e-02  6.21e-02  0.000   2.0
    5    -494.0178785442730032    -1.47e-01  2.45e-04  4.63e-03  5.12e-03  0.000   2.1
                              *** Initializing SOSCF ***
---------------------------------------S-O-S-C-F--------------------------------------
Iteration    Energy (Eh)           Delta-E    RMSDP     MaxDP     MaxGrad    Time(sec)
--------------------------------------------------------------------------------------
    6    -494.0184200340601137    -5.41e-04  1.22e-04  2.99e-03  3.13e-03     1.9
               *** Restarting incremental Fock matrix formation ***
    7    -494.0185358758186567    -1.16e-04  7.28e-05  1.81e-03  1.25e-03     2.2
    8    -494.0185684208801149    -3.25e-05  6.98e-05  1.77e-03  4.39e-04     1.8
    9    -494.0185797242903618    -1.13e-05  1.16e-05  1.86e-04  1.47e-04     1.8
   10    -494.0185804644348764    -7.40e-07  7.10e-06  1.45e-04  4.80e-05     1.6
   11    -494.0185806107052713    -1.46e-07  1.61e-06  4.07e-05  1.73e-05     1.6
   12    -494.0185806227115108    -1.20e-08  4.18e-07  1.12e-05  3.05e-06     1.4
   13    -494.0185806241626096    -1.45e-09  1.52e-07  3.87e-06  1.02e-06     1.2
                 **** Energy Check signals convergence ****

               *****************************************************
               *                     SUCCESS                       *
               *           SCF CONVERGED AFTER  13 CYCLES          *
               *****************************************************

             **** ENERGY FILE WAS UPDATED (4.en.tmp) ****

----------------
TOTAL SCF ENERGY
----------------

Total Energy       :       -494.01858062603571 Eh          -13442.92900 eV

Components:
Nuclear Repulsion  :        550.81251199456017 Eh           14988.37045 eV
Electronic Energy  :      -1044.83109262059588 Eh          -28431.29945 eV
One Electron Energy:      -1766.53138894026984 Eh          -48069.76291 eV
Two Electron Energy:        721.70029631967395 Eh           19638.46346 eV

Virial components:
Potential Energy   :       -987.55511730150658 Eh          -26872.74093 eV
Kinetic Energy     :        493.53653667547087 Eh           13429.81192 eV
Virial Ratio       :          2.00097671380889

---------------
SCF CONVERGENCE
---------------

  Last Energy change         ...    1.4511e-09  Tolerance :   1.0000e-08
  Last MAX-Density change    ...    3.8681e-06  Tolerance :   1.0000e-07
  Last RMS-Density change    ...    1.5220e-07  Tolerance :   5.0000e-09
  Last DIIS Error            ...    3.1346e-03  Tolerance :   5.0000e-07
  Last Orbital Gradient      ...    1.0167e-06  Tolerance :   1.0000e-05
  Last Orbital Rotation      ...    1.6450e-06  Tolerance :   1.0000e-05


----------------
ORBITAL ENERGIES
----------------

  NO   OCC          E(Eh)            E(eV) 
   0   2.0000     -20.621299      -561.1341 
   1   2.0000     -20.555295      -559.3380 
   2   2.0000     -15.548226      -423.0887 
   3   2.0000     -15.536414      -422.7673 
   4   2.0000     -11.383986      -309.7740 
   5   2.0000     -11.273484      -306.7671 
   6   2.0000     -11.244091      -305.9673 
   7   2.0000     -11.230350      -305.5934 
   8   2.0000     -11.221983      -305.3657 
   9   2.0000     -11.218568      -305.2727 
  10   2.0000      -1.471415       -40.0392 
  11   2.0000      -1.364397       -37.1271 
  12   2.0000      -1.197973       -32.5985 
  13   2.0000      -1.177783       -32.0491 
  14   2.0000      -1.077561       -29.3219 
  15   2.0000      -0.999425       -27.1957 
  16   2.0000      -0.925623       -25.1875 
  17   2.0000      -0.856361       -23.3028 
  18   2.0000      -0.806663       -21.9504 
  19   2.0000      -0.790317       -21.5056 
  20   2.0000      -0.715091       -19.4586 
  21   2.0000      -0.700577       -19.0637 
  22   2.0000      -0.678903       -18.4739 
  23   2.0000      -0.662985       -18.0407 
  24   2.0000      -0.641484       -17.4557 
  25   2.0000      -0.622415       -16.9368 
  26   2.0000      -0.602245       -16.3879 
  27   2.0000      -0.590859       -16.0781 
  28   2.0000      -0.583819       -15.8865 
  29   2.0000      -0.560498       -15.2519 
  30   2.0000      -0.545047       -14.8315 
  31   2.0000      -0.510872       -13.9015 
  32   2.0000      -0.500980       -13.6324 
  33   2.0000      -0.491445       -13.3729 
  34   2.0000      -0.484843       -13.1933 
  35   2.0000      -0.474414       -12.9095 
  36   2.0000      -0.467966       -12.7340 
  37   2.0000      -0.451585       -12.2883 
  38   2.0000      -0.402275       -10.9465 
  39   2.0000      -0.375881       -10.2282 
  40   0.0000       0.179300         4.8790 
  41   0.0000       0.217771         5.9259 
  42   0.0000       0.220779         6.0077 
  43   0.0000       0.235717         6.4142 
  44   0.0000       0.252147         6.8613 
  45   0.0000       0.253449         6.8967 
  46   0.0000       0.271125         7.3777 
  47   0.0000       0.289710         7.8834 
  48   0.0000       0.310129         8.4390 
  49   0.0000       0.320148         8.7117 
  50   0.0000       0.338687         9.2162 
*Only the first 10 virtual orbitals were printed.

                    ********************************
                    * MULLIKEN POPULATION ANALYSIS *
                    ********************************

-----------------------
MULLIKEN ATOMIC CHARGES
-----------------------
   0 C :   -0.021239
   1 C :   -0.225635
   2 H :    0.258495
   3 H :    0.258801
   4 N :   -0.699026
   5 C :   -0.226900
   6 H :    0.101830
   7 H :    0.102576
   8 C :   -0.229992
   9 H :    0.114379
  10 H :    0.129348
  11 C :   -0.030065
  12 H :    0.123376
  13 H :    0.149552
  14 C :    0.787569
  15 H :    0.371079
  16 N :   -0.680122
  17 O :   -0.634354
  18 H :    0.114056
  19 H :    0.114762
  20 H :    0.271663
  21 O :   -0.589634
  22 H :    0.156429
  23 H :    0.283053
Sum of atomic charges:   -0.0000000

--------------------------------
MULLIKEN REDUCED ORBITAL CHARGES
--------------------------------
  0 C s       :     3.190095  s :     3.190095
      pz      :     0.926910  p :     2.765303
      px      :     0.836879
      py      :     1.001515
      dz2     :     0.011834  d :     0.065841
      dxz     :     0.017389
      dyz     :     0.009503
      dx2y2   :     0.009990
      dxy     :     0.017124

  1 C s       :     3.239499  s :     3.239499
      pz      :     0.989166  p :     2.937778
      px      :     0.941545
      py      :     1.007067
      dz2     :     0.008317  d :     0.048358
      dxz     :     0.012455
      dyz     :     0.008500
      dx2y2   :     0.006988
      dxy     :     0.012097

  2 H s       :     0.715387  s :     0.715387
      pz      :     0.012465  p :     0.026117
      px      :     0.005425
      py      :     0.008227

  3 H s       :     0.715079  s :     0.715079
      pz      :     0.005018  p :     0.026120
      px      :     0.008806
      py      :     0.012296

  4 N s       :     3.606175  s :     3.606175
      pz      :     1.278158  p :     4.058103
      px      :     1.377562
      py      :     1.402383
      dz2     :     0.007846  d :     0.034748
      dxz     :     0.008153
      dyz     :     0.005816
      dx2y2   :     0.006558
      dxy     :     0.006374

  5 C s       :     3.234352  s :     3.234352
      pz      :     0.988839  p :     2.943514
      px      :     0.937812
      py      :     1.016863
      dz2     :     0.008607  d :     0.049033
      dxz     :     0.012495
      dyz     :     0.008584
      dx2y2   :     0.007067
      dxy     :     0.012279

  6 H s       :     0.885836  s :     0.885836
      pz      :     0.006960  p :     0.012335
      px      :     0.002496
      py      :     0.002879

  7 H s       :     0.885094  s :     0.885094
      pz      :     0.002107  p :     0.012330
      px      :     0.003090
      py      :     0.007133

  8 C s       :     3.245746  s :     3.245746
      pz      :     0.978294  p :     2.935939
      px      :     0.912192
      py      :     1.045453
      dz2     :     0.008774  d :     0.048307
      dxz     :     0.012609
      dyz     :     0.007734
      dx2y2   :     0.007872
      dxy     :     0.011319

  9 H s       :     0.873222  s :     0.873222
      pz      :     0.007063  p :     0.012399
      px      :     0.002505
      py      :     0.002830

 10 H s       :     0.857927  s :     0.857927
      pz      :     0.002213  p :     0.012725
      px      :     0.003295
      py      :     0.007217

 11 C s       :     3.200561  s :     3.200561
      pz      :     1.072959  p :     2.759293
      px      :     0.908988
      py      :     0.777345
      dz2     :     0.015861  d :     0.070211
      dxz     :     0.011309
      dyz     :     0.008348
      dx2y2   :     0.013251
      dxy     :     0.021442

 12 H s       :     0.864185  s :     0.864185
      pz      :     0.007296  p :     0.012439
      px      :     0.002343
      py      :     0.002799

 13 H s       :     0.837908  s :     0.837908
      pz      :     0.001948  p :     0.012540
      px      :     0.002877
      py      :     0.007715

 14 C s       :     2.953055  s :     2.953055
      pz      :     0.616235  p :     2.113179
      px      :     0.744595
      py      :     0.752349
      dz2     :     0.034967  d :     0.146197
      dxz     :     0.023204
      dyz     :     0.031492
      dx2y2   :     0.021941
      dxy     :     0.034593

 15 H s       :     0.587479  s :     0.587479
      pz      :     0.007127  p :     0.041442
      px      :     0.014734
      py      :     0.019581

 16 N s       :     3.605616  s :     3.605616
      pz      :     1.184217  p :     4.039774
      px      :     1.390636
      py      :     1.464921
      dz2     :     0.004978  d :     0.034732
      dxz     :     0.011896
      dyz     :     0.005549
      dx2y2   :     0.007905
      dxy     :     0.004405

 17 O s       :     3.837363  s :     3.837363
      pz      :     1.669405  p :     4.771623
      px      :     1.710361
      py      :     1.391857
      dz2     :     0.006658  d :     0.025368
      dxz     :     0.003675
      dyz     :     0.005672
      dx2y2   :     0.001163
      dxy     :     0.008201

 18 H s       :     0.873935  s :     0.873935
      pz      :     0.001950  p :     0.012010
      px      :     0.002766
      py      :     0.007293

 19 H s       :     0.873218  s :     0.873218
      pz      :     0.007002  p :     0.012021
      px      :     0.002128
      py      :     0.002890

 20 H s       :     0.702290  s :     0.702290
      pz      :     0.007871  p :     0.026047
      px      :     0.011252
      py      :     0.006924

 21 O s       :     3.873524  s :     3.873524
      pz      :     1.504641  p :     4.683467
      px      :     1.422978
      py      :     1.755848
      dz2     :     0.008216  d :     0.032642
      dxz     :     0.008875
      dyz     :     0.003776
      dx2y2   :     0.007135
      dxy     :     0.004640

 22 H s       :     0.831473  s :     0.831473
      pz      :     0.008384  p :     0.012099
      px      :     0.002336
      py      :     0.001379

 23 H s       :     0.690832  s :     0.690832
      pz      :     0.014054  p :     0.026115
      px      :     0.006432
      py      :     0.005629



                     *******************************
                     * LOEWDIN POPULATION ANALYSIS *
                     *******************************

----------------------
LOEWDIN ATOMIC CHARGES
----------------------
   0 C :   -0.043160
   1 C :   -0.130078
   2 H :    0.122451
   3 H :    0.122607
   4 N :   -0.298701
   5 C :   -0.117845
   6 H :    0.055099
   7 H :    0.055244
   8 C :   -0.103235
   9 H :    0.060877
  10 H :    0.064593
  11 C :   -0.024747
  12 H :    0.064569
  13 H :    0.076744
  14 C :    0.229370
  15 H :    0.200898
  16 N :   -0.275497
  17 O :   -0.207466
  18 H :    0.059508
  19 H :    0.059866
  20 H :    0.129053
  21 O :   -0.313637
  22 H :    0.078030
  23 H :    0.135456

-------------------------------
LOEWDIN REDUCED ORBITAL CHARGES
-------------------------------
  0 C s       :     2.879508  s :     2.879508
      pz      :     1.012165  p :     3.035998
      px      :     0.967989
      py      :     1.055844
      dz2     :     0.022984  d :     0.127654
      dxz     :     0.034260
      dyz     :     0.017362
      dx2y2   :     0.019184
      dxy     :     0.033864

  1 C s       :     2.900222  s :     2.900222
      pz      :     1.052497  p :     3.138071
      px      :     1.028848
      py      :     1.056726
      dz2     :     0.015304  d :     0.091785
      dxz     :     0.024312
      dyz     :     0.015410
      dx2y2   :     0.013720
      dxy     :     0.023038

  2 H s       :     0.796552  s :     0.796552
      pz      :     0.038391  p :     0.080997
      px      :     0.018318
      py      :     0.024289

  3 H s       :     0.796374  s :     0.796374
      pz      :     0.015718  p :     0.081019
      px      :     0.026568
      py      :     0.038733

  4 N s       :     3.190631  s :     3.190631
      pz      :     1.286272  p :     4.046742
      px      :     1.377653
      py      :     1.382817
      dz2     :     0.013481  d :     0.061327
      dxz     :     0.014339
      dyz     :     0.010569
      dx2y2   :     0.010319
      dxy     :     0.012618

  5 C s       :     2.886465  s :     2.886465
      pz      :     1.053157  p :     3.138360
      px      :     1.025236
      py      :     1.059967
      dz2     :     0.015787  d :     0.093019
      dxz     :     0.024217
      dyz     :     0.015516
      dx2y2   :     0.014132
      dxy     :     0.023367

  6 H s       :     0.905961  s :     0.905961
      pz      :     0.020612  p :     0.038940
      px      :     0.008628
      py      :     0.009700

  7 H s       :     0.905772  s :     0.905772
      pz      :     0.007699  p :     0.038984
      px      :     0.010304
      py      :     0.020981

  8 C s       :     2.892756  s :     2.892756
      pz      :     1.042775  p :     3.119043
      px      :     1.005740
      py      :     1.070528
      dz2     :     0.016052  d :     0.091437
      dxz     :     0.024676
      dyz     :     0.013928
      dx2y2   :     0.015303
      dxy     :     0.021478

  9 H s       :     0.899841  s :     0.899841
      pz      :     0.020873  p :     0.039282
      px      :     0.008789
      py      :     0.009620

 10 H s       :     0.894857  s :     0.894857
      pz      :     0.007885  p :     0.040549
      px      :     0.010916
      py      :     0.021748

 11 C s       :     2.870229  s :     2.870229
      pz      :     1.064990  p :     3.014454
      px      :     1.004179
      py      :     0.945285
      dz2     :     0.029536  d :     0.140064
      dxz     :     0.021761
      dyz     :     0.016102
      dx2y2   :     0.028271
      dxy     :     0.044394

 12 H s       :     0.895568  s :     0.895568
      pz      :     0.021995  p :     0.039863
      px      :     0.008270
      py      :     0.009598

 13 H s       :     0.882824  s :     0.882824
      pz      :     0.007370  p :     0.040431
      px      :     0.010057
      py      :     0.023005

 14 C s       :     2.849626  s :     2.849626
      pz      :     0.809418  p :     2.604358
      px      :     0.903508
      py      :     0.891432
      dz2     :     0.072787  d :     0.316646
      dxz     :     0.054512
      dyz     :     0.069404
      dx2y2   :     0.045648
      dxy     :     0.074295

 15 H s       :     0.679000  s :     0.679000
      pz      :     0.022798  p :     0.120102
      px      :     0.043684
      py      :     0.053620

 16 N s       :     3.189222  s :     3.189222
      pz      :     1.176623  p :     4.024953
      px      :     1.379169
      py      :     1.469161
      dz2     :     0.010833  d :     0.061322
      dxz     :     0.018816
      dyz     :     0.010334
      dx2y2   :     0.012170
      dxy     :     0.009169

 17 O s       :     3.459212  s :     3.459212
      pz      :     1.650344  p :     4.699981
      px      :     1.674258
      py      :     1.375379
      dz2     :     0.010319  d :     0.048272
      dxz     :     0.005758
      dyz     :     0.013065
      dx2y2   :     0.005080
      dxy     :     0.014049

 18 H s       :     0.902683  s :     0.902683
      pz      :     0.007315  p :     0.037809
      px      :     0.008774
      py      :     0.021720

 19 H s       :     0.902295  s :     0.902295
      pz      :     0.020990  p :     0.037839
      px      :     0.007571
      py      :     0.009279

 20 H s       :     0.789664  s :     0.789664
      pz      :     0.023547  p :     0.081283
      px      :     0.035766
      py      :     0.021971

 21 O s       :     3.548014  s :     3.548014
      pz      :     1.518411  p :     4.708435
      px      :     1.468897
      py      :     1.721127
      dz2     :     0.010258  d :     0.057188
      dxz     :     0.020450
      dyz     :     0.006109
      dx2y2   :     0.011816
      dxy     :     0.008555

 22 H s       :     0.882302  s :     0.882302
      pz      :     0.024865  p :     0.039668
      px      :     0.009098
      py      :     0.005705

 23 H s       :     0.782557  s :     0.782557
      pz      :     0.042072  p :     0.081987
      px      :     0.020633
      py      :     0.019282



                      *****************************
                      * MAYER POPULATION ANALYSIS *
                      *****************************

  NA   - Mulliken gross atomic population
  ZA   - Total nuclear charge
  QA   - Mulliken gross atomic charge
  VA   - Mayer's total valence
  BVA  - Mayer's bonded valence
  FA   - Mayer's free valence

  ATOM       NA         ZA         QA         VA         BVA        FA
  0 C      6.0212     6.0000    -0.0212     3.8012     3.8012     0.0000
  1 C      6.2256     6.0000    -0.2256     3.7941     3.7941    -0.0000
  2 H      0.7415     1.0000     0.2585     0.9100     0.9100    -0.0000
  3 H      0.7412     1.0000     0.2588     0.9098     0.9098    -0.0000
  4 N      7.6990     7.0000    -0.6990     2.7565     2.7565    -0.0000
  5 C      6.2269     6.0000    -0.2269     3.7935     3.7935     0.0000
  6 H      0.8982     1.0000     0.1018     0.9526     0.9526    -0.0000
  7 H      0.8974     1.0000     0.1026     0.9525     0.9525    -0.0000
  8 C      6.2300     6.0000    -0.2300     3.7752     3.7752     0.0000
  9 H      0.8856     1.0000     0.1144     0.9493     0.9493    -0.0000
 10 H      0.8707     1.0000     0.1293     0.9523     0.9523    -0.0000
 11 C      6.0301     6.0000    -0.0301     3.7532     3.7532     0.0000
 12 H      0.8766     1.0000     0.1234     0.9517     0.9517     0.0000
 13 H      0.8504     1.0000     0.1496     0.9496     0.9496    -0.0000
 14 C      5.2124     6.0000     0.7876     3.6685     3.6685    -0.0000
 15 H      0.6289     1.0000     0.3711     0.8728     0.8728     0.0000
 16 N      7.6801     7.0000    -0.6801     2.7769     2.7769    -0.0000
 17 O      8.6344     8.0000    -0.6344     1.8271     1.8271    -0.0000
 18 H      0.8859     1.0000     0.1141     0.9479     0.9479     0.0000
 19 H      0.8852     1.0000     0.1148     0.9478     0.9478     0.0000
 20 H      0.7283     1.0000     0.2717     0.9057     0.9057    -0.0000
 21 O      8.5896     8.0000    -0.5896     1.8941     1.8941    -0.0000
 22 H      0.8436     1.0000     0.1564     0.9421     0.9421     0.0000
 23 H      0.7169     1.0000     0.2831     0.9059     0.9059    -0.0000

  Mayer bond orders larger than 0.100000
B(  0-C ,  1-C ) :   0.9617 B(  0-C ,  4-N ) :   0.9461 B(  0-C , 18-H ) :   0.9735 
B(  0-C , 19-H ) :   0.9735 B(  1-C ,  5-C ) :   0.9654 B(  1-C ,  6-H ) :   0.9728 
B(  1-C ,  7-H ) :   0.9726 B(  2-H ,  4-N ) :   0.9153 B(  3-H ,  4-N ) :   0.9152 
B(  5-C ,  8-C ) :   0.9646 B(  5-C ,  9-H ) :   0.9727 B(  5-C , 10-H ) :   0.9664 
B(  8-C , 11-C ) :   0.9627 B(  8-C , 12-H ) :   0.9662 B(  8-C , 13-H ) :   0.9660 
B( 11-C , 14-C ) :   0.9016 B( 11-C , 16-N ) :   0.9991 B( 11-C , 22-H ) :   0.9590 
B( 14-C , 17-O ) :   0.9668 B( 14-C , 21-O ) :   1.8283 B( 15-H , 17-O ) :   0.8401 
B( 16-N , 20-H ) :   0.9105 B( 16-N , 23-H ) :   0.8975 

-------
TIMINGS
-------

Total SCF time: 0 days 0 hours 0 min 25 sec 

Total time                  ....      25.069 sec
Sum of individual times     ....      23.972 sec  ( 95.6%)

SCF preparation             ....       0.020 sec  (  0.1%)
Fock matrix formation       ....      23.879 sec  ( 95.3%)
  Startup                   ....       0.001 sec  (  0.0% of F)
  Coulomb+Exchange Fock     ....      24.962 sec  (104.5% of F)
Diagonalization             ....       0.000 sec  (  0.0%)
Density matrix formation    ....       0.005 sec  (  0.0%)
Total Energy calculation    ....       0.001 sec  (  0.0%)
Population analysis         ....       0.003 sec  (  0.0%)
Orbital Transformation      ....       0.008 sec  (  0.0%)
Orbital Orthonormalization  ....       0.000 sec  (  0.0%)
DIIS solution               ....       0.033 sec  (  0.1%)
SOSCF solution              ....       0.020 sec  (  0.1%)
Finished LeanSCF after  25.1 sec

Maximum memory used throughout the entire LEANSCF-calculation: 16.0 MB

------------------------------------------------------------------------------
                                ORCA  MP2 
------------------------------------------------------------------------------

Freezing NCore=20 chemical core electrons
MP2 will be done in the AO integral direct mode
The Q1-step will be done using symmetric double matrices
Dimension of the basis                    ...  210
Memory devoted for MP2                    ... 4096 MB   
Memory needed for all in one shot         ... 1066 MB
Number of MOs that can be treated together...  114      
MP2 density construction                  ... relaxed
The MP2 gradient is requested => amplitudes will be stored on disk
Total number of MOs              ...   30
Number of MOs treated per batch  ...   30 
Number of batches necessary      ...    1 
OPERATORS   0/  0 PASS   0
-----------------------------------------------
 MP2 CORRELATION ENERGY   :     -1.531319385 Eh
-----------------------------------------------


---------------------
MP2 DENSITY FORMATION
---------------------

Completing the external part of the density      ... done
Storing the unrelaxed density                    ... done

Calculating G(D)                                 ... done
Completing the Lagrangian                        ... done
Solving the Z-vector equations                   ... 
-------------------
SHARK CP-SCF DRIVER
-------------------

Dimension of the orbital basis          ...    210
Dimension of the CPSCF-problem          ...   6800
Number of operators                     ...      1
Max. number of iterations               ...    128
Convergence Tolerance                   ... 1.0e-04
Number of perturbations                 ...      1
Perturbation type                       ... REAL

----------------------------
POPLE LINEAR EQUATION SOLVER
----------------------------

  ITERATION   0:   ||err||_max =   1.2842e-01 (   2.8 sec)
  ITERATION   1:   ||err||_max =   3.3830e-02 (   2.9 sec)
  ITERATION   2:   ||err||_max =   1.4674e-02 (   3.0 sec)
  ITERATION   3:   ||err||_max =   3.4539e-03 (   2.9 sec)
  ITERATION   4:   ||err||_max =   1.3443e-03 (   3.0 sec)
  ITERATION   5:   ||err||_max =   3.1429e-04 (   2.9 sec)
  ITERATION   6:   ||err||_max =   9.6391e-05 (   3.0 sec)
                                                 ... done
Finalizing the relaxed density                   ... done
Transforming P to the AO basis                   ... done
Storing the relaxed density                      ... done

------------------------------------
ENERGY WEIGHTED DENSITY FINALIZATION
------------------------------------

Gathering the parts of the W-matrix              ...                                                      done
Forming the Z-density                            ... done
Transforming Z to the AO basis                   ... done
Calculating G(Z)                                 ... done
Finalizing the W-matrix                          ...                                                      done
Transforming W to the AO basis and storing       ... done

                *********************************************
                * UNRELAXED MP2 DENSITY POPULATION ANALYSIS *
                *********************************************

------------------------------------------------------------------------------
                           ORCA POPULATION ANALYSIS
------------------------------------------------------------------------------
Input electron density              ... 4.pmp2ur
BaseName (.gbw .S,...)              ... 4

                    ********************************
                    * MULLIKEN POPULATION ANALYSIS *
                    ********************************

-----------------------
MULLIKEN ATOMIC CHARGES
-----------------------
   0 C :   -0.027686
   1 C :   -0.227826
   2 H :    0.257352
   3 H :    0.257658
   4 N :   -0.692008
   5 C :   -0.228502
   6 H :    0.102779
   7 H :    0.103510
   8 C :   -0.231663
   9 H :    0.115307
  10 H :    0.129869
  11 C :   -0.035218
  12 H :    0.124153
  13 H :    0.150043
  14 C :    0.754242
  15 H :    0.367804
  16 N :   -0.672490
  17 O :   -0.620485
  18 H :    0.115066
  19 H :    0.115768
  20 H :    0.270507
  21 O :   -0.566669
  22 H :    0.157060
  23 H :    0.281432
Sum of atomic charges:    0.0000000

--------------------------------
MULLIKEN REDUCED ORBITAL CHARGES
--------------------------------
  0 C s       :     3.187521  s :     3.187521
      pz      :     0.925333  p :     2.759797
      px      :     0.836145
      py      :     0.998320
      dz2     :     0.014902  d :     0.080369
      dxz     :     0.019920
      dyz     :     0.012488
      dx2y2   :     0.013135
      dxy     :     0.019924
  1 C s       :     3.235957  s :     3.235957
      pz      :     0.985803  p :     2.927354
      px      :     0.938141
      py      :     1.003410
      dz2     :     0.011698  d :     0.064514
      dxz     :     0.015426
      dyz     :     0.011706
      dx2y2   :     0.010438
      dxy     :     0.015246
  2 H s       :     0.714456  s :     0.714456
      pz      :     0.012973  p :     0.028193
      px      :     0.006273
      py      :     0.008946
  3 H s       :     0.714149  s :     0.714149
      pz      :     0.005874  p :     0.028194
      px      :     0.009510
      py      :     0.012809
  4 N s       :     3.601484  s :     3.601484
      pz      :     1.270962  p :     4.034100
      px      :     1.368737
      py      :     1.394401
      dz2     :     0.012231  d :     0.056424
      dxz     :     0.012330
      dyz     :     0.010152
      dx2y2   :     0.010908
      dxy     :     0.010802
  5 C s       :     3.230943  s :     3.230943
      pz      :     0.985233  p :     2.932282
      px      :     0.934132
      py      :     1.012917
      dz2     :     0.012009  d :     0.065276
      dxz     :     0.015484
      dyz     :     0.011820
      dx2y2   :     0.010537
      dxy     :     0.015426
  6 H s       :     0.882030  s :     0.882030
      pz      :     0.007782  p :     0.015191
      px      :     0.003532
      py      :     0.003876
  7 H s       :     0.881305  s :     0.881305
      pz      :     0.003156  p :     0.015185
      px      :     0.004099
      py      :     0.007930
  8 C s       :     3.242341  s :     3.242341
      pz      :     0.974799  p :     2.924743
      px      :     0.909050
      py      :     1.040894
      dz2     :     0.012130  d :     0.064579
      dxz     :     0.015569
      dyz     :     0.011017
      dx2y2   :     0.011324
      dxy     :     0.014539
  9 H s       :     0.869453  s :     0.869453
      pz      :     0.007871  p :     0.015240
      px      :     0.003544
      py      :     0.003825
 10 H s       :     0.854575  s :     0.854575
      pz      :     0.003261  p :     0.015556
      px      :     0.004311
      py      :     0.007984
 11 C s       :     3.197409  s :     3.197409
      pz      :     1.067959  p :     2.752062
      px      :     0.906108
      py      :     0.777995
      dz2     :     0.018897  d :     0.085748
      dxz     :     0.014486
      dyz     :     0.011656
      dx2y2   :     0.016677
      dxy     :     0.024033
 12 H s       :     0.860580  s :     0.860580
      pz      :     0.008082  p :     0.015266
      px      :     0.003388
      py      :     0.003796
 13 H s       :     0.834672  s :     0.834672
      pz      :     0.002982  p :     0.015285
      px      :     0.003866
      py      :     0.008437
 14 C s       :     2.954644  s :     2.954644
      pz      :     0.626397  p :     2.134365
      px      :     0.750470
      py      :     0.757499
      dz2     :     0.036869  d :     0.156750
      dxz     :     0.025224
      dyz     :     0.033530
      dx2y2   :     0.024350
      dxy     :     0.036777
 15 H s       :     0.589603  s :     0.589603
      pz      :     0.007760  p :     0.042593
      px      :     0.015137
      py      :     0.019696
 16 N s       :     3.600980  s :     3.600980
      pz      :     1.178551  p :     4.014902
      px      :     1.381808
      py      :     1.454542
      dz2     :     0.009223  d :     0.056609
      dxz     :     0.016052
      dyz     :     0.009884
      dx2y2   :     0.012516
      dxy     :     0.008935
 17 O s       :     3.833126  s :     3.833126
      pz      :     1.657553  p :     4.738970
      px      :     1.698427
      py      :     1.382990
      dz2     :     0.011348  d :     0.048389
      dxz     :     0.008252
      dyz     :     0.010140
      dx2y2   :     0.005837
      dxy     :     0.012812
 18 H s       :     0.870126  s :     0.870126
      pz      :     0.002985  p :     0.014808
      px      :     0.003770
      py      :     0.008053
 19 H s       :     0.869414  s :     0.869414
      pz      :     0.007790  p :     0.014818
      px      :     0.003150
      py      :     0.003878
 20 H s       :     0.701411  s :     0.701411
      pz      :     0.008501  p :     0.028082
      px      :     0.011837
      py      :     0.007744
 21 O s       :     3.868980  s :     3.868980
      pz      :     1.491565  p :     4.643413
      px      :     1.411253
      py      :     1.740594
      dz2     :     0.012580  d :     0.054277
      dxz     :     0.012846
      dyz     :     0.008236
      dx2y2   :     0.011404
      dxy     :     0.009210
 22 H s       :     0.828119  s :     0.828119
      pz      :     0.009068  p :     0.014821
      px      :     0.003339
      py      :     0.002414
 23 H s       :     0.690440  s :     0.690440
      pz      :     0.014370  p :     0.028128
      px      :     0.007249
      py      :     0.006509


                     *******************************
                     * LOEWDIN POPULATION ANALYSIS *
                     *******************************

----------------------
LOEWDIN ATOMIC CHARGES
----------------------
   0 C :   -0.046185
   1 C :   -0.130855
   2 H :    0.121782
   3 H :    0.121940
   4 N :   -0.294694
   5 C :   -0.118252
   6 H :    0.055355
   7 H :    0.055493
   8 C :   -0.103812
   9 H :    0.061156
  10 H :    0.064659
  11 C :   -0.028154
  12 H :    0.064808
  13 H :    0.076870
  14 C :    0.205038
  15 H :    0.198491
  16 N :   -0.271066
  17 O :   -0.198647
  18 H :    0.059851
  19 H :    0.060208
  20 H :    0.128387
  21 O :   -0.295106
  22 H :    0.078190
  23 H :    0.134543

-------------------------------
LOEWDIN REDUCED ORBITAL CHARGES
-------------------------------
  0 C s       :     2.879385  s :     2.879385
      pz      :     1.008026  p :     3.022709
      px      :     0.964108
      py      :     1.050574
      dz2     :     0.026258  d :     0.144091
      dxz     :     0.037341
      dyz     :     0.020708
      dx2y2   :     0.022660
      dxy     :     0.037123
  1 C s       :     2.899839  s :     2.899839
      pz      :     1.046830  p :     3.120685
      px      :     1.022795
      py      :     1.051061
      dz2     :     0.019018  d :     0.110331
      dxz     :     0.027953
      dyz     :     0.019033
      dx2y2   :     0.017514
      dxy     :     0.026813
  2 H s       :     0.793451  s :     0.793451
      pz      :     0.040098  p :     0.084767
      px      :     0.019393
      py      :     0.025277
  3 H s       :     0.793273  s :     0.793273
      pz      :     0.016780  p :     0.084787
      px      :     0.027636
      py      :     0.040372
  4 N s       :     3.188685  s :     3.188685
      pz      :     1.278415  p :     4.021224
      px      :     1.368439
      py      :     1.374370
      dz2     :     0.018150  d :     0.084784
      dxz     :     0.019094
      dyz     :     0.015180
      dx2y2   :     0.014951
      dxy     :     0.017408
  5 C s       :     2.886172  s :     2.886172
      pz      :     1.047326  p :     3.120345
      px      :     1.019003
      py      :     1.054016
      dz2     :     0.019532  d :     0.111735
      dxz     :     0.027903
      dyz     :     0.019182
      dx2y2   :     0.017960
      dxy     :     0.027158
  6 H s       :     0.900847  s :     0.900847
      pz      :     0.022615  p :     0.043799
      px      :     0.010042
      py      :     0.011141
  7 H s       :     0.900665  s :     0.900665
      pz      :     0.009066  p :     0.043842
      px      :     0.011816
      py      :     0.022959
  8 C s       :     2.892408  s :     2.892408
      pz      :     1.037077  p :     3.101197
      px      :     0.999888
      py      :     1.064232
      dz2     :     0.019831  d :     0.110206
      dxz     :     0.028259
      dyz     :     0.017622
      dx2y2   :     0.019129
      dxy     :     0.025364
  9 H s       :     0.894700  s :     0.894700
      pz      :     0.022859  p :     0.044143
      px      :     0.010224
      py      :     0.011061
 10 H s       :     0.889928  s :     0.889928
      pz      :     0.009259  p :     0.045414
      px      :     0.012448
      py      :     0.023707
 11 C s       :     2.870483  s :     2.870483
      pz      :     1.058674  p :     2.999628
      px      :     0.998877
      py      :     0.942077
      dz2     :     0.033138  d :     0.158042
      dxz     :     0.025601
      dyz     :     0.019749
      dx2y2   :     0.031986
      dxy     :     0.047568
 12 H s       :     0.890485  s :     0.890485
      pz      :     0.023975  p :     0.044708
      px      :     0.009708
      py      :     0.011024
 13 H s       :     0.877969  s :     0.877969
      pz      :     0.008716  p :     0.045162
      px      :     0.011544
      py      :     0.024902
 14 C s       :     2.850324  s :     2.850324
      pz      :     0.816316  p :     2.616501
      px      :     0.906811
      py      :     0.893375
      dz2     :     0.074182  d :     0.328137
      dxz     :     0.057667
      dyz     :     0.071608
      dx2y2   :     0.048373
      dxy     :     0.076306
 15 H s       :     0.678937  s :     0.678937
      pz      :     0.023507  p :     0.122573
      px      :     0.044594
      py      :     0.054472
 16 N s       :     3.187320  s :     3.187320
      pz      :     1.170329  p :     3.998560
      px      :     1.369839
      py      :     1.458392
      dz2     :     0.015341  d :     0.085186
      dxz     :     0.023576
      dyz     :     0.014915
      dx2y2   :     0.017141
      dxy     :     0.014214
 17 O s       :     3.457271  s :     3.457271
      pz      :     1.639091  p :     4.668573
      px      :     1.662768
      py      :     1.366713
      dz2     :     0.015317  d :     0.072803
      dxz     :     0.010465
      dyz     :     0.018105
      dx2y2   :     0.009734
      dxy     :     0.019181
 18 H s       :     0.897611  s :     0.897611
      pz      :     0.008656  p :     0.042538
      px      :     0.010260
      py      :     0.023623
 19 H s       :     0.897225  s :     0.897225
      pz      :     0.022911  p :     0.042566
      px      :     0.008970
      py      :     0.010686
 20 H s       :     0.786584  s :     0.786584
      pz      :     0.024796  p :     0.085029
      px      :     0.037319
      py      :     0.022915
 21 O s       :     3.545044  s :     3.545044
      pz      :     1.505406  p :     4.668684
      px      :     1.456785
      py      :     1.706493
      dz2     :     0.014965  d :     0.081377
      dxz     :     0.025651
      dyz     :     0.010754
      dx2y2   :     0.016705
      dxy     :     0.013302
 22 H s       :     0.877351  s :     0.877351
      pz      :     0.026830  p :     0.044459
      px      :     0.010518
[...]
  1 C s       :     2.900931  s :     2.900931
      pz      :     1.055787  p :     3.135215
      px      :     1.024454
      py      :     1.054974
      dz2     :     0.026009  d :     0.104938
      dxz     :     0.021772
      dyz     :     0.011340
      dx2y2   :     0.018430
      dxy     :     0.027387
  2 H s       :     0.794891  s :     0.794891
      pz      :     0.044034  p :     0.083496
      px      :     0.017695
      py      :     0.021767
  3 H s       :     0.794870  s :     0.794870
      pz      :     0.014615  p :     0.083505
      px      :     0.026838
      py      :     0.042052
  4 N s       :     3.201601  s :     3.201601
      pz      :     1.242275  p :     3.998308
      px      :     1.316486
      py      :     1.439548
      dz2     :     0.024748  d :     0.082168
      dxz     :     0.016115
      dyz     :     0.007653
      dx2y2   :     0.015917
      dxy     :     0.017735
  5 C s       :     2.887872  s :     2.887872
      pz      :     1.058535  p :     3.133416
      px      :     1.023702
      py      :     1.051179
      dz2     :     0.025614  d :     0.105214
      dxz     :     0.021711
      dyz     :     0.012097
      dx2y2   :     0.018810
      dxy     :     0.026982
  6 H s       :     0.896063  s :     0.896063
      pz      :     0.025324  p :     0.043605
      px      :     0.009191
      py      :     0.009091
  7 H s       :     0.896241  s :     0.896241
      pz      :     0.008169  p :     0.043611
      px      :     0.012549
      py      :     0.022894
  8 C s       :     2.893869  s :     2.893869
      pz      :     1.046298  p :     3.113552
      px      :     1.007898
      py      :     1.059357
      dz2     :     0.022342  d :     0.104795
      dxz     :     0.024032
      dyz     :     0.013953
      dx2y2   :     0.018258
      dxy     :     0.026209
  9 H s       :     0.889242  s :     0.889242
      pz      :     0.025462  p :     0.043916
      px      :     0.009332
      py      :     0.009122
 10 H s       :     0.890629  s :     0.890629
      pz      :     0.008309  p :     0.044432
      px      :     0.012705
      py      :     0.023418
 11 C s       :     2.873401  s :     2.873401
      pz      :     1.053391  p :     3.021756
      px      :     1.002048
      py      :     0.966316
      dz2     :     0.028357  d :     0.151135
      dxz     :     0.025938
      dyz     :     0.024037
      dx2y2   :     0.032022
      dxy     :     0.040780
 12 H s       :     0.886511  s :     0.886511
      pz      :     0.024872  p :     0.044190
      px      :     0.009769
      py      :     0.009549
 13 H s       :     0.877374  s :     0.877374
      pz      :     0.008456  p :     0.044701
      px      :     0.012597
      py      :     0.023648
 14 C s       :     2.863132  s :     2.863132
      pz      :     0.874907  p :     2.689128
      px      :     0.887298
      py      :     0.926924
      dz2     :     0.091924  d :     0.304979
      dxz     :     0.060101
      dyz     :     0.067540
      dx2y2   :     0.033687
      dxy     :     0.051728
 15 H s       :     0.692376  s :     0.692376
      pz      :     0.022109  p :     0.120048
      px      :     0.041166
      py      :     0.056774
 16 N s       :     3.202912  s :     3.202912
      pz      :     1.190214  p :     3.973248
      px      :     1.320279
      py      :     1.462755
      dz2     :     0.011231  d :     0.083055
      dxz     :     0.024118
      dyz     :     0.017748
      dx2y2   :     0.014464
      dxy     :     0.015494
 17 O s       :     3.483430  s :     3.483430
      pz      :     1.556070  p :     4.618238
      px      :     1.662085
      py      :     1.400083
      dz2     :     0.020475  d :     0.072450
      dxz     :     0.011960
      dyz     :     0.016385
      dx2y2   :     0.008019
      dxy     :     0.015612
 18 H s       :     0.893823  s :     0.893823
      pz      :     0.007851  p :     0.042551
      px      :     0.011187
      py      :     0.023513
 19 H s       :     0.893402  s :     0.893402
      pz      :     0.025851  p :     0.042570
      px      :     0.007972
      py      :     0.008747
 20 H s       :     0.788560  s :     0.788560
      pz      :     0.024731  p :     0.083582
      px      :     0.035187
      py      :     0.023663
 21 O s       :     3.561696  s :     3.561696
      pz      :     1.535536  p :     4.592032
      px      :     1.429554
      py      :     1.626941
      dz2     :     0.015786  d :     0.078714
      dxz     :     0.022165
      dyz     :     0.014467
      dx2y2   :     0.013004
      dxy     :     0.013292
 22 H s       :     0.876660  s :     0.876660
      pz      :     0.025134  p :     0.044578
      px      :     0.010429
      py      :     0.009014
 23 H s       :     0.784789  s :     0.784789
      pz      :     0.038304  p :     0.084307
      px      :     0.022278
      py      :     0.023724


                      *****************************
                      * MAYER POPULATION ANALYSIS *
                      *****************************

  NA   - Mulliken gross atomic population
  ZA   - Total nuclear charge
  QA   - Mulliken gross atomic charge
  VA   - Mayer's total valence
  BVA  - Mayer's bonded valence
  FA   - Mayer's free valence

  ATOM       NA         ZA         QA         VA         BVA        FA
  0 C      6.0636     6.0000    -0.0636     3.9391     3.6836     0.2555
  1 C      6.2154     6.0000    -0.2154     3.9242     3.6582     0.2660
  2 H      0.7553     1.0000     0.2447     0.9231     0.8766     0.0464
  3 H      0.7553     1.0000     0.2447     0.9230     0.8766     0.0464
  4 N      7.6251     7.0000    -0.6251     3.0196     2.6998     0.3198
  5 C      6.2149     6.0000    -0.2149     3.9306     3.6637     0.2669
  6 H      0.9014     1.0000     0.0986     0.9649     0.9152     0.0497
  7 H      0.9013     1.0000     0.0987     0.9651     0.9154     0.0497
  8 C      6.1995     6.0000    -0.1995     3.9166     3.6494     0.2672
  9 H      0.8872     1.0000     0.1128     0.9606     0.9114     0.0492
 10 H      0.8893     1.0000     0.1107     0.9654     0.9160     0.0494
 11 C      6.0532     6.0000    -0.0532     3.9029     3.6294     0.2736
 12 H      0.8848     1.0000     0.1152     0.9645     0.9151     0.0494
 13 H      0.8659     1.0000     0.1341     0.9619     0.9135     0.0484
 14 C      5.4350     6.0000     0.5650     3.9297     3.6508     0.2788
 15 H      0.6594     1.0000     0.3406     0.9033     0.8592     0.0441
 16 N      7.6078     7.0000    -0.6078     3.0289     2.7061     0.3228
 17 O      8.5219     8.0000    -0.5219     2.2067     1.8535     0.3531
 18 H      0.8893     1.0000     0.1107     0.9591     0.9117     0.0475
 19 H      0.8885     1.0000     0.1115     0.9590     0.9115     0.0474
 20 H      0.7447     1.0000     0.2553     0.9182     0.8719     0.0463
 21 O      8.4450     8.0000    -0.4450     2.3135     1.9237     0.3898
 22 H      0.8592     1.0000     0.1408     0.9549     0.9074     0.0475
 23 H      0.7369     1.0000     0.2631     0.9265     0.8808     0.0457

  Mayer bond orders larger than 0.100000
B(  0-C ,  1-C ) :   0.9215 B(  0-C ,  4-N ) :   0.9374 B(  0-C , 18-H ) :   0.9295 
B(  0-C , 19-H ) :   0.9296 B(  1-C ,  5-C ) :   0.9253 B(  1-C ,  6-H ) :   0.9262 
B(  1-C ,  7-H ) :   0.9262 B(  2-H ,  4-N ) :   0.8796 B(  3-H ,  4-N ) :   0.8796 
B(  5-C ,  8-C ) :   0.9277 B(  5-C ,  9-H ) :   0.9249 B(  5-C , 10-H ) :   0.9215 
B(  8-C , 11-C ) :   0.9219 B(  8-C , 12-H ) :   0.9188 B(  8-C , 13-H ) :   0.9194 
B( 11-C , 14-C ) :   0.8603 B( 11-C , 16-N ) :   0.9676 B( 11-C , 22-H ) :   0.9095 
B( 14-C , 17-O ) :   0.9827 B( 14-C , 21-O ) :   1.8032 B( 15-H , 17-O ) :   0.8128 
B( 16-N , 20-H ) :   0.8740 B( 16-N , 23-H ) :   0.8615 


----------------------------------
MP2 DERIVATIVE INTEGRAL GENERATION
----------------------------------

Input SCF Electron Density              ... 4.scfp
Input Correlated Electron Density       ... 4.pmp2re
Input Energy Weighted Density           ... 4.wmp2.tmp
Input Wavefunction Amplitudes           ... 4.mp2tsaa.tmp

Nuclear repulsion gradient              ... done (  0.0 sec)
HCore & Overlap gradient  (SHARK)       ... done (  0.2 sec)
Analytic two-electron gradient terms    ... 
  Batch handling in the gradient evaluation:
  General contraction                   ... not used
  Memory available                      ... 4080.1 MB
  Memory per occupied orbital in Q2     ...   10.1 MB
  Memory per occupied orbital in Q3     ...    0.0 MB
  Total memory requirement per |i>      ...   10.1 MB
  Number of orbitals treated per batch  ...     30
  Number of batches to be done          ...      1
done ( 28.5 sec)

---------------------------------------
MP2 TOTAL ENERGY:     -495.553014423 Eh
---------------------------------------

The final MP2 gradient
  0:   0.00001838   0.00000260  -0.00001646
  1:  -0.00001281  -0.00000073  -0.00000046
  2:  -0.00000235   0.00000435  -0.00000614
  3:  -0.00000198   0.00000700  -0.00000838
  4:  -0.00001077  -0.00000621   0.00002202
  5:   0.00001519  -0.00003275  -0.00000614
  6:   0.00000505   0.00001465  -0.00000521
  7:  -0.00000331   0.00000122  -0.00000678
  8:  -0.00000102  -0.00000093  -0.00001159
  9:  -0.00000506   0.00001471  -0.00000139
 10:  -0.00000612   0.00000471   0.00001283
 11:   0.00000750  -0.00003829   0.00003523
 12:   0.00001391   0.00000386  -0.00000180
 13:  -0.00001024   0.00000465  -0.00000355
 14:  -0.00002862  -0.00002142  -0.00006451
 15:  -0.00001341   0.00000371  -0.00002423
 16:  -0.00000641   0.00001828  -0.00002344
 17:  -0.00000826  -0.00000027   0.00000602
 18:  -0.00000193  -0.00000231   0.00001042
 19:  -0.00000774  -0.00001171   0.00000859
 20:  -0.00000009  -0.00000264   0.00001129
 21:   0.00006610   0.00002242   0.00007854
 22:   0.00000132   0.00001486  -0.00000393
 23:  -0.00000730   0.00000026  -0.00000093

-----------------------------------
NORM OF THE MP2 GRADIENT:  0.000162
-----------------------------------

Maximum memory used throughout the entire MP2-calculation: 1139.5 MB

-------------------------   --------------------
FINAL SINGLE POINT ENERGY      -495.553014422656
-------------------------   --------------------

                                *** OPTIMIZATION RUN DONE ***


------------------------------------------------------------------------------
                              ORCA PROPERTY CALCULATIONS
------------------------------------------------------------------------------

GBWName                                 ... 4.gbw
Number of atoms                         ...     24
Number of basis functions               ...    210
Max core memory                         ...   4096 MB

Electric properties:
Dipole moment                           ... YES
Quadrupole moment                       ...  NO
Static polarizability (Dipole/Dipole)   ...  NO
Static polarizability (Dipole/Quad.)    ...  NO
Static polarizability (Quad./Quad.)     ...  NO
Static polarizability (Velocity)        ...  NO
Static hyperpolarizability              ...  NO

Atomic electric properties:
Dipole moment                           ...  NO
Quadrupole moment                       ...  NO
Static polarizability                   ...  NO

Choice of electric origin               ... Center of mass
Position of electric origin             ...   -20.234532    11.347925     0.872805

General magnetic properties:
Magnetizability                         ...  NO

EPR properties:
g-Tensor (aka g-matrix)                 ...  NO
Zero-Field splitting spin-orbit         ...  NO
Zero-field splitting spin-spin          ...  NO
Hyperfine couplings                     ...  NO (   0 nuclei)
Quadrupole couplings                    ...  NO (   0 nuclei)
Contact density                         ...  NO (   0 nuclei)

NMR properties:
Chemical shifts                         ...  NO (   0 nuclei)
Spin-rotation constants                 ...  NO (   0 nuclei)
Spin-spin couplings                     ...  NO (   0 nuclei,    0 pairs)

Choice of magnetic origin               ... GIAO
Position of magnetic origin             ...     0.000000     0.000000     0.000000

Properties with geometric perturbations:
SCF Hessian                             ...  NO
IR spectrum                             ...  NO
VCD spectrum                            ...  NO
X-ray spectroscopy properties:
SCF XES/XAS/RIXS spectra                ...  NO

SCF SOC stabilization energy            ...  NO
Diagonal Born-Oppenheimer correction    ...  NO

-------------
DIPOLE MOMENT
-------------

Method             : SCF
Type of density    : Electron Density
Multiplicity       :   1
Irrep              :   0
Energy             :  -494.0167727205449637 Eh
Basis              : AO
                                X                 Y                 Z
Electronic contribution:     11.652517923       0.345508012      -3.084538832
Nuclear contribution   :    -11.493778425      -0.548931683       2.826473174
                        -----------------------------------------
Total Dipole Moment    :      0.158739498      -0.203423671      -0.258065658
                        -----------------------------------------
Magnitude (a.u.)       :      0.364934654
Magnitude (Debye)      :      0.927590175



--------------------
Rotational spectrum 
--------------------
 
Rotational constants in cm-1:             0.083063             0.016854             0.015262 
Rotational constants in MHz :          2490.160786           505.261576           457.548454 

Dipole components along the rotational axes: 
x,y,z [a.u.] :    -0.251277    -0.031505    -0.262763 
x,y,z [Debye]:    -0.638696    -0.080079    -0.667891 

 

-------------
DIPOLE MOMENT
-------------

Method             : MP2
Type of density    : Electron Density
Multiplicity       :   1
Level              : Unrelaxed density
Irrep              :   0
Energy             :     0.0000000000000000 Eh
Basis              : AO
                                X                 Y                 Z
Electronic contribution:     11.670383921       0.362686316      -3.064941363
Nuclear contribution   :    -11.493778425      -0.548931683       2.826473174
                        -----------------------------------------
Total Dipole Moment    :      0.176605495      -0.186245367      -0.238468189
                        -----------------------------------------
Magnitude (a.u.)       :      0.350348277
Magnitude (Debye)      :      0.890514550



--------------------
Rotational spectrum 
--------------------
 
Rotational constants in cm-1:             0.083063             0.016854             0.015262 
Rotational constants in MHz :          2490.160786           505.261576           457.548454 

Dipole components along the rotational axes: 
x,y,z [a.u.] :    -0.259887    -0.021855    -0.233934 
x,y,z [Debye]:    -0.660579    -0.055550    -0.594614 

 

-------------
DIPOLE MOMENT
-------------

Method             : MP2
Type of density    : Electron Density
Multiplicity       :   1
Level              : Relaxed density
Irrep              :   0
Energy             :     0.0000000000000000 Eh
Basis              : AO
                                X                 Y                 Z
Electronic contribution:     11.755582652       0.444160272      -3.011441767
Nuclear contribution   :    -11.493778425      -0.548931683       2.826473174
                        -----------------------------------------
Total Dipole Moment    :      0.261804226      -0.104771411      -0.184968593
                        -----------------------------------------
Magnitude (a.u.)       :      0.337241578
Magnitude (Debye)      :      0.857199968



--------------------
Rotational spectrum 
--------------------
 
Rotational constants in cm-1:             0.083063             0.016854             0.015262 
Rotational constants in MHz :          2490.160786           505.261576           457.548454 

Dipole components along the rotational axes: 
x,y,z [a.u.] :    -0.307634     0.041677    -0.131744 
x,y,z [Debye]:    -0.781943     0.105935    -0.334866 

 

Dipole moment calculation done in   0.0 sec 

Maximum memory used throughout the entire PROP-calculation: 11.2 MB

--------------------------------
SUGGESTED CITATIONS FOR THIS RUN
--------------------------------

Below you find a list of papers that are relevant to this ORCA run
We neither can nor want to force you to cite these papers, but we appreciate if you do
You receive ORCA, which is the product of decades of hard work by many enthusiastic individuals, for free
The only thing we kindly ask in return is that you cite our papers,
We deeply appreciate it, if you show your appreciation for ORCA by not just citing the generic ORCA reference.

Please note that relegating all ORCA citations to the supporting information does *not* help us.
SI sections are not indexed - citations you put there will not count into any citation statistics
But we need these citations in order to attract the funding resources that allow us to do what we are doing

Therefore, if you are a happy ORCA user, please consider citing a few of the papers listed below in the main body of your paper

In addition to the list printed below, the program has created the file 4.bibtex that contains the list in bibtex format
You can import this file easily into all common literature databanks and citation aid programs


List of essential papers. We consider these as the minimum necessary citations

  1. Neese, F.
     Software update: the ORCA program system, version 6.0
     WIRES Comput. Molec. Sci. 2025 15(1), e70019
     doi.org/10.1002/wcms.7019

List of papers to cite with high priority. The work reported in these papers was absolutely
necessary for this run to complete.
Our perspective: the developers of density functionals and basis sets usually get cited in chemistry papers
Good! But without the algorithms to do something with them, the functionals or basis sets would not do anything.
Hence, in our opinion, the algorithm design and method developments papers are equally worthy of getting cited

  1. Neese, F.
     The SHARK Integral Generation and Digestion System
     J. Comp. Chem. 2022 44(3), 381
     doi.org/10.1002/jcc.26942

List of suggested additional citations. These are papers that are important in the 'surrounding' of 
of this run, or papers that preceded the highly important papers. If you like your results we are grateful for a citation.

  1. Neese, F.
     The ORCA program system
     WIRES Comput. Molec. Sci. 2012 2(1), 73-78
     doi.org/10.1002/wcms.81
  2. Neese, F.
     Software update: the ORCA program system, version 4.0
     WIRES Comput. Molec. Sci. 2018 8(1), 1-6
     doi.org/10.1002/wcms.1327
  3. Neese, F.; Wennmohs, F.; Becker, U.; Riplinger, C.
     The ORCA quantum chemistry program package
     J. Chem. Phys. 2020 152(22), 224108
     doi.org/10.1063/5.0004608
  4. Neese, F.
     Software update: The ORCA program system—Version 5.0
     WIRES Comput. Molec. Sci. 2022 12(1), e1606
     doi.org/10.1002/wcms.1606

List of optional additional citations

  1. Neese, F.
     Approximate second-order SCF convergence for spin unrestricted wavefunctions
     Chem. Phys. Lett. 2000 325(1-3), 93-98
     doi.org/10.1016/s0009-2614(00)00662-x

Timings for individual modules:

Sum of individual times          ...      994.575 sec (=  16.576 min)
Startup calculation              ...        4.968 sec (=   0.083 min)   0.5 %
SCF iterations                   ...      182.430 sec (=   3.041 min)  18.3 %
Property calculations            ...        0.048 sec (=   0.001 min)   0.0 %
MP2 module                       ...      807.111 sec (=  13.452 min)  81.2 %
Geometry relaxation              ...        0.018 sec (=   0.000 min)   0.0 %
                             ****ORCA TERMINATED NORMALLY****
TOTAL RUN TIME: 0 days 0 hours 16 minutes 34 seconds 796 msec
