
                                 *****************
                                 * O   R   C   A *
                                 *****************

                                            #,                                       
                                            ###                                      
                                            ####                                     
                                            #####                                    
                                            ######                                   
                                           ########,                                 
                                     ,,################,,,,,                         
                               ,,#################################,,                 
                          ,,##########################################,,             
                       ,#########################################, ''#####,          
                    ,#############################################,,   '####,        
                  ,##################################################,,,,####,       
                ,###########''''           ''''###############################       
              ,#####''   ,,,,##########,,,,          '''####'''          '####       
            ,##' ,,,,###########################,,,                        '##       
           ' ,,###''''                  '''############,,,                           
         ,,##''                                '''############,,,,        ,,,,,,###''
      ,#''                                            '''#######################'''  
     '                                                          ''''####''''         
             ,#######,   #######,   ,#######,      ##                                
            ,#'     '#,  ##    ##  ,#'     '#,    #''#        ,####,    ,#,          
            ##       ##  ##   ,#'  ##            #'  '#       #'       ,# #          
            ##       ##  #######   ##           ,######,      #####,      #          
            '#,     ,#'  ##    ##  '#,     ,#' ,#      #,     #,   #      #          
             '#######'   ##     ##  '#######'  #'      '#     '####' #    #          



                #########################################################
                #                        -***-                          #
                #          Department of theory and spectroscopy        #
                #                                                       #
                #                      Frank Neese                      #
                #                                                       #
                #     Directorship, Architecture, Infrastructure        #
                #                    SHARK, DRIVERS                     #
                #        Core code/Algorithms in most modules           #
                #                                                       #
                #        Max Planck Institute fuer Kohlenforschung      #
                #                Kaiser Wilhelm Platz 1                 #
                #                 D-45470 Muelheim/Ruhr                 #
                #                      Germany                          #
                #                                                       #
                #                  All rights reserved                  #
                #                        -***-                          #
                #########################################################


                         Program Version 6.1.0  -  RELEASE   -
                                (GIT: $679e74b$)
                          ($2025-06-10 18:02:51 +0200$)


 With contributions from (in alphabetic order):
[Max-Planck-Institut fuer Kohlenforschung]                               
  Daniel Aravena         : Magnetic Suceptibility                        
  Michael Atanasov       : Ab Initio Ligand Field Theory (pilot matlab implementation)
  Alexander A. Auer      : GIAO ZORA, VPT2 properties, NMR spectrum      
  Ute Becker             : All parallelization in ORCA, NUMFREQ, NUMCALC 
  Giovanni Bistoni       : ED, misc. LED, open-shell LED, HFLD           
  Dmytro Bykov           : pre 5.0 version of the SCF Hessian            
  Marcos Casanova-Páez   : Triplet and SCS-CIS(D). UHF-(DLPNO)-IP/EA/STEOM-CCSD. UHF-CVS-IP/STEOM-CCSD   
  Vijay G. Chilkuri      : MRCI spin determinant printing, contributions to CSF-ICE 
  Pauline Colinet        : FMM embedding                                 
  Dipayan Datta          : RHF DLPNO-CCSD density                        
  Achintya Kumar Dutta   : EOM-CC, STEOM-CC                              
  Nicolas Foglia         : Exact transition moments, OPA infrastructure, MCD improvements    
  Dmitry Ganyushin       : Spin-Orbit,Spin-Spin,Magnetic field MRCI      
  Miquel Garcia-Rates    : C-PCM and meta-GGA Hessian, CCSD/C-PCM, Gaussian charge scheme 
  Tiago L. C. Gouveia    : GS-ROHF, GS-ROCIS                             
  Yang Guo               : DLPNO-NEVPT2, F12-NEVPT2, CIM, IAO-localization        
  Andreas Hansen         : Spin unrestricted coupled pair/coupled cluster methods 
  Ingolf Harden          : AUTO-CI MPn and infrastructure                
  Benjamin Helmich-Paris : MC-RPA, TRAH-(SCF,CASSCF), AVAS, COSX integrals, SCF dyn. polar., MC-PDFT, srDFT 
  Lee Huntington         : MR-EOM, pCC                                   
  Robert Izsak           : Overlap fitted RIJCOSX, COSX-SCS-MP3, EOM     
  Riya Kayal             : Wick's Theorem for AUTO-CI, AUTO-CI UHF-CCSDT 
  Emily Kempfer          : AUTO-CI RHF CISDT and CCSDT, approximate NEVPT4
  Christian Kollmar      : KDIIS, OOCD, Brueckner-CCSD(T), CCSD density, CASPT2, CASPT2-K, improved NEVPT2 
  Axel Koslowski         : Symmetry handling                             
  Simone Kossmann        : meta-GGA functionals, TD-DFT gradient, OOMP2, (MP2 Hessian; deprecated post 5.0) 
  Lucas Lang             : DCDCAS, Hyperfine gauge corrections, ICE-SOC+SSC
  Marvin Lechner         : AUTO-CI (C++ implementation), FIC-MRCC        
  Spencer Leger          : CASSCF response                               
  Dagmar Lenk            : GEPOL surface, SMD, ORCA-2-JSON               
  Dimitrios Liakos       : Extrapolation schemes; Compound Job, Property file
  Dimitrios Manganas     : Further ROCIS development; embedding schemes. LFT, Crystal Embedding 
  Dimitrios Pantazis     : SARC Basis sets                               
  Anastasios Papadopoulos: AUTO-CI, single reference methods and gradients 
  Taras Petrenko         : pre 6.0 DFT Hessian and TD-DFT gradient,  ECA, NRVS 
  Petra Pikulova         : Analytic Raman intensities                    
  Peter Pinski           : DLPNO-MP2, DLPNO-MP2 Gradient                 
  Shashank Vittal Rao    : ES-AILFT, MagRelax                            
  Christoph Reimann      : Effective Core Potentials                     
  Marius Retegan         : Local ZFS, SOC                                
  Christoph Riplinger    : Optimizer, TS searches, QM/MM, DLPNO-CCSD(T), (RO)-DLPNO pert. Triples 
  Michael Roemelt        : Original ROCIS implementation, recursive CI coupling coefficients
  Masaaki Saitow         : Open-shell DLPNO-CCSD energy and density      
  Barbara Sandhoefer     : DKH picture change effects                    
  Yorick L. A. Schmerwitz: GMF and freeze-and-release deltaSCF, NEB S-IDPP initial path                    
  Kantharuban Sivalingam : CASSCF convergence/infrastructure, NEVPT2, NEVPT3, NEVPT4(SD), FIC-MRCI and CEPA variants
  Bernardo de Souza      : ESD, SOC TD-DFT                               
  Georgi L. Stoychev     : AutoAux, RI-MP2 NMR, DLPNO-MP2 response, X2C  
  Van Anh Tran           : RI-MP2 g-tensors                              
  Willem Van den Heuvel  : Paramagnetic NMR                              
  Zikuan Wang            : NOTCH, Electric field optimization            
  Frank Wennmohs         : Technical directorship and infrastructure     
  Hang Xu                : AUTO-CI-Response properties                   
                                                                         
[FACCTs GmbH]                                                            
  Markus Bursch, Nicolas Foglia, Miquel Garcia-Rates, Ingolf Harden, Hagen Neugebauer, Anastasios Papadopoulos, 
  Christoph Riplinger, Bernardo de Souza, Georgi L. Stoychev                                                    
                                                                 
  APM, various basis sets, CI-OPT, improved COSX, DLPNO-Multilevel,           
  DOCKER, DRACO, updates on ESD, Fragmentator, GOAT, IRC, LR-CPCM, L-BFGS, MBIS, meta-GGA TD-DFT gradient, ML-optimized integration grids, 
  MM, NACMEs, nearIR, NEB, NEB-TS, NL-DFT gradient (VV10), 2- and 3-layer-ONIOM, interface openCOSMO-RS, QMMM,   
  Crystal-QMMM, RESP, rigid body optimization, SF, symmetry and pop. for TD-DFT, various functionals, SOLVATOR                                   
                                                                         
[Other institutions]                                                     
  V. Asgeirsson          : NEB                                           
  Christoph Bannwarth    : sTDA-DFT, sTD-DFT, PBEh-3c, B97-3c, D3        
  Giovanni Bistoni       : ETS/NOCV, ADLD/ADEX, COVALED                  
  Martin Brehm           : Molecular dynamics                            
  Ronald Cardenas        : ETS/NOCV                                      
  Martina Colucci        : COVALED                                       
  Sebastian Ehlert       : rSCAN, r2SCAN, r2SCAN-3c, D4, dhf basis sets  
  Marvin Friede          : D4 for Fr, Ra, Ac-Lr                          
  Lars Goerigk           : TD-DFT with DH, B97 family of functionals     
  Stefan Grimme          : VdW corrections, initial TS optimization, DFT functionals, gCP, sTDA/sTD-DF 
  Waldemar Hujo          : DFT-NL                                        
  H. Jonsson             : NEB                                           
  Holger Kruse           : gCP                                           
  Marcel Mueller         : wB97X-3c, vDZP basis set                      
  Hagen Neugebauer       : wr2SCAN, Native XTB                           
  Gianluca Regni         : ADLD/ADEX                                     
  Tobias Risthaus        : pre 6.0 range-separated hybrid DFT and stability analysis
  Lukas Wittmann         : regularized MP2, r2SCAN double-hybrids, wr2SCAN        
                                                                         
We gratefully acknowledge several colleagues who have allowed us to      
interface, adapt or use parts of their codes:                            
  Ed Valeev, F. Pavosevic, A. Kumar             : LibInt (2-el integral package), F12 methods 
  Garnet Chan, S. Sharma, J. Yang, R. Olivares  : DMRG                   
  Ulf Ekstrom                                   : XCFun DFT Library      
  Mihaly Kallay                                 : mrcc  (arbitrary order and MRCC methods)
  Frank Weinhold                                : gennbo (NPA and NBO analysis)           
  Simon Mueller                                 : openCOSMO-RS                            
  Christopher J. Cramer and Donald G. Truhlar   : smd solvation model                     
  S Lehtola, MJT Oliveira, MAL Marques          : LibXC Library                           
  Liviu Ungur et al                             : ANISO software                          


 Your calculation uses the libint2 library for the computation of 2-el integrals
 For citations please refer to: http://libint.valeyev.net

 Your ORCA version has been built with support for libXC version: 7.0.0
 For citations please refer to: https://libxc.gitlab.io

 This ORCA versions uses:
   CBLAS   interface :  Fast vector & matrix operations
   LAPACKE interface :  Fast linear algebra routines
   SCALAPACK package :  Parallel linear algebra routines
   Shared memory     :  Shared parallel matrices
   BLAS/LAPACK       :  OpenBLAS 0.3.29  USE64BITINT DYNAMIC_ARCH NO_AFFINITY Haswell SINGLE_THREADED
        Core in use  :  Haswell
   Copyright (c) 2011-2014, The OpenBLAS Project


  ***********************************
  * Starting time: Sat Aug 30 14:27:09 2025
  * Host name:     chemlab03
  * Process ID:    73277
  * Working dir.:  /home/vivek/mm-project/vivek/xtb-goat/B97-D-opt/a/3
  ***********************************



***************************************
The coordinates will be read from file: /home/vivek/mm-project/vivek/xtb-goat/xtb-goat/a/A_CONF/3.xyz
***************************************


Your calculation utilizes empirical dispersion correction


Warning: RI is on but no J-basis has been assigned. Assigning Def2/J (nothing to worry about!)
================================================================================

----- Orbital basis set information -----
Your calculation utilizes the basis: 6-31G**
   H-He, Li-Ne : W. J. Hehre, R. Ditchfield and J.A. Pople, J. Chem. Phys. 56, 2257 (1972).
                 Note: He and Ne are unpublished basis sets taken from the Gaussian program.
                 Note: Li and B from J. D. Dill and J. A. Pople, J. Chem. Phys. 62, 2921 (1975).
   Na - Ar     : M. M. Francl, W. J. Pietro, W. J. Hehre, J. S. Binkley, M. S. Gordon, 
                 D. J. DeFrees and J. A. Pople, J. Chem. Phys. 77, 3654 (1982).
   K - Zn      : V. A. Rassolov, J. A. Pople, M. A. Ratner, and T. L. Windus, J. Chem. Phys. 109, 1223 (1998).

----- AuxJ basis set information -----
Your calculation utilizes the auxiliary basis: def2/J
   H-Rn: F. Weigend, Phys. Chem. Chem. Phys. 8, 1057 (2006).
   Fr-Lr: K. Eichkorn, F. Weigend, O. Treutler, R. Ahlrichs; Theor. Chem. Acc. 97, 119 (1997).

================================================================================
                                        WARNINGS
                       Please study these warnings very carefully!
================================================================================


WARNING: Geometry Optimization
  ===> : Switching off AutoStart
         For restart on a previous wavefunction, please use MOREAD

INFO   : The exchange functional is Grimme's B97(-D)
         As described in S. Grimme, J. Comput. Chem. 27, 1787 (2006).
         Note that this functional defaults to a pure GGA. 

INFO   : The correlation functional is Grimme's B97(-D)
         As described in S. Grimme, J. Comput. Chem. 27, 1787 (2006).

================================================================================
                                       INPUT FILE
================================================================================
NAME = 3.inp
|  1> ! B97-D 6-31G** opt
|  2> 
|  3> * xyzfile 0 1 /home/vivek/mm-project/vivek/xtb-goat/xtb-goat/a/A_CONF/3.xyz
|  4> 
|  5>                          ****END OF INPUT****
================================================================================

                       *****************************
                       * Geometry Optimization Run *
                       *****************************

Geometry optimization settings:
Update method            Update   .... BFGS
Choice of coordinates    CoordSys .... (2022) Redundant Internals
Initial Hessian          InHess   .... Almloef's Model
Max. no of cycles        MaxIter  .... 50

Convergence Tolerances:
Energy Change            TolE     ....  5.0000e-06 Eh
Max. Gradient            TolMAXG  ....  3.0000e-04 Eh/bohr
RMS Gradient             TolRMSG  ....  1.0000e-04 Eh/bohr
Max. Displacement        TolMAXD  ....  4.0000e-03 bohr
RMS Displacement         TolRMSD  ....  2.0000e-03 bohr
Strict Convergence                .... False

------------------------------------------------------------------------------
                        ORCA OPTIMIZATION COORDINATE SETUP
------------------------------------------------------------------------------

The optimization will be done in redundant internal coordinates (2022)
Making redundant internal coordinates   ...  (2022 redundants) done
Evaluating the initial hessian          ...  (Almloef) done
Evaluating the coordinates              ...  done
Calculating the B-matrix                .... done
Calculating the G-matrix                .... done
The number of degrees of freedom        ....   49

    -----------------------------------------------------------------
                    Redundant Internal Coordinates


    -----------------------------------------------------------------
         Definition                    Initial Value    Approx d2E/dq
    -----------------------------------------------------------------
      1. B(O   1,C   0)                  1.2047         1.105229   
      2. B(O   2,C   0)                  1.3370         0.679826   
      3. B(C   3,C   0)                  1.5268         0.378011   
      4. B(H   4,O   2)                  0.9709         0.499502   
      5. B(C   5,C   3)                  1.5219         0.384827   
      6. B(H   6,C   5)                  1.0868         0.364345   
      7. B(N   7,C   3)                  1.4584         0.435228   
      8. B(H   8,C   5)                  1.0860         0.365476   
      9. B(H   9,C   5)                  1.0861         0.365322   
     10. B(H  10,C   3)                  1.0967         0.351352   
     11. B(H  11,N   7)                  1.0153         0.424358   
     12. B(H  12,N   7)                  1.0144         0.425816   
     13. A(O   1,C   0,C   3)          123.6019         0.437740   
     14. A(O   2,C   0,C   3)          114.0164         0.401415   
     15. A(O   1,C   0,O   2)          122.2159         0.484007   
     16. A(C   0,O   2,H   4)          110.3015         0.373443   
     17. A(C   0,C   3,H  10)          107.2636         0.323639   
     18. A(C   0,C   3,N   7)          108.8487         0.371419   
     19. A(C   0,C   3,C   5)          113.2884         0.365940   
     20. A(C   5,C   3,N   7)          110.0036         0.372564   
     21. A(N   7,C   3,H  10)          106.8756         0.329251   
     22. A(C   5,C   3,H  10)          110.3243         0.324590   
     23. A(H   8,C   5,H   9)          109.3578         0.292178   
     24. A(H   6,C   5,H   9)          108.7112         0.292036   
     25. A(C   3,C   5,H   6)          110.4637         0.326534   
     26. A(C   3,C   5,H   9)          110.5016         0.326678   
     27. A(H   6,C   5,H   8)          108.8480         0.292055   
     28. A(C   3,C   5,H   8)          108.9306         0.326701   
     29. A(H  11,N   7,H  12)          108.2992         0.301541   
     30. A(C   3,N   7,H  12)          110.3252         0.337010   
     31. A(C   3,N   7,H  11)          110.2264         0.336818   
     32. D(H   4,O   2,C   0,O   1)     -1.1424         0.034422   
     33. D(H   4,O   2,C   0,C   3)   -176.6179         0.034422   
     34. D(N   7,C   3,C   0,O   1)    -69.7498         0.010670   
     35. D(N   7,C   3,C   0,O   2)    105.6541         0.010670   
     36. D(C   5,C   3,C   0,O   2)    -17.0610         0.010670   
     37. D(H  10,C   3,C   0,O   1)     45.5468         0.010670   
     38. D(C   5,C   3,C   0,O   1)    167.5351         0.010670   
     39. D(H   8,C   5,C   3,H  10)    -61.3798         0.011788   
     40. D(H   8,C   5,C   3,N   7)     56.2839         0.011788   
     41. D(H   8,C   5,C   3,C   0)    178.3571         0.011788   
     42. D(H   6,C   5,C   3,H  10)    179.1138         0.011788   
     43. D(H   6,C   5,C   3,N   7)    -63.2225         0.011788   
     44. D(H   6,C   5,C   3,C   0)     58.8507         0.011788   
     45. D(H  11,N   7,C   3,C   5)     61.7987         0.016150   
     46. D(H  11,N   7,C   3,C   0)    -62.8720         0.016150   
     47. D(H  12,N   7,C   3,C   5)   -178.6429         0.016150   
     48. D(H  12,N   7,C   3,C   0)     56.6864         0.016150   
     49. D(H  11,N   7,C   3,H  10)   -178.4193         0.016150   
    -----------------------------------------------------------------

Number of atoms                         .... 13
Number of degrees of freedom            .... 49


         *************************************************************
         *                GEOMETRY OPTIMIZATION CYCLE   1            *
         *************************************************************
---------------------------------
CARTESIAN COORDINATES (ANGSTROEM)
---------------------------------
  C     -4.586903   -0.075067   -1.604585
  O     -3.915197   -0.393843   -0.656649
  O     -4.124048    0.727556   -2.568531
  C     -5.984876   -0.626868   -1.873399
  H     -3.214888    1.003899   -2.369139
  C     -6.739009    0.142519   -2.948375
  H     -6.187957    0.125652   -3.884971
  N     -5.872603   -2.031106   -2.250890
  H     -7.707116   -0.324763   -3.102454
  H     -6.882035    1.176054   -2.646845
  H     -6.535183   -0.595090   -0.925300
  H     -5.345795   -2.121500   -3.114108
  H     -5.390112   -2.553015   -1.527176

----------------------------
CARTESIAN COORDINATES (A.U.)
----------------------------
  NO LB      ZA    FRAG     MASS         X           Y           Z
   0 C     6.0000    0    12.011   -8.667990   -0.141856   -3.032226
   1 O     8.0000    0    15.999   -7.398650   -0.744256   -1.240887
   2 O     8.0000    0    15.999   -7.793321    1.374881   -4.853820
   3 C     6.0000    0    12.011  -11.309777   -1.184609   -3.540212
   4 H     1.0000    0     1.008   -6.075257    1.897094   -4.477025
   5 C     6.0000    0    12.011  -12.734882    0.269322   -5.571621
   6 H     1.0000    0     1.008  -11.693544    0.237448   -7.341531
   7 N     7.0000    0    14.007  -11.097611   -3.838234   -4.253566
   8 H     1.0000    0     1.008  -14.564338   -0.613712   -5.862789
   9 H     1.0000    0     1.008  -13.005162    2.222421   -5.001811
  10 H     1.0000    0     1.008  -12.349705   -1.124556   -1.748564
  11 H     1.0000    0     1.008  -10.102089   -4.009053   -5.884811
  12 H     1.0000    0     1.008  -10.185835   -4.824499   -2.885945

--------------------------------
INTERNAL COORDINATES (ANGSTROEM)
--------------------------------
 C      0   0   0     0.000000000000     0.00000000     0.00000000
 O      1   0   0     1.204736106999     0.00000000     0.00000000
 O      1   2   0     1.337022418425   122.21589747     0.00000000
 C      1   2   3     1.526786226320   123.60188565   175.03699106
 H      3   1   2     0.970924815311   110.30150439   358.85758419
 C      4   1   2     1.521921735055   113.28843646   167.53506697
 H      6   4   1     1.086809820536   110.46365224    58.85072193
 N      4   1   2     1.458419577691   108.84871449   290.25020104
 H      6   4   1     1.085966285934   108.93062999   178.35708490
 H      6   4   1     1.086081218356   110.50159508   298.51329238
 H      4   1   2     1.096694502584   107.26364345    45.54677840
 H      8   4   1     1.015303972226   110.22644816   297.12799372
 H      8   4   1     1.014370658881   110.32523737    56.68641138

---------------------------
INTERNAL COORDINATES (A.U.)
---------------------------
 C      0   0   0     0.000000000000     0.00000000     0.00000000
 O      1   0   0     2.276621305875     0.00000000     0.00000000
 O      1   2   0     2.526606205736   122.21589747     0.00000000
 C      1   2   3     2.885207832789   123.60188565   175.03699106
 H      3   1   2     1.834781997566   110.30150439   358.85758419
 C      4   1   2     2.876015276516   113.28843646   167.53506697
 H      6   4   1     2.053772920469   110.46365224    58.85072193
 N      4   1   2     2.756013590184   108.84871449   290.25020104
 H      6   4   1     2.052178871087   108.93062999   178.35708490
 H      6   4   1     2.052396061888   110.50159508   298.51329238
 H      4   1   2     2.072452262461   107.26364345    45.54677840
 H      8   4   1     1.918646450190   110.22644816   297.12799372
 H      8   4   1     1.916882743571   110.32523737    56.68641138

---------------------
BASIS SET INFORMATION
---------------------
There are 4 groups of distinct atoms

 Group   1 Type C   : 10s4p1d contracted to 3s2p1d pattern {631/31/1}
 Group   2 Type O   : 10s4p1d contracted to 3s2p1d pattern {631/31/1}
 Group   3 Type H   : 4s1p contracted to 2s1p pattern {31/1}
 Group   4 Type N   : 10s4p1d contracted to 3s2p1d pattern {631/31/1}

Atom   0C    basis set group =>   1
Atom   1O    basis set group =>   2
Atom   2O    basis set group =>   2
Atom   3C    basis set group =>   1
Atom   4H    basis set group =>   3
Atom   5C    basis set group =>   1
Atom   6H    basis set group =>   3
Atom   7N    basis set group =>   4
Atom   8H    basis set group =>   3
Atom   9H    basis set group =>   3
Atom  10H    basis set group =>   3
Atom  11H    basis set group =>   3
Atom  12H    basis set group =>   3
---------------------------------
AUXILIARY/J BASIS SET INFORMATION
---------------------------------
There are 4 groups of distinct atoms

 Group   1 Type C   : 12s5p4d2f1g contracted to 6s4p3d1f1g pattern {711111/2111/211/2/1}
 Group   2 Type O   : 12s5p4d2f1g contracted to 6s4p3d1f1g pattern {711111/2111/211/2/1}
 Group   3 Type H   : 5s2p1d contracted to 3s1p1d pattern {311/2/1}
 Group   4 Type N   : 12s5p4d2f1g contracted to 6s4p3d1f1g pattern {711111/2111/211/2/1}

Atom   0C    basis set group =>   1
Atom   1O    basis set group =>   2
Atom   2O    basis set group =>   2
Atom   3C    basis set group =>   1
Atom   4H    basis set group =>   3
Atom   5C    basis set group =>   1
Atom   6H    basis set group =>   3
Atom   7N    basis set group =>   4
Atom   8H    basis set group =>   3
Atom   9H    basis set group =>   3
Atom  10H    basis set group =>   3
Atom  11H    basis set group =>   3
Atom  12H    basis set group =>   3
------------------------------------------------------------------------------
                             ORCA STARTUP CALCULATIONS
                           -- RI-GTO INTEGRALS CHOSEN --
------------------------------------------------------------------------------
------------------------------------------------------------------------------
                   ___                                                        
                  /   \      - P O W E R E D   B Y -                         
                 /     \                                                     
                 |  |  |   _    _      __       _____    __    __             
                 |  |  |  | |  | |    /  \     |  _  \  |  |  /  |          
                  \  \/   | |  | |   /    \    | | | |  |  | /  /          
                 / \  \   | |__| |  /  /\  \   | |_| |  |  |/  /          
                |  |  |   |  __  | /  /__\  \  |    /   |      \           
                |  |  |   | |  | | |   __   |  |    \   |  |\   \          
                \     /   | |  | | |  |  |  |  | |\  \  |  | \   \       
                 \___/    |_|  |_| |__|  |__|  |_| \__\ |__|  \__/        
                                                                              
                      - O R C A' S   B I G   F R I E N D -                    
                                      &                                       
                       - I N T E G R A L  F E E D E R -                       
                                                                              
 v1 FN, 2020, v2 2021, v3 2022-2024                                           
------------------------------------------------------------------------------


----------------------
SHARK INTEGRAL PACKAGE
----------------------

Number of atoms                             ...     13
Number of basis functions                   ...    119
Number of shells                            ...     57
Maximum angular momentum                    ...      2
Integral batch strategy                     ... SHARK/LIBINT Hybrid
RI-J (if used) integral strategy            ... SPLIT-RIJ (Revised 2003 algorithm where possible)
Printlevel                                  ...      1
Contraction scheme used                     ... SEGMENTED contraction
Prescreening option                         ... SCHWARTZ
   Thresh                                   ... 2.500e-11
   Tcut                                     ... 2.500e-12
   Tpresel                                  ... 2.500e-12 
Coulomb Range Separation                    ... NOT USED
Exchange Range Separation                   ... NOT USED
Multipole approximations                    ... NOT USED
Finite Nucleus Model                        ... NOT USED
CABS basis                                  ... NOT available
Auxiliary Coulomb fitting basis             ... AVAILABLE
   # of basis functions in Aux-J            ...    371
   # of shells in Aux-J                     ...    125
   Maximum angular momentum in Aux-J        ...      4
Auxiliary J/K fitting basis                 ... NOT available
Auxiliary Correlation fitting basis         ... NOT available
Auxiliary 'external' fitting basis          ... NOT available

Checking pre-screening integrals            ... done (  0.0 sec) Dimension = 57
   => SHARK Basis and OBASIS are compatible. Storing Pre-screening
Shell pair information
Shell pair cut-off parameter TPreSel        ...   2.5e-12
Total number of shell pairs                 ...      1653
Shell pairs after pre-screening             ...      1601
Total number of primitive shell pairs       ...      8022
Primitive shell pairs kept                  ...      5596
          la=0 lb=0:    506 shell pairs
          la=1 lb=0:    586 shell pairs
          la=1 lb=1:    185 shell pairs
          la=2 lb=0:    190 shell pairs
          la=2 lb=1:    113 shell pairs
          la=2 lb=2:     21 shell pairs

Checking whether 4 symmetric matrices of dimension 119 fit in memory
:Max Core in MB      =   4096.00
 MB in use           =      5.54
 MB left             =   4090.46
 MB needed           =      0.22
 Data fit in memory  = YES
Calculating RI/J V-Matrix + Cholesky decomp.... done (  0.0 sec)
Calculating Nuclear repulsion               ... done (  0.0 sec) ENN=    250.603947714723 Eh

Diagonalization of the overlap matrix:
Smallest eigenvalue                        ... 3.657e-03
Time for diagonalization                   ...    0.001 sec
Threshold for overlap eigenvalues          ... 1.000e-07
Number of eigenvalues below threshold      ... 0
Time for construction of square roots      ...    0.000 sec
Total time needed                          ...    0.001 sec

-------------------
DFT GRID GENERATION
-------------------

General Integration Accuracy     IntAcc      ... 4.388
Radial Grid Type                 RadialGrid  ... OptM3 with GC (2021)
Angular Grid (max. ang.)         AngularGrid ... 4 (Lebedev-302)
Angular grid pruning method      GridPruning ... 4 (adaptive)
Weight generation scheme         WeightScheme... mBecke (2022)
Basis function cutoff            BFCut       ... 1.0000e-11
Integration weight cutoff        WCut        ... 1.0000e-14
Partially contracted basis set               ... off
Rotationally invariant grid construction     ... off
Angular grids for H and He will be reduced by one unit

Total number of grid points                  ...    58950
Total number of batches                      ...      927
Average number of points per batch           ...       63
Average number of grid points per atom       ...     4535
Grids setup in   0.2 sec
Initializing property integral containers    ... done (  0.0 sec)

SHARK setup successfully completed in   0.2 seconds

Maximum memory used throughout the entire STARTUP-calculation: 24.8 MB
-------------------------------------------------------------------------------
                                 ORCA GUESS
                   Start orbitals & Density for SCF / CASSCF
-------------------------------------------------------------------------------

------------
SCF SETTINGS
------------
Hamiltonian:
 Density Functional     Method          .... DFT(GTOs)
 Exchange Functional    Exchange        .... B97(D)
 Correlation Functional Correlation     .... B97(D)
 Gradients option       PostSCFGGA      .... off
 RI-approximation to the Coulomb term is turned on
   Number of AuxJ basis functions       .... 371


General Settings:
 Integral files         IntName         .... 3
 Hartree-Fock type      HFTyp           .... RHF
 Total Charge           Charge          ....    0
 Multiplicity           Mult            ....    1
 Number of Electrons    NEL             ....   48
 Basis Dimension        Dim             ....  119
 Nuclear Repulsion      ENuc            ....    250.6039477147 Eh

Convergence Acceleration:
 AO-DIIS                CNVDIIS         .... on
   Start iteration      DIISMaxIt       ....    12
   Startup error        DIISStart       ....  0.200000
   # of expansion vecs  DIISMaxEq       ....     5
   Bias factor          DIISBfac        ....   1.050
   Max. coefficient     DIISMaxC        ....  10.000
 MO-DIIS                CNVKDIIS        .... off
 Trust-Rad. Augm. Hess. CNVTRAH         .... auto
   Auto Start mean grad. ratio tolernc. ....  1.125000
   Auto Start start iteration           ....    50
   Auto Start num. interpolation iter.  ....    10
   Max. Number of Micro iterations      ....    24
   Max. Number of Macro iterations      .... Maxiter - #DIIS iter
   Number of Davidson start vectors     ....     2
   Converg. threshold    (grad. norm)   ....   1.000e-05
   Grad. Scal. Fac. for Micro threshold ....   0.100
   Minimum threshold for Micro iter.    ....   1.000e-02
   NR start threshold (gradient norm)   ....   1.000e-04
   Initial trust radius                 ....   0.400
   Minimum AH scaling param. (alpha)    ....   1.000
   Maximum AH scaling param. (alpha)    .... 1000.000
   Quad. conv. algorithm                .... NR
   White noise on init. David. guess    .... on
   Maximum white noise                  ....   0.010
   Pseudo random numbers                .... off
   Inactive MOs                         .... canonical
   Orbital update algorithm             .... Taylor
   Preconditioner                       .... Diag
   Full preconditioner red. dimension   ....   250
 SOSCF                 CNVSOSCF           .... on
   Start iteration     SOSCFMaxIt         ....   150
   Startup grad/error  SOSCFStart         ....  0.003300
   Hessian update      SOSCFHessUp        .... L-BFGS
   Autom. constraints  SOSCFAutoConstrain .... off
 Level Shifting         CNVShift        .... on
   Level shift para.    LevelShift      ....    0.2500
   Turn off err/grad.   ShiftErr        ....    0.0010
 Zerner damping         CNVZerner       .... off
 Static damping         CNVDamp         .... on
   Fraction old density DampFac         ....    0.7000
   Max. Damping (<1)    DampMax         ....    0.9800
   Min. Damping (>=0)   DampMin         ....    0.0000
   Turn off err/grad.   DampErr         ....    0.1000

SCF Procedure:
 Maximum # iterations   MaxIter         ....   125
 SCF integral mode      SCFMode         .... Direct
   Integral package                     .... SHARK and LIBINT hybrid scheme
 Reset frequency        DirectResetFreq ....    20
 Integral Threshold     Thresh          ....  2.500e-11 Eh
 Primitive CutOff       TCut            ....  2.500e-12 Eh

Convergence Tolerance:
 Convergence Check Mode ConvCheckMode   .... Total+1el-Energy
 Convergence forced     ConvForced      .... 0
 Energy Change          TolE            ....  1.000e-08 Eh
 1-El. energy change                    ....  1.000e-05 Eh
 Orbital Gradient       TolG            ....  1.000e-05
 Orbital Rotation angle TolX            ....  1.000e-05
 DIIS Error             TolErr          ....  5.000e-07

------------------------------
INITIAL GUESS: MODEL POTENTIAL
------------------------------
Loading Hartree-Fock densities                     ... done
Calculating cut-offs                               ... done
Initializing the effective Hamiltonian             ... done
Setting up the integral package (SHARK)            ... done
Starting the Coulomb interaction                   ... done (   0.0 sec)
Making the grid                                    ... done (   0.0 sec)
Mapping shells                                     ... done
Starting the XC term evaluation                    ... done (   0.0 sec)
  promolecular density results
     # of electrons  =     47.998285972
     EX              =    -39.858391645
     EC              =     -2.124223703
     EX+EC           =    -41.982615349
Transforming the Hamiltonian                       ... done (   0.0 sec)
Diagonalizing the Hamiltonian                      ... done (   0.0 sec)
Back transforming the eigenvectors                 ... done (   0.0 sec)
Now organizing SCF variables                       ... done
                      ------------------
                      INITIAL GUESS DONE (   0.1 sec)
                      ------------------
             **** ENERGY FILE WAS UPDATED (3.en.tmp) ****
Finished Guess after   0.1 sec
Maximum memory used throughout the entire GUESS-calculation: 9.4 MB

-------------------------------------------------------------------------------------------
                                      ORCA LEAN-SCF
                              memory conserving SCF solver
-------------------------------------------------------------------------------------------

----------------------------------------D-I-I-S--------------------------------------------
Iteration    Energy (Eh)           Delta-E    RMSDP     MaxDP     DIISErr   Damp  Time(sec)
-------------------------------------------------------------------------------------------
               ***  Starting incremental Fock matrix formation  ***
    1    -323.2659704235604750     0.00e+00  4.89e-03  1.03e-01  2.64e-01  0.700   0.2
    2    -323.3987410330552166    -1.33e-01  3.02e-03  5.39e-02  9.76e-02  0.700   0.2
                               ***Turning on AO-DIIS***
    3    -323.4380579578800052    -3.93e-02  1.12e-03  1.51e-02  3.10e-02  0.700   0.2
    4    -323.4641971504680669    -2.61e-02  1.47e-03  1.90e-02  1.36e-02  0.000   0.2
    5    -323.5254409450634512    -6.12e-02  5.20e-04  8.19e-03  1.19e-02  0.000   0.2
    6    -323.5260829919973276    -6.42e-04  1.88e-04  2.61e-03  3.38e-03  0.000   0.2
                              *** Initializing SOSCF ***
---------------------------------------S-O-S-C-F--------------------------------------
Iteration    Energy (Eh)           Delta-E    RMSDP     MaxDP     MaxGrad    Time(sec)
--------------------------------------------------------------------------------------
    7    -323.5261341248324243    -5.11e-05  7.02e-05  1.01e-03  1.42e-03     0.2
               *** Restarting incremental Fock matrix formation ***
    8    -323.5261416449519629    -7.52e-06  4.80e-05  7.76e-04  1.12e-04     0.2
    9    -323.5261417880637964    -1.43e-07  2.40e-05  4.26e-04  2.85e-04     0.2
   10    -323.5261422155336959    -4.27e-07  2.46e-05  4.25e-04  2.28e-04     0.2
   11    -323.5261423377864958    -1.22e-07  1.06e-05  1.64e-04  7.99e-05     0.2
   12    -323.5261424878309526    -1.50e-07  9.04e-06  1.39e-04  3.62e-05     0.2
   13    -323.5261425032249463    -1.54e-08  3.29e-06  5.99e-05  2.29e-05     0.2
   14    -323.5261425209382651    -1.77e-08  1.94e-06  2.75e-05  7.54e-06     0.2
   15    -323.5261425227269001    -1.79e-09  7.71e-07  1.13e-05  3.78e-06     0.2
                 **** Energy Check signals convergence ****

               *****************************************************
               *                     SUCCESS                       *
               *           SCF CONVERGED AFTER  15 CYCLES          *
               *****************************************************

             **** ENERGY FILE WAS UPDATED (3.en.tmp) ****

----------------
TOTAL SCF ENERGY
----------------

Total Energy       :       -323.52614252244814 Eh           -8803.59390 eV

Components:
Nuclear Repulsion  :        250.60394771472318 Eh            6819.28010 eV
Electronic Energy  :       -574.13009023717132 Eh          -15622.87401 eV
One Electron Energy:       -937.61030995512886 Eh          -25513.67362 eV
Two Electron Energy:        363.48021971795754 Eh            9890.79962 eV

Virial components:
Potential Energy   :       -645.40853131510335 Eh          -17562.45900 eV
Kinetic Energy     :        321.88238879265515 Eh            8758.86509 eV
Virial Ratio       :          2.00510669047772

DFT components:
N(Alpha)           :       24.000021401174 electrons
N(Beta)            :       24.000021401174 electrons
N(Total)           :       48.000042802347 electrons
E(X)               :      -40.769695328596 Eh       
E(C)               :       -2.116043747907 Eh       
E(XC)              :      -42.885739076503 Eh       

---------------
SCF CONVERGENCE
---------------

  Last Energy change         ...    1.7886e-09  Tolerance :   1.0000e-08
  Last MAX-Density change    ...    1.1283e-05  Tolerance :   1.0000e-07
  Last RMS-Density change    ...    7.7136e-07  Tolerance :   5.0000e-09
  Last DIIS Error            ...    1.4185e-03  Tolerance :   5.0000e-07
  Last Orbital Gradient      ...    3.7816e-06  Tolerance :   1.0000e-05
  Last Orbital Rotation      ...    1.0232e-05  Tolerance :   1.0000e-05


----------------
ORBITAL ENERGIES
----------------

  NO   OCC          E(Eh)            E(eV) 
   0   2.0000     -18.814197      -511.9603 
   1   2.0000     -18.748142      -510.1629 
   2   2.0000     -13.994959      -380.8222 
   3   2.0000     -10.025685      -272.8128 
   4   2.0000      -9.949042      -270.7272 
   5   2.0000      -9.897801      -269.3329 
   6   2.0000      -1.019960       -27.7545 
   7   2.0000      -0.927593       -25.2411 
   8   2.0000      -0.819696       -22.3051 
   9   2.0000      -0.680137       -18.5075 
  10   2.0000      -0.598655       -16.2902 
  11   2.0000      -0.545156       -14.8345 
  12   2.0000      -0.449215       -12.2238 
  13   2.0000      -0.440740       -11.9931 
  14   2.0000      -0.415154       -11.2969 
  15   2.0000      -0.409553       -11.1445 
  16   2.0000      -0.370278       -10.0758 
  17   2.0000      -0.352019        -9.5789 
  18   2.0000      -0.331338        -9.0162 
  19   2.0000      -0.327768        -8.9190 
  20   2.0000      -0.313166        -8.5217 
  21   2.0000      -0.270564        -7.3624 
  22   2.0000      -0.227661        -6.1950 
  23   2.0000      -0.193183        -5.2568 
  24   0.0000      -0.017369        -0.4726 
  25   0.0000       0.047538         1.2936 
  26   0.0000       0.078069         2.1244 
  27   0.0000       0.105685         2.8758 
  28   0.0000       0.118448         3.2231 
  29   0.0000       0.144524         3.9327 
  30   0.0000       0.158574         4.3150 
  31   0.0000       0.159731         4.3465 
  32   0.0000       0.190367         5.1801 
  33   0.0000       0.209482         5.7003 
  34   0.0000       0.228997         6.2313 
*Only the first 10 virtual orbitals were printed.

                    ********************************
                    * MULLIKEN POPULATION ANALYSIS *
                    ********************************

-----------------------
MULLIKEN ATOMIC CHARGES
-----------------------
   0 C :    0.496194
   1 O :   -0.426698
   2 O :   -0.453599
   3 C :   -0.039694
   4 H :    0.315617
   5 C :   -0.314469
   6 H :    0.118062
   7 N :   -0.559050
   8 H :    0.122571
   9 H :    0.115355
  10 H :    0.134031
  11 H :    0.238841
  12 H :    0.252839
Sum of atomic charges:   -0.0000000

--------------------------------
MULLIKEN REDUCED ORBITAL CHARGES
--------------------------------
  0 C s       :     2.985728  s :     2.985728
      pz      :     0.734752  p :     2.393820
      px      :     0.886797
      py      :     0.772271
      dz2     :     0.031737  d :     0.124258
      dxz     :     0.029829
      dyz     :     0.028295
      dx2y2   :     0.020385
      dxy     :     0.014011

  1 O s       :     3.857340  s :     3.857340
      pz      :     1.425520  p :     4.541523
      px      :     1.596737
      py      :     1.519265
      dz2     :     0.008629  d :     0.027836
      dxz     :     0.006909
      dyz     :     0.005822
      dx2y2   :     0.002773
      dxy     :     0.003703

  2 O s       :     3.822567  s :     3.822567
      pz      :     1.618443  p :     4.608173
      px      :     1.384982
      py      :     1.604749
      dz2     :     0.006233  d :     0.022858
      dxz     :     0.004319
      dyz     :     0.005583
      dx2y2   :     0.004844
      dxy     :     0.001880

  3 C s       :     3.210292  s :     3.210292
      pz      :     1.022001  p :     2.771598
      px      :     0.917173
      py      :     0.832424
      dz2     :     0.010981  d :     0.057805
      dxz     :     0.009026
      dyz     :     0.009008
      dx2y2   :     0.013669
      dxy     :     0.015120

  4 H s       :     0.646530  s :     0.646530
      pz      :     0.008326  p :     0.037853
      px      :     0.020004
      py      :     0.009523

  5 C s       :     3.243442  s :     3.243442
      pz      :     0.997767  p :     3.041989
      px      :     1.027911
      py      :     1.016310
      dz2     :     0.006891  d :     0.029038
      dxz     :     0.006703
      dyz     :     0.004002
      dx2y2   :     0.006897
      dxy     :     0.004545

  6 H s       :     0.870174  s :     0.870174
      pz      :     0.005437  p :     0.011763
      px      :     0.003679
      py      :     0.002647

  7 N s       :     3.603150  s :     3.603150
      pz      :     1.151094  p :     3.927350
      px      :     1.633276
      py      :     1.142980
      dz2     :     0.002565  d :     0.028550
      dxz     :     0.010171
      dyz     :     0.005218
      dx2y2   :     0.005876
      dxy     :     0.004721

  8 H s       :     0.865859  s :     0.865859
      pz      :     0.002588  p :     0.011570
      px      :     0.005653
      py      :     0.003330

  9 H s       :     0.872997  s :     0.872997
      pz      :     0.002765  p :     0.011648
      px      :     0.002725
      py      :     0.006159

 10 H s       :     0.855193  s :     0.855193
      pz      :     0.005577  p :     0.010776
      px      :     0.003458
      py      :     0.001740

 11 H s       :     0.737240  s :     0.737240
      pz      :     0.010301  p :     0.023919
      px      :     0.008767
      py      :     0.004851

 12 H s       :     0.723350  s :     0.723350
      pz      :     0.008319  p :     0.023811
      px      :     0.008471
      py      :     0.007021



                     *******************************
                     * LOEWDIN POPULATION ANALYSIS *
                     *******************************

----------------------
LOEWDIN ATOMIC CHARGES
----------------------
   0 C :    0.097381
   1 O :   -0.230049
   2 O :   -0.138339
   3 C :   -0.041966
   4 H :    0.180721
   5 C :   -0.197809
   6 H :    0.074407
   7 N :   -0.239221
   8 H :    0.078541
   9 H :    0.075908
  10 H :    0.085699
  11 H :    0.124236
  12 H :    0.130490

-------------------------------
LOEWDIN REDUCED ORBITAL CHARGES
-------------------------------
  0 C s       :     2.859712  s :     2.859712
      pz      :     0.914604  p :     2.747199
      px      :     0.999158
      py      :     0.833437
      dz2     :     0.074818  d :     0.295707
      dxz     :     0.071472
      dyz     :     0.071184
      dx2y2   :     0.046920
      dxy     :     0.031314

  1 O s       :     3.555018  s :     3.555018
      pz      :     1.484840  p :     4.617184
      px      :     1.619613
      py      :     1.512731
      dz2     :     0.015649  d :     0.057847
      dxz     :     0.018901
      dyz     :     0.011065
      dx2y2   :     0.006085
      dxy     :     0.006147

  2 O s       :     3.471073  s :     3.471073
      pz      :     1.628830  p :     4.615975
      px      :     1.393208
      py      :     1.593937
      dz2     :     0.011597  d :     0.051292
      dxz     :     0.009144
      dyz     :     0.012894
      dx2y2   :     0.010604
      dxy     :     0.007054

  3 C s       :     2.882608  s :     2.882608
      pz      :     1.062928  p :     3.029284
      px      :     1.017269
      py      :     0.949087
      dz2     :     0.023309  d :     0.130074
      dxz     :     0.020811
      dyz     :     0.020016
      dx2y2   :     0.031646
      dxy     :     0.034293

  4 H s       :     0.703488  s :     0.703488
      pz      :     0.024472  p :     0.115791
      px      :     0.064105
      py      :     0.027214

  5 C s       :     2.917746  s :     2.917746
      pz      :     1.063009  p :     3.217376
      px      :     1.080285
      py      :     1.074081
      dz2     :     0.014445  d :     0.062687
      dxz     :     0.015246
      dyz     :     0.009309
      dx2y2   :     0.013893
      dxy     :     0.009794

  6 H s       :     0.885262  s :     0.885262
      pz      :     0.021121  p :     0.040332
      px      :     0.012060
      py      :     0.007151

  7 N s       :     3.203782  s :     3.203782
      pz      :     1.173489  p :     3.977884
      px      :     1.607930
      py      :     1.196465
      dz2     :     0.007889  d :     0.057555
      dxz     :     0.015909
      dyz     :     0.013546
      dx2y2   :     0.012068
      dxy     :     0.008142

  8 H s       :     0.881021  s :     0.881021
      pz      :     0.007668  p :     0.040437
      px      :     0.022119
      py      :     0.010650

  9 H s       :     0.884188  s :     0.884188
      pz      :     0.008422  p :     0.039904
      px      :     0.007564
      py      :     0.023917

 10 H s       :     0.876105  s :     0.876105
      pz      :     0.020957  p :     0.038195
      px      :     0.011611
      py      :     0.005628

 11 H s       :     0.796838  s :     0.796838
      pz      :     0.036004  p :     0.078926
      px      :     0.029598
      py      :     0.013324

 12 H s       :     0.789963  s :     0.789963
      pz      :     0.028455  p :     0.079547
      px      :     0.028290
      py      :     0.022802



                      *****************************
                      * MAYER POPULATION ANALYSIS *
                      *****************************

  NA   - Mulliken gross atomic population
  ZA   - Total nuclear charge
  QA   - Mulliken gross atomic charge
  VA   - Mayer's total valence
  BVA  - Mayer's bonded valence
  FA   - Mayer's free valence

  ATOM       NA         ZA         QA         VA         BVA        FA
  0 C      5.5038     6.0000     0.4962     3.9464     3.9464     0.0000
  1 O      8.4267     8.0000    -0.4267     2.0928     2.0928     0.0000
  2 O      8.4536     8.0000    -0.4536     2.0530     2.0530    -0.0000
  3 C      6.0397     6.0000    -0.0397     3.8861     3.8861    -0.0000
  4 H      0.6844     1.0000     0.3156     0.9209     0.9209    -0.0000
  5 C      6.3145     6.0000    -0.3145     3.8646     3.8646     0.0000
  6 H      0.8819     1.0000     0.1181     0.9621     0.9621    -0.0000
  7 N      7.5590     7.0000    -0.5590     2.9000     2.9000     0.0000
  8 H      0.8774     1.0000     0.1226     0.9559     0.9559     0.0000
  9 H      0.8846     1.0000     0.1154     0.9565     0.9565    -0.0000
 10 H      0.8660     1.0000     0.1340     0.9456     0.9456     0.0000
 11 H      0.7612     1.0000     0.2388     0.9225     0.9225    -0.0000
 12 H      0.7472     1.0000     0.2528     0.9224     0.9224     0.0000

  Mayer bond orders larger than 0.100000
B(  0-C ,  1-O ) :   1.8996 B(  0-C ,  2-O ) :   1.0902 B(  0-C ,  3-C ) :   0.9116 
B(  2-O ,  4-H ) :   0.8512 B(  3-C ,  5-C ) :   0.9964 B(  3-C ,  7-N ) :   1.0188 
B(  3-C , 10-H ) :   0.9342 B(  5-C ,  6-H ) :   0.9539 B(  5-C ,  8-H ) :   0.9509 
B(  5-C ,  9-H ) :   0.9580 B(  7-N , 11-H ) :   0.9063 B(  7-N , 12-H ) :   0.8988 


-------
TIMINGS
-------

Total SCF time: 0 days 0 hours 0 min 3 sec 

Total time                  ....       3.393 sec
Sum of individual times     ....       3.167 sec  ( 93.3%)

SCF preparation             ....       0.023 sec  (  0.7%)
Fock matrix formation       ....       3.120 sec  ( 91.9%)
  Startup                   ....       0.000 sec  (  0.0% of F)
  Split-RI-J                ....       0.804 sec  ( 25.8% of F)
  XC integration            ....       2.494 sec  ( 79.9% of F)
    XC Preparation          ....       0.000 sec  (  0.0% of XC)
    Basis function eval.    ....       0.875 sec  ( 35.1% of XC)
    Density eval.           ....       0.474 sec  ( 19.0% of XC)
    XC-Functional eval.     ....       0.574 sec  ( 23.0% of XC)
    XC-Potential eval.      ....       0.502 sec  ( 20.1% of XC)
Diagonalization             ....       0.000 sec  (  0.0%)
Density matrix formation    ....       0.002 sec  (  0.1%)
Total Energy calculation    ....       0.000 sec  (  0.0%)
Population analysis         ....       0.001 sec  (  0.0%)
Orbital Transformation      ....       0.002 sec  (  0.1%)
Orbital Orthonormalization  ....       0.000 sec  (  0.0%)
DIIS solution               ....       0.011 sec  (  0.3%)
SOSCF solution              ....       0.007 sec  (  0.2%)
Finished LeanSCF after   3.4 sec

Maximum memory used throughout the entire LEANSCF-calculation: 12.9 MB



-------------------------------------------------------------------------------
                          DFT DISPERSION CORRECTION                            
-------------------------------------------------------------------------------
Active option DFTDOPT                   ...         2   
Final C6-coefficient scaling factor     ...     1.250
Final VDW-radii scaling factor          ...     1.100
Damping factor alpha                    ...    20.000
-------------------------   ----------------
Dispersion correction           -0.013236472
-------------------------   ----------------


-------------------------   --------------------
FINAL SINGLE POINT ENERGY      -323.539378994096
-------------------------   --------------------

------------------------------------------------------------------------------
                         ORCA SCF GRADIENT CALCULATION
------------------------------------------------------------------------------

Nuc. rep. gradient        (SHARK) ... done (  0.0 sec)
HCore & Overlap gradient  (SHARK) ... done (  0.0 sec)
Split-RIJ-J gradient      (SHARK) ... done (  0.2 sec)
XC gradient                       ... done (  1.1 sec)
Dispersion correction             ... done (  0.0 sec)

-------------------
DISPERSION GRADIENT
-------------------

   1   C   :   -0.000107101   -0.000128121    0.000403834
   2   O   :    0.000781595    0.000828862   -0.000178439
   3   O   :    0.000037601    0.000078091    0.000238721
   4   C   :    0.000002663    0.000280252   -0.000891550
   5   H   :    0.000098195   -0.000195264    0.000411825
   6   C   :    0.000759344   -0.000040242    0.000748527
   7   H   :   -0.001288877    0.000642305    0.000184645
   8   N   :   -0.000118342   -0.000194006    0.000480717
   9   H   :    0.000452366    0.000917090   -0.000346274
  10   H   :   -0.000646893   -0.000610845   -0.000813666
  11   H   :   -0.000069532    0.000058251    0.000015043
  12   H   :    0.000109192   -0.000969732    0.000187688
  13   H   :   -0.000010211   -0.000666640   -0.000441071

Difference to translation invariance:
           :   -0.0000000000    0.0000000000    0.0000000000

Difference to rotation invariance:
           :    0.0000000000   -0.0000000000   -0.0000000000

Norm of the Dispersion gradient    ...    0.0032340970
RMS gradient                       ...    0.0005178700
MAX gradient                       ...    0.0012888773

------------------
CARTESIAN GRADIENT
------------------

   1   C   :    0.008786249    0.000503409   -0.001338326
   2   O   :   -0.015478912    0.009683970   -0.026702745
   3   O   :    0.000791005   -0.016459200    0.025936521
   4   C   :   -0.000329882   -0.002746791    0.003443149
   5   H   :   -0.003022397    0.002975048   -0.005603697
   6   C   :    0.003461862    0.002858333   -0.003152119
   7   H   :   -0.003643461   -0.000533550    0.006694730
   8   N   :    0.009007593    0.008936367    0.002450202
   9   H   :    0.007617598    0.003066279    0.001376504
  10   H   :    0.000773965   -0.008190354   -0.000829020
  11   H   :   -0.000482165   -0.001644354   -0.002676010
  12   H   :   -0.003481907    0.000381232    0.002720005
  13   H   :   -0.003999547    0.001169611   -0.002319195

Difference to translation invariance:
           :    0.0000000000   -0.0000000000   -0.0000000000

Difference to rotation invariance:
           :   -0.0000214758    0.0001878279   -0.0000358826

Norm of the Cartesian gradient     ...    0.0508375298
RMS gradient                       ...    0.0081405198
MAX gradient                       ...    0.0267027453

-------
TIMINGS
-------

Total SCF gradient time     ....        1.375 sec

Densities                   ....       0.000 sec  (  0.0%)
One electron gradient       ....       0.041 sec  (  3.0%)
RI-J Coulomb gradient       ....       0.238 sec  ( 17.3%)
XC gradient                 ....       1.096 sec  ( 79.7%)

Maximum memory used throughout the entire SCFGRAD-calculation: 16.9 MB
------------------------------------------------------------------------------
                         ORCA GEOMETRY RELAXATION STEP
------------------------------------------------------------------------------

Reading the OPT-File                    .... done
Getting information on internals        .... done
Copying old internal coords+grads       .... done
Making the new internal coordinates     .... (2022 redundants) done
Validating the new internal coordinates .... (2022 redundants) done
Calculating the B-matrix                .... done
Calculating the G,G- and P matrices     .... done
Transforming gradient to internals      .... done
Projecting the internal gradient        .... done
Number of atoms                         ....  13
Number of internal coordinates          ....  49
Current Energy                          ....  -323.539378994 Eh
Current gradient norm                   ....     0.050837530 Eh/bohr
Maximum allowed component of the step   ....  0.300
Current trust radius                    ....  0.300
Evaluating the initial hessian          ....  (Almloef) done
Projecting the Hessian                  .... done
Forming the augmented Hessian           .... done
Diagonalizing the augmented Hessian     .... done
Last element of RFO vector              ....  0.991662509
Lowest eigenvalues of augmented Hessian:
 -0.004296649  0.010696768  0.011814842  0.016165495  0.017922511
Length of the computed step             ....  0.129945627
The final length of the internal step   ....  0.129945627
Converting the step to Cartesian space:
 Initial RMS(Int)=    0.0185636609
Transforming coordinates:
 Iter   0:  RMS(Cart)=    0.0369611667 RMS(Int)=    0.8930316208
done
Storing new coordinates                 .... done

                                .--------------------.
          ----------------------|Geometry convergence|-------------------------
          Item                value                   Tolerance       Converged
          ---------------------------------------------------------------------
          RMS gradient        0.0070046832            0.0001000000      NO
          MAX gradient        0.0322024323            0.0003000000      NO
          RMS step            0.0185636609            0.0020000000      NO
          MAX step            0.0470578572            0.0040000000      NO
          -------------------------------------------------------------------------
          ........................................................
          Max(Bonds)      0.0182      Max(Angles)    1.74
          Max(Dihed)        2.70      Max(Improp)    0.00
          ---------------------------------------------------------------------

The optimization has not yet converged - more geometry cycles are needed


    ---------------------------------------------------------------------------
                         Redundant Internal Coordinates
                            (Angstroem and degrees)

        Definition                    Value    dE/dq     Step     New-Value
    ----------------------------------------------------------------------------
     1. B(O   1,C   0)                1.2047 -0.032202  0.0154    1.2201   
     2. B(O   2,C   0)                1.3370 -0.023534  0.0182    1.3552   
     3. B(C   3,C   0)                1.5268 -0.010722  0.0148    1.5416   
     4. B(H   4,O   2)                0.9709 -0.003133  0.0033    0.9742   
     5. B(C   5,C   3)                1.5219 -0.008367  0.0114    1.5333   
     6. B(H   6,C   5)                1.0868 -0.007604  0.0109    1.0977   
     7. B(N   7,C   3)                1.4584 -0.010717  0.0129    1.4713   
     8. B(H   8,C   5)                1.0860 -0.008306  0.0119    1.0979   
     9. B(H   9,C   5)                1.0861 -0.008128  0.0116    1.0977   
    10. B(H  10,C   3)                1.0967 -0.002120  0.0032    1.0998   
    11. B(H  11,N   7)                1.0153 -0.004151  0.0051    1.0204   
    12. B(H  12,N   7)                1.0144 -0.004159  0.0051    1.0195   
    13. A(O   1,C   0,C   3)          123.60  0.002534   -0.31    123.29   
    14. A(O   2,C   0,C   3)          114.02  0.001681   -0.22    113.80   
    15. A(O   1,C   0,O   2)          122.22 -0.004204    0.51    122.73   
    16. A(C   0,O   2,H   4)          110.30  0.011467   -1.74    108.56   
    17. A(C   0,C   3,H  10)          107.26  0.003603   -1.30    105.96   
    18. A(C   0,C   3,N   7)          108.85 -0.000291    0.48    109.33   
    19. A(C   0,C   3,C   5)          113.29 -0.005662    1.54    114.82   
    20. A(C   5,C   3,N   7)          110.00  0.002633   -0.02    109.98   
    21. A(N   7,C   3,H  10)          106.88 -0.001345   -0.16    106.71   
    22. A(C   5,C   3,H  10)          110.32  0.001264   -0.63    109.69   
    23. A(H   8,C   5,H   9)          109.36 -0.000220    0.04    109.40   
    24. A(H   6,C   5,H   9)          108.71  0.002145   -0.42    108.29   
    25. A(C   3,C   5,H   6)          110.46  0.000123   -0.01    110.45   
    26. A(C   3,C   5,H   9)          110.50 -0.001380    0.24    110.74   
    27. A(H   6,C   5,H   8)          108.85  0.000364   -0.04    108.81   
    28. A(C   3,C   5,H   8)          108.93 -0.001011    0.19    109.12   
    29. A(H  11,N   7,H  12)          108.30  0.000716   -0.67    107.62   
    30. A(C   3,N   7,H  12)          110.33  0.001615   -0.52    109.81   
    31. A(C   3,N   7,H  11)          110.23  0.000562   -0.34    109.88   
    32. D(H   4,O   2,C   0,O   1)     -1.14 -0.000425    0.71     -0.43   
    33. D(H   4,O   2,C   0,C   3)   -176.62 -0.000714    0.97   -175.65   
    34. D(N   7,C   3,C   0,O   1)    -69.75  0.000002   -0.35    -70.10   
    35. D(N   7,C   3,C   0,O   2)    105.65 -0.000053   -0.57    105.09   
    36. D(C   5,C   3,C   0,O   2)    -17.06  0.000640   -1.94    -19.00   
    37. D(H  10,C   3,C   0,O   1)     45.55  0.000170   -0.99     44.56   
    38. D(C   5,C   3,C   0,O   1)    167.54  0.000694   -1.72    165.81   
    39. D(H   8,C   5,C   3,H  10)    -61.38 -0.000002    0.82    -60.56   
    40. D(H   8,C   5,C   3,N   7)     56.28  0.000718    0.23     56.51   
    41. D(H   8,C   5,C   3,C   0)    178.36 -0.001680    1.90    180.26   
    42. D(H   6,C   5,C   3,H  10)    179.11  0.000106    0.76    179.87   
    43. D(H   6,C   5,C   3,N   7)    -63.22  0.000827    0.16    -63.06   
    44. D(H   6,C   5,C   3,C   0)     58.85 -0.001572    1.84     60.69   
    45. D(H  11,N   7,C   3,C   5)     61.80 -0.003318    0.93     62.72   
    46. D(H  11,N   7,C   3,C   0)    -62.87  0.002234   -1.31    -64.18   
    47. D(H  12,N   7,C   3,C   5)   -178.64 -0.001050   -0.46   -179.10   
    48. D(H  12,N   7,C   3,C   0)     56.69  0.004502   -2.70     53.99   
    49. D(H  11,N   7,C   3,H  10)   -178.42 -0.001127    0.06   -178.36   
    ----------------------------------------------------------------------------

Geometry step timings:
Preparation and reading OPT file:      0.000 s ( 2.112 %)
Internal coordinates            :      0.000 s ( 1.659 %)
B/P matrices and projection     :      0.000 s (39.517 %)
Hessian update/contruction      :      0.000 s (10.709 %)
Making the step                 :      0.000 s (23.077 %)
Converting the step to Cartesian:      0.000 s ( 3.922 %)
Storing new data                :      0.000 s ( 1.810 %)
Checking convergence            :      0.000 s ( 1.659 %)
Final printing                  :      0.000 s (15.535 %)
Total time                      :      0.001 s

Time for energy+gradient        :      5.222 s
Time for complete geometry iter :      5.236 s

         *************************************************************
         *                GEOMETRY OPTIMIZATION CYCLE   2            *
         *************************************************************
---------------------------------
CARTESIAN COORDINATES (ANGSTROEM)
---------------------------------
  C     -4.573199   -0.065242   -1.591003
  O     -3.916935   -0.383347   -0.612863
  O     -4.086483    0.733503   -2.571693
  C     -5.980086   -0.623272   -1.884069
  H     -3.173828    0.985414   -2.342134
  C     -6.765823    0.142226   -2.955348
  H     -6.231844    0.116943   -3.914113
  N     -5.872551   -2.042249   -2.257876
  H     -7.749031   -0.328623   -3.085288
  H     -6.899991    1.191829   -2.663257
  H     -6.524458   -0.588176   -0.929032
  H     -5.348769   -2.132890   -3.128916
  H     -5.362725   -2.551686   -1.536830

----------------------------
CARTESIAN COORDINATES (A.U.)
----------------------------
  NO LB      ZA    FRAG     MASS         X           Y           Z
   0 C     6.0000    0    12.011   -8.642093   -0.123290   -3.006561
   1 O     8.0000    0    15.999   -7.401935   -0.724420   -1.158143
   2 O     8.0000    0    15.999   -7.722333    1.386120   -4.859796
   3 C     6.0000    0    12.011  -11.300724   -1.177813   -3.560374
   4 H     1.0000    0     1.008   -5.997665    1.862162   -4.425992
   5 C     6.0000    0    12.011  -12.785552    0.268768   -5.584799
   6 H     1.0000    0     1.008  -11.776478    0.220991   -7.396601
   7 N     7.0000    0    14.007  -11.097512   -3.859291   -4.266767
   8 H     1.0000    0     1.008  -14.643547   -0.621008   -5.830350
   9 H     1.0000    0     1.008  -13.039094    2.252230   -5.032826
  10 H     1.0000    0     1.008  -12.329438   -1.111491   -1.755617
  11 H     1.0000    0     1.008  -10.107708   -4.030578   -5.912795
  12 H     1.0000    0     1.008  -10.134082   -4.821988   -2.904188

--------------------------------
INTERNAL COORDINATES (ANGSTROEM)
--------------------------------
 C      0   0   0     0.000000000000     0.00000000     0.00000000
 O      1   0   0     1.220094739405     0.00000000     0.00000000
 O      1   2   0     1.355226456181   122.72606006     0.00000000
 C      1   2   3     1.541627268814   123.29132295   174.76611967
 H      3   1   2     0.974215319883   108.56216843   359.57185994
 C      4   1   2     1.533300121233   114.81968174   165.80466393
 H      6   4   1     1.097725894721   110.45402340    60.69492778
 N      4   1   2     1.471323170775   109.31092556   289.90635541
 H      6   4   1     1.097853376080   109.11778659   180.26261435
 H      6   4   1     1.097718070629   110.73760858   300.73297043
 H      4   1   2     1.099848578536   105.96620544    44.56325160
 H      8   4   1     1.020428712507   109.87989448   295.81399353
 H      8   4   1     1.019487823696   109.80269415    53.99465873

---------------------------
INTERNAL COORDINATES (A.U.)
---------------------------
 C      0   0   0     0.000000000000     0.00000000     0.00000000
 O      1   0   0     2.305644914914     0.00000000     0.00000000
 O      1   2   0     2.561006851628   122.72606006     0.00000000
 C      1   2   3     2.913253338643   123.29132295   174.76611967
 H      3   1   2     1.841000150050   108.56216843   359.57185994
 C      4   1   2     2.897517310238   114.81968174   165.80466393
 H      6   4   1     2.074401311136   110.45402340    60.69492778
 N      4   1   2     2.780397847258   109.31092556   289.90635541
 H      6   4   1     2.074642215991   109.11778659   180.26261435
 H      6   4   1     2.074386525745   110.73760858   300.73297043
 H      4   1   2     2.078412602216   105.96620544    44.56325160
 H      8   4   1     1.928330805829   109.87989448   295.81399353
 H      8   4   1     1.926552783653   109.80269415    53.99465873

------------------------------------------------------------------------------
                   ___                                                        
                  /   \      - P O W E R E D   B Y -                         
                 /     \                                                     
                 |  |  |   _    _      __       _____    __    __             
                 |  |  |  | |  | |    /  \     |  _  \  |  |  /  |          
                  \  \/   | |  | |   /    \    | | | |  |  | /  /          
                 / \  \   | |__| |  /  /\  \   | |_| |  |  |/  /          
                |  |  |   |  __  | /  /__\  \  |    /   |      \           
                |  |  |   | |  | | |   __   |  |    \   |  |\   \          
                \     /   | |  | | |  |  |  |  | |\  \  |  | \   \       
                 \___/    |_|  |_| |__|  |__|  |_| \__\ |__|  \__/        
                                                                              
                      - O R C A' S   B I G   F R I E N D -                    
                                      &                                       
                       - I N T E G R A L  F E E D E R -                       
                                                                              
 v1 FN, 2020, v2 2021, v3 2022-2024                                           
------------------------------------------------------------------------------


----------------------
SHARK INTEGRAL PACKAGE
----------------------

Number of atoms                             ...     13
Number of basis functions                   ...    119
Number of shells                            ...     57
Maximum angular momentum                    ...      2
Integral batch strategy                     ... SHARK/LIBINT Hybrid
RI-J (if used) integral strategy            ... SPLIT-RIJ (Revised 2003 algorithm where possible)
Printlevel                                  ...      1
Contraction scheme used                     ... SEGMENTED contraction
Prescreening option                         ... SCHWARTZ
   Thresh                                   ... 2.500e-11
   Tcut                                     ... 2.500e-12
   Tpresel                                  ... 2.500e-12 
Coulomb Range Separation                    ... NOT USED
Exchange Range Separation                   ... NOT USED
Multipole approximations                    ... NOT USED
Finite Nucleus Model                        ... NOT USED
CABS basis                                  ... NOT available
Auxiliary Coulomb fitting basis             ... AVAILABLE
   # of basis functions in Aux-J            ...    371
   # of shells in Aux-J                     ...    125
   Maximum angular momentum in Aux-J        ...      4
Auxiliary J/K fitting basis                 ... NOT available
Auxiliary Correlation fitting basis         ... NOT available
Auxiliary 'external' fitting basis          ... NOT available

Checking pre-screening integrals            ... done (  0.0 sec) Dimension = 57
   => SHARK Basis and OBASIS are compatible. Storing Pre-screening
Shell pair information
Shell pair cut-off parameter TPreSel        ...   2.5e-12
Total number of shell pairs                 ...      1653
Shell pairs after pre-screening             ...      1598
Total number of primitive shell pairs       ...      8022
Primitive shell pairs kept                  ...      5573
          la=0 lb=0:    505 shell pairs
          la=1 lb=0:    585 shell pairs
          la=1 lb=1:    184 shell pairs
          la=2 lb=0:    190 shell pairs
          la=2 lb=1:    113 shell pairs
          la=2 lb=2:     21 shell pairs

Checking whether 4 symmetric matrices of dimension 119 fit in memory
:Max Core in MB      =   4096.00
 MB in use           =      5.64
 MB left             =   4090.36
 MB needed           =      0.22
 Data fit in memory  = YES
Calculating RI/J V-Matrix + Cholesky decomp.... done (  0.0 sec)
Calculating Nuclear repulsion               ... done (  0.0 sec) ENN=    247.862779841592 Eh

Diagonalization of the overlap matrix:
Smallest eigenvalue                        ... 3.981e-03
Time for diagonalization                   ...    0.001 sec
Threshold for overlap eigenvalues          ... 1.000e-07
Number of eigenvalues below threshold      ... 0
Time for construction of square roots      ...    0.000 sec
Total time needed                          ...    0.001 sec

-------------------
DFT GRID GENERATION
-------------------

General Integration Accuracy     IntAcc      ... 4.388
Radial Grid Type                 RadialGrid  ... OptM3 with GC (2021)
Angular Grid (max. ang.)         AngularGrid ... 4 (Lebedev-302)
Angular grid pruning method      GridPruning ... 4 (adaptive)
Weight generation scheme         WeightScheme... mBecke (2022)
Basis function cutoff            BFCut       ... 1.0000e-11
Integration weight cutoff        WCut        ... 1.0000e-14
Partially contracted basis set               ... off
Rotationally invariant grid construction     ... off
Angular grids for H and He will be reduced by one unit

Total number of grid points                  ...    58976
Total number of batches                      ...      930
Average number of points per batch           ...       63
Average number of grid points per atom       ...     4537
Grids setup in   0.2 sec
Initializing property integral containers    ... done (  0.0 sec)

SHARK setup successfully completed in   0.2 seconds

Maximum memory used throughout the entire STARTUP-calculation: 24.9 MB
Occupation numbers will be reassigned to an Aufbau configuration
             **** ENERGY FILE WAS UPDATED (3.en.tmp) ****
Finished Guess after   0.0 sec
Maximum memory used throughout the entire GUESS-calculation: 9.2 MB
----------------------------------------D-I-I-S--------------------------------------------
Iteration    Energy (Eh)           Delta-E    RMSDP     MaxDP     DIISErr   Damp  Time(sec)
-------------------------------------------------------------------------------------------
               ***  Starting incremental Fock matrix formation  ***
    1    -323.5274880577072736     0.00e+00  2.13e-04  3.20e-03  1.40e-02  0.700   0.2
    2    -323.5278831556599926    -3.95e-04  1.97e-04  3.03e-03  1.07e-02  0.700   0.2
                               ***Turning on AO-DIIS***
    3    -323.5281700101261322    -2.87e-04  1.51e-04  2.35e-03  7.76e-03  0.700   0.2
    4    -323.5283686374640411    -1.99e-04  3.73e-04  5.74e-03  5.49e-03  0.000   0.2
                              *** Initializing SOSCF ***
---------------------------------------S-O-S-C-F--------------------------------------
Iteration    Energy (Eh)           Delta-E    RMSDP     MaxDP     MaxGrad    Time(sec)
--------------------------------------------------------------------------------------
    5    -323.5288348598136281    -4.66e-04  2.91e-05  7.01e-04  6.09e-04     0.2
               *** Restarting incremental Fock matrix formation ***
    6    -323.5288356656506039    -8.06e-07  4.06e-05  1.17e-03  2.66e-04     0.2
    7    -323.5288325397729068     3.13e-06  3.08e-05  8.90e-04  8.51e-04     0.2
    8    -323.5288361669523738    -3.63e-06  1.07e-05  2.12e-04  4.16e-05     0.2
    9    -323.5288360906914704     7.63e-08  6.49e-06  1.32e-04  6.36e-05     0.2
   10    -323.5288362242595213    -1.34e-07  1.36e-06  2.99e-05  6.13e-06     0.2
   11    -323.5288362225868468     1.67e-09  8.27e-07  2.01e-05  1.06e-05     0.2
                 **** Energy Check signals convergence ****

               *****************************************************
               *                     SUCCESS                       *
               *           SCF CONVERGED AFTER  11 CYCLES          *
               *****************************************************

             **** ENERGY FILE WAS UPDATED (3.en.tmp) ****

----------------
TOTAL SCF ENERGY
----------------

Total Energy       :       -323.52883622502259 Eh           -8803.66720 eV

Components:
Nuclear Repulsion  :        247.86277984159156 Eh            6744.68913 eV
Electronic Energy  :       -571.39161606661412 Eh          -15548.35634 eV
One Electron Energy:       -932.17459573964084 Eh          -25365.76032 eV
Two Electron Energy:        360.78297967302672 Eh            9817.40398 eV

Virial components:
Potential Energy   :       -645.17307747335940 Eh          -17556.05197 eV
Kinetic Energy     :        321.64424124833681 Eh            8752.38477 eV
Virial Ratio       :          2.00585925297270

DFT components:
N(Alpha)           :       24.000017270521 electrons
N(Beta)            :       24.000017270521 electrons
N(Total)           :       48.000034541042 electrons
E(X)               :      -40.709404990736 Eh       
E(C)               :       -2.114635696852 Eh       
E(XC)              :      -42.824040687589 Eh       

---------------
SCF CONVERGENCE
---------------

  Last Energy change         ...   -1.6727e-09  Tolerance :   1.0000e-08
  Last MAX-Density change    ...    2.0079e-05  Tolerance :   1.0000e-07
  Last RMS-Density change    ...    8.2743e-07  Tolerance :   5.0000e-09
  Last DIIS Error            ...    6.0949e-04  Tolerance :   5.0000e-07
  Last Orbital Gradient      ...    1.0568e-05  Tolerance :   1.0000e-05
  Last Orbital Rotation      ...    9.6059e-06  Tolerance :   1.0000e-05


Total SCF time: 0 days 0 hours 0 min 2 sec 
Finished LeanSCF after   2.5 sec

Maximum memory used throughout the entire LEANSCF-calculation: 12.9 MB



-------------------------------------------------------------------------------
                          DFT DISPERSION CORRECTION                            
-------------------------------------------------------------------------------
-------------------------   ----------------
Dispersion correction           -0.013143849
-------------------------   ----------------


-------------------------   --------------------
FINAL SINGLE POINT ENERGY      -323.541980074448
-------------------------   --------------------

------------------------------------------------------------------------------
                         ORCA SCF GRADIENT CALCULATION
------------------------------------------------------------------------------

Nuc. rep. gradient        (SHARK) ... done (  0.0 sec)
HCore & Overlap gradient  (SHARK) ... done (  0.0 sec)
Split-RIJ-J gradient      (SHARK) ... done (  0.2 sec)
XC gradient                       ... done (  1.1 sec)
Dispersion correction             ... done (  0.0 sec)

-------------------
DISPERSION GRADIENT
-------------------

   1   C   :   -0.000193394   -0.000091471    0.000366763
   2   O   :    0.000744614    0.000831802   -0.000207373
   3   O   :    0.000177961    0.000077303    0.000361354
   4   C   :   -0.000004056    0.000326029   -0.000945849
   5   H   :    0.000074262   -0.000182397    0.000394004
   6   C   :    0.000731754   -0.000071142    0.000802080
[...]
   7   2.0000      -0.926452       -25.2101 
   8   2.0000      -0.815808       -22.1993 
   9   2.0000      -0.679049       -18.4779 
  10   2.0000      -0.597098       -16.2479 
  11   2.0000      -0.535888       -14.5823 
  12   2.0000      -0.446213       -12.1421 
  13   2.0000      -0.441467       -12.0129 
  14   2.0000      -0.418069       -11.3762 
  15   2.0000      -0.390800       -10.6342 
  16   2.0000      -0.380903       -10.3649 
  17   2.0000      -0.356756        -9.7078 
  18   2.0000      -0.332224        -9.0403 
  19   2.0000      -0.321751        -8.7553 
  20   2.0000      -0.313435        -8.5290 
  21   2.0000      -0.272807        -7.4235 
  22   2.0000      -0.243146        -6.6163 
  23   2.0000      -0.193333        -5.2609 
  24   0.0000      -0.026762        -0.7282 
  25   0.0000       0.043327         1.1790 
  26   0.0000       0.079578         2.1654 
  27   0.0000       0.108089         2.9413 
  28   0.0000       0.114328         3.1110 
  29   0.0000       0.139455         3.7948 
  30   0.0000       0.151996         4.1360 
  31   0.0000       0.157296         4.2802 
  32   0.0000       0.168293         4.5795 
  33   0.0000       0.183467         4.9924 
  34   0.0000       0.218195         5.9374 
*Only the first 10 virtual orbitals were printed.

                    ********************************
                    * MULLIKEN POPULATION ANALYSIS *
                    ********************************

-----------------------
MULLIKEN ATOMIC CHARGES
-----------------------
   0 C :    0.499410
   1 O :   -0.419788
   2 O :   -0.473823
   3 C :   -0.043784
   4 H :    0.320056
   5 C :   -0.328702
   6 H :    0.115794
   7 N :   -0.555485
   8 H :    0.134433
   9 H :    0.127142
  10 H :    0.137318
  11 H :    0.246153
  12 H :    0.241277
Sum of atomic charges:   -0.0000000

--------------------------------
MULLIKEN REDUCED ORBITAL CHARGES
--------------------------------
  0 C s       :     3.016849  s :     3.016849
      pz      :     0.730519  p :     2.366529
      px      :     0.827449
      py      :     0.808561
      dz2     :     0.028913  d :     0.117212
      dxz     :     0.035097
      dyz     :     0.018579
      dx2y2   :     0.013868
      dxy     :     0.020756

  1 O s       :     3.868830  s :     3.868830
      pz      :     1.412565  p :     4.523584
      px      :     1.711227
      py      :     1.399792
      dz2     :     0.008478  d :     0.027375
      dxz     :     0.004897
      dyz     :     0.007414
      dx2y2   :     0.003713
      dxy     :     0.002873

  2 O s       :     3.839958  s :     3.839958
      pz      :     1.621175  p :     4.610936
      px      :     1.316479
      py      :     1.673282
      dz2     :     0.005649  d :     0.022929
      dxz     :     0.006033
      dyz     :     0.004189
      dx2y2   :     0.001645
      dxy     :     0.005413

  3 C s       :     3.215777  s :     3.215777
      pz      :     1.017934  p :     2.772148
      px      :     0.931839
      py      :     0.822375
      dz2     :     0.010364  d :     0.055858
      dxz     :     0.008535
      dyz     :     0.010329
      dx2y2   :     0.011137
      dxy     :     0.015493

  4 H s       :     0.642473  s :     0.642473
      pz      :     0.008811  p :     0.037471
      px      :     0.015577
      py      :     0.013083

  5 C s       :     3.267271  s :     3.267271
      pz      :     0.997836  p :     3.032909
      px      :     1.020058
      py      :     1.015015
      dz2     :     0.006138  d :     0.028522
      dxz     :     0.006017
      dyz     :     0.005170
      dx2y2   :     0.005797
      dxy     :     0.005401

  6 H s       :     0.872912  s :     0.872912
      pz      :     0.005539  p :     0.011294
      px      :     0.003153
      py      :     0.002603

  7 N s       :     3.613431  s :     3.613431
      pz      :     1.146795  p :     3.913037
      px      :     1.579769
      py      :     1.186472
      dz2     :     0.002695  d :     0.029016
      dxz     :     0.010201
      dyz     :     0.005148
      dx2y2   :     0.005706
      dxy     :     0.005266

  8 H s       :     0.854289  s :     0.854289
      pz      :     0.002513  p :     0.011278
      px      :     0.005411
      py      :     0.003355

  9 H s       :     0.861581  s :     0.861581
      pz      :     0.003048  p :     0.011277
      px      :     0.002536
      py      :     0.005694

 10 H s       :     0.851986  s :     0.851986
      pz      :     0.005736  p :     0.010696
      px      :     0.003221
      py      :     0.001738

 11 H s       :     0.730228  s :     0.730228
      pz      :     0.010260  p :     0.023619
      px      :     0.008446
      py      :     0.004913

 12 H s       :     0.735160  s :     0.735160
      pz      :     0.007068  p :     0.023563
      px      :     0.008723
      py      :     0.007772



                     *******************************
                     * LOEWDIN POPULATION ANALYSIS *
                     *******************************

----------------------
LOEWDIN ATOMIC CHARGES
----------------------
   0 C :    0.123910
   1 O :   -0.225334
   2 O :   -0.170280
   3 C :   -0.045379
   4 H :    0.183124
   5 C :   -0.191282
   6 H :    0.073464
   7 N :   -0.254349
   8 H :    0.083710
   9 H :    0.080813
  10 H :    0.086449
  11 H :    0.127815
  12 H :    0.127338

-------------------------------
LOEWDIN REDUCED ORBITAL CHARGES
-------------------------------
  0 C s       :     2.878069  s :     2.878069
      pz      :     0.901344  p :     2.721949
      px      :     0.929956
      py      :     0.890649
      dz2     :     0.066368  d :     0.276072
      dxz     :     0.085147
      dyz     :     0.046359
      dx2y2   :     0.029689
      dxy     :     0.048509

  1 O s       :     3.568426  s :     3.568426
      pz      :     1.470416  p :     4.600881
      px      :     1.694462
      py      :     1.436002
      dz2     :     0.014574  d :     0.056027
      dxz     :     0.009258
      dyz     :     0.019924
      dx2y2   :     0.006497
      dxy     :     0.005775

  2 O s       :     3.498823  s :     3.498823
      pz      :     1.632078  p :     4.623412
      px      :     1.334279
      py      :     1.657055
      dz2     :     0.009603  d :     0.048045
      dxz     :     0.015489
      dyz     :     0.005898
      dx2y2   :     0.005533
      dxy     :     0.011523

  3 C s       :     2.891703  s :     2.891703
      pz      :     1.055584  p :     3.028157
      px      :     1.022251
      py      :     0.950322
      dz2     :     0.021368  d :     0.125519
      dxz     :     0.019182
      dyz     :     0.023324
      dx2y2   :     0.024509
      dxy     :     0.037136

  4 H s       :     0.702490  s :     0.702490
      pz      :     0.025519  p :     0.114386
      px      :     0.048586
      py      :     0.040281

  5 C s       :     2.931609  s :     2.931609
      pz      :     1.061945  p :     3.199282
      px      :     1.066667
      py      :     1.070669
      dz2     :     0.012431  d :     0.060392
      dxz     :     0.013287
      dyz     :     0.011358
      dx2y2   :     0.011419
      dxy     :     0.011898

  6 H s       :     0.887980  s :     0.887980
      pz      :     0.021207  p :     0.038556
      px      :     0.010250
      py      :     0.007098

  7 N s       :     3.220238  s :     3.220238
      pz      :     1.175499  p :     3.976970
      px      :     1.569550
      py      :     1.231921
      dz2     :     0.007660  d :     0.057140
      dxz     :     0.016019
      dyz     :     0.013699
      dx2y2   :     0.010887
      dxy     :     0.008875

  8 H s       :     0.877132  s :     0.877132
      pz      :     0.007138  p :     0.039158
      px      :     0.021176
      py      :     0.010844

  9 H s       :     0.880292  s :     0.880292
      pz      :     0.009611  p :     0.038894
      px      :     0.007319
      py      :     0.021965

 10 H s       :     0.875282  s :     0.875282
      pz      :     0.021729  p :     0.038268
      px      :     0.011166
      py      :     0.005374

 11 H s       :     0.794527  s :     0.794527
      pz      :     0.036665  p :     0.077658
      px      :     0.027487
      py      :     0.013507

 12 H s       :     0.795628  s :     0.795628
      pz      :     0.022555  p :     0.077033
      px      :     0.030040
      py      :     0.024438



                      *****************************
                      * MAYER POPULATION ANALYSIS *
                      *****************************

  NA   - Mulliken gross atomic population
  ZA   - Total nuclear charge
  QA   - Mulliken gross atomic charge
  VA   - Mayer's total valence
  BVA  - Mayer's bonded valence
  FA   - Mayer's free valence

  ATOM       NA         ZA         QA         VA         BVA        FA
  0 C      5.5006     6.0000     0.4994     3.9100     3.9100    -0.0000
  1 O      8.4198     8.0000    -0.4198     2.0971     2.0971    -0.0000
  2 O      8.4738     8.0000    -0.4738     2.0315     2.0315     0.0000
  3 C      6.0438     6.0000    -0.0438     3.8789     3.8789    -0.0000
  4 H      0.6799     1.0000     0.3201     0.9176     0.9176     0.0000
  5 C      6.3287     6.0000    -0.3287     3.8637     3.8637    -0.0000
  6 H      0.8842     1.0000     0.1158     0.9581     0.9581    -0.0000
  7 N      7.5555     7.0000    -0.5555     2.8859     2.8859    -0.0000
  8 H      0.8656     1.0000     0.1344     0.9565     0.9565    -0.0000
  9 H      0.8729     1.0000     0.1271     0.9547     0.9547    -0.0000
 10 H      0.8627     1.0000     0.1373     0.9475     0.9475    -0.0000
 11 H      0.7538     1.0000     0.2462     0.9245     0.9245    -0.0000
 12 H      0.7587     1.0000     0.2413     0.9183     0.9183    -0.0000

  Mayer bond orders larger than 0.100000
B(  0-C ,  1-O ) :   1.8989 B(  0-C ,  2-O ) :   1.0672 B(  0-C ,  3-C ) :   0.9023 
B(  2-O ,  4-H ) :   0.8527 B(  3-C ,  5-C ) :   0.9902 B(  3-C ,  7-N ) :   1.0297 
B(  3-C , 10-H ) :   0.9342 B(  5-C ,  6-H ) :   0.9557 B(  5-C ,  8-H ) :   0.9514 
B(  5-C ,  9-H ) :   0.9540 B(  7-N , 11-H ) :   0.8998 B(  7-N , 12-H ) :   0.9093 


-------
TIMINGS
-------

Total SCF time: 0 days 0 hours 0 min 1 sec 

Total time                  ....       1.501 sec
Sum of individual times     ....       1.280 sec  ( 85.3%)

SCF preparation             ....       0.028 sec  (  1.9%)
Fock matrix formation       ....       1.231 sec  ( 82.0%)
  Startup                   ....       0.000 sec  (  0.0% of F)
  Split-RI-J                ....       0.345 sec  ( 28.0% of F)
  XC integration            ....       1.067 sec  ( 86.7% of F)
    Basis function eval.    ....       0.383 sec  ( 35.9% of XC)
    Density eval.           ....       0.206 sec  ( 19.3% of XC)
    XC-Functional eval.     ....       0.252 sec  ( 23.6% of XC)
    XC-Potential eval.      ....       0.197 sec  ( 18.5% of XC)
Diagonalization             ....       0.000 sec  (  0.0%)
Density matrix formation    ....       0.001 sec  (  0.1%)
Total Energy calculation    ....       0.000 sec  (  0.0%)
Population analysis         ....       0.013 sec  (  0.9%)
Orbital Transformation      ....       0.001 sec  (  0.1%)
Orbital Orthonormalization  ....       0.000 sec  (  0.0%)
DIIS solution               ....       0.001 sec  (  0.1%)
SOSCF solution              ....       0.004 sec  (  0.3%)
Finished LeanSCF after   1.5 sec

Maximum memory used throughout the entire LEANSCF-calculation: 13.7 MB



-------------------------------------------------------------------------------
                          DFT DISPERSION CORRECTION                            
-------------------------------------------------------------------------------
Active option DFTDOPT                   ...         2   
Final C6-coefficient scaling factor     ...     1.250
Final VDW-radii scaling factor          ...     1.100
Damping factor alpha                    ...    20.000
-------------------------   ----------------
Dispersion correction           -0.013308729
-------------------------   ----------------


-------------------------   --------------------
FINAL SINGLE POINT ENERGY      -323.543479493964
-------------------------   --------------------

                                *** OPTIMIZATION RUN DONE ***


------------------------------------------------------------------------------
                              ORCA PROPERTY CALCULATIONS
------------------------------------------------------------------------------

GBWName                                 ... 3.gbw
Number of atoms                         ...     13
Number of basis functions               ...    119
Max core memory                         ...   4096 MB

Electric properties:
Dipole moment                           ... YES
Quadrupole moment                       ...  NO
Static polarizability (Dipole/Dipole)   ...  NO
Static polarizability (Dipole/Quad.)    ...  NO
Static polarizability (Quad./Quad.)     ...  NO
Static polarizability (Velocity)        ...  NO
Static hyperpolarizability              ...  NO

Atomic electric properties:
Dipole moment                           ...  NO
Quadrupole moment                       ...  NO
Static polarizability                   ...  NO

Choice of electric origin               ... Center of mass
Position of electric origin             ...    -9.827160    -0.558563    -3.790551

General magnetic properties:
Magnetizability                         ...  NO

EPR properties:
g-Tensor (aka g-matrix)                 ...  NO
Zero-Field splitting spin-orbit         ...  NO
Zero-field splitting spin-spin          ...  NO
Hyperfine couplings                     ...  NO (   0 nuclei)
Quadrupole couplings                    ...  NO (   0 nuclei)
Contact density                         ...  NO (   0 nuclei)

NMR properties:
Chemical shifts                         ...  NO (   0 nuclei)
Spin-rotation constants                 ...  NO (   0 nuclei)
Spin-spin couplings                     ...  NO (   0 nuclei,    0 pairs)

Choice of magnetic origin               ... GIAO
Position of magnetic origin             ...     0.000000     0.000000     0.000000

Properties with geometric perturbations:
SCF Hessian                             ...  NO
IR spectrum                             ...  NO
VCD spectrum                            ...  NO
X-ray spectroscopy properties:
SCF XES/XAS/RIXS spectra                ...  NO

SCF SOC stabilization energy            ...  NO
Diagonal Born-Oppenheimer correction    ...  NO

-------------
DIPOLE MOMENT
-------------

Method             : SCF
Type of density    : Electron Density
Multiplicity       :   1
Irrep              :   0
Energy             :  -323.5301707649001628 Eh
Basis              : AO
                                X                 Y                 Z
Electronic contribution:      4.755198392       1.438458467       2.773978780
Nuclear contribution   :     -4.320858137      -1.591581456      -3.267107188
                        -----------------------------------------
Total Dipole Moment    :      0.434340255      -0.153122988      -0.493128408
                        -----------------------------------------
Magnitude (a.u.)       :      0.674739752
Magnitude (Debye)      :      1.715052153



--------------------
Rotational spectrum 
--------------------
 
Rotational constants in cm-1:             0.166239             0.095457             0.079642 
Rotational constants in MHz :          4983.734528          2861.735601          2387.612650 

Dipole components along the rotational axes: 
x,y,z [a.u.] :     0.042047     0.534320    -0.409888 
x,y,z [Debye]:     0.106876     1.358133    -1.041853 

 

Dipole moment calculation done in   0.0 sec 

Maximum memory used throughout the entire PROP-calculation: 7.9 MB

--------------------------------
SUGGESTED CITATIONS FOR THIS RUN
--------------------------------

Below you find a list of papers that are relevant to this ORCA run
We neither can nor want to force you to cite these papers, but we appreciate if you do
You receive ORCA, which is the product of decades of hard work by many enthusiastic individuals, for free
The only thing we kindly ask in return is that you cite our papers,
We deeply appreciate it, if you show your appreciation for ORCA by not just citing the generic ORCA reference.

Please note that relegating all ORCA citations to the supporting information does *not* help us.
SI sections are not indexed - citations you put there will not count into any citation statistics
But we need these citations in order to attract the funding resources that allow us to do what we are doing

Therefore, if you are a happy ORCA user, please consider citing a few of the papers listed below in the main body of your paper

In addition to the list printed below, the program has created the file 3.bibtex that contains the list in bibtex format
You can import this file easily into all common literature databanks and citation aid programs


List of essential papers. We consider these as the minimum necessary citations

  1. Neese, F.
     Software update: the ORCA program system, version 6.0
     WIRES Comput. Molec. Sci. 2025 15(1), e70019
     doi.org/10.1002/wcms.7019

List of papers to cite with high priority. The work reported in these papers was absolutely
necessary for this run to complete.
Our perspective: the developers of density functionals and basis sets usually get cited in chemistry papers
Good! But without the algorithms to do something with them, the functionals or basis sets would not do anything.
Hence, in our opinion, the algorithm design and method developments papers are equally worthy of getting cited

  1. Neese, F.
     An improvement of the resolution of the identity approximation for the formation of the Coulomb matrix
     J. Comp. Chem. 2003 24(14), 1740-1747
     doi.org/10.1002/jcc.10318
  2. Grimme, S.
     Semiempirical GGA-type density functional constructed with a long-range dispersion correction
     J.Comput.Chem. 2006 27(15), 1787-1799
     doi.org/10.1002/jcc.20495
  3. Neese, F.
     The SHARK Integral Generation and Digestion System
     J. Comp. Chem. 2022 44(3), 381
     doi.org/10.1002/jcc.26942

List of suggested additional citations. These are papers that are important in the 'surrounding' of 
of this run, or papers that preceded the highly important papers. If you like your results we are grateful for a citation.

  1. Neese, F.
     The ORCA program system
     WIRES Comput. Molec. Sci. 2012 2(1), 73-78
     doi.org/10.1002/wcms.81
  2. Neese, F.
     Software update: the ORCA program system, version 4.0
     WIRES Comput. Molec. Sci. 2018 8(1), 1-6
     doi.org/10.1002/wcms.1327
  3. Neese, F.; Wennmohs, F.; Becker, U.; Riplinger, C.
     The ORCA quantum chemistry program package
     J. Chem. Phys. 2020 152(22), 224108
     doi.org/10.1063/5.0004608
  4. Neese, F.
     Software update: The ORCA program system—Version 5.0
     WIRES Comput. Molec. Sci. 2022 12(1), e1606
     doi.org/10.1002/wcms.1606

List of optional additional citations

  1. Neese, F.
     Approximate second-order SCF convergence for spin unrestricted wavefunctions
     Chem. Phys. Lett. 2000 325(1-3), 93-98
     doi.org/10.1016/s0009-2614(00)00662-x

Timings for individual modules:

Sum of individual times          ...       83.898 sec (=   1.398 min)
Startup calculation              ...        5.154 sec (=   0.086 min)   6.1 %
SCF iterations                   ...       50.694 sec (=   0.845 min)  60.4 %
Property calculations            ...        0.035 sec (=   0.001 min)   0.0 %
SCF Gradient evaluation          ...       27.995 sec (=   0.467 min)  33.4 %
Geometry relaxation              ...        0.020 sec (=   0.000 min)   0.0 %
                             ****ORCA TERMINATED NORMALLY****
TOTAL RUN TIME: 0 days 0 hours 1 minutes 24 seconds 343 msec
