
                                 *****************
                                 * O   R   C   A *
                                 *****************

                                            #,                                       
                                            ###                                      
                                            ####                                     
                                            #####                                    
                                            ######                                   
                                           ########,                                 
                                     ,,################,,,,,                         
                               ,,#################################,,                 
                          ,,##########################################,,             
                       ,#########################################, ''#####,          
                    ,#############################################,,   '####,        
                  ,##################################################,,,,####,       
                ,###########''''           ''''###############################       
              ,#####''   ,,,,##########,,,,          '''####'''          '####       
            ,##' ,,,,###########################,,,                        '##       
           ' ,,###''''                  '''############,,,                           
         ,,##''                                '''############,,,,        ,,,,,,###''
      ,#''                                            '''#######################'''  
     '                                                          ''''####''''         
             ,#######,   #######,   ,#######,      ##                                
            ,#'     '#,  ##    ##  ,#'     '#,    #''#        ,####,    ,#,          
            ##       ##  ##   ,#'  ##            #'  '#       #'       ,# #          
            ##       ##  #######   ##           ,######,      #####,      #          
            '#,     ,#'  ##    ##  '#,     ,#' ,#      #,     #,   #      #          
             '#######'   ##     ##  '#######'  #'      '#     '####' #    #          



                #########################################################
                #                        -***-                          #
                #          Department of theory and spectroscopy        #
                #                                                       #
                #                      Frank Neese                      #
                #                                                       #
                #     Directorship, Architecture, Infrastructure        #
                #                    SHARK, DRIVERS                     #
                #        Core code/Algorithms in most modules           #
                #                                                       #
                #        Max Planck Institute fuer Kohlenforschung      #
                #                Kaiser Wilhelm Platz 1                 #
                #                 D-45470 Muelheim/Ruhr                 #
                #                      Germany                          #
                #                                                       #
                #                  All rights reserved                  #
                #                        -***-                          #
                #########################################################


                         Program Version 6.1.0  -  RELEASE   -
                                (GIT: $679e74b$)
                          ($2025-06-10 18:02:51 +0200$)


 With contributions from (in alphabetic order):
[Max-Planck-Institut fuer Kohlenforschung]                               
  Daniel Aravena         : Magnetic Suceptibility                        
  Michael Atanasov       : Ab Initio Ligand Field Theory (pilot matlab implementation)
  Alexander A. Auer      : GIAO ZORA, VPT2 properties, NMR spectrum      
  Ute Becker             : All parallelization in ORCA, NUMFREQ, NUMCALC 
  Giovanni Bistoni       : ED, misc. LED, open-shell LED, HFLD           
  Dmytro Bykov           : pre 5.0 version of the SCF Hessian            
  Marcos Casanova-Páez   : Triplet and SCS-CIS(D). UHF-(DLPNO)-IP/EA/STEOM-CCSD. UHF-CVS-IP/STEOM-CCSD   
  Vijay G. Chilkuri      : MRCI spin determinant printing, contributions to CSF-ICE 
  Pauline Colinet        : FMM embedding                                 
  Dipayan Datta          : RHF DLPNO-CCSD density                        
  Achintya Kumar Dutta   : EOM-CC, STEOM-CC                              
  Nicolas Foglia         : Exact transition moments, OPA infrastructure, MCD improvements    
  Dmitry Ganyushin       : Spin-Orbit,Spin-Spin,Magnetic field MRCI      
  Miquel Garcia-Rates    : C-PCM and meta-GGA Hessian, CCSD/C-PCM, Gaussian charge scheme 
  Tiago L. C. Gouveia    : GS-ROHF, GS-ROCIS                             
  Yang Guo               : DLPNO-NEVPT2, F12-NEVPT2, CIM, IAO-localization        
  Andreas Hansen         : Spin unrestricted coupled pair/coupled cluster methods 
  Ingolf Harden          : AUTO-CI MPn and infrastructure                
  Benjamin Helmich-Paris : MC-RPA, TRAH-(SCF,CASSCF), AVAS, COSX integrals, SCF dyn. polar., MC-PDFT, srDFT 
  Lee Huntington         : MR-EOM, pCC                                   
  Robert Izsak           : Overlap fitted RIJCOSX, COSX-SCS-MP3, EOM     
  Riya Kayal             : Wick's Theorem for AUTO-CI, AUTO-CI UHF-CCSDT 
  Emily Kempfer          : AUTO-CI RHF CISDT and CCSDT, approximate NEVPT4
  Christian Kollmar      : KDIIS, OOCD, Brueckner-CCSD(T), CCSD density, CASPT2, CASPT2-K, improved NEVPT2 
  Axel Koslowski         : Symmetry handling                             
  Simone Kossmann        : meta-GGA functionals, TD-DFT gradient, OOMP2, (MP2 Hessian; deprecated post 5.0) 
  Lucas Lang             : DCDCAS, Hyperfine gauge corrections, ICE-SOC+SSC
  Marvin Lechner         : AUTO-CI (C++ implementation), FIC-MRCC        
  Spencer Leger          : CASSCF response                               
  Dagmar Lenk            : GEPOL surface, SMD, ORCA-2-JSON               
  Dimitrios Liakos       : Extrapolation schemes; Compound Job, Property file
  Dimitrios Manganas     : Further ROCIS development; embedding schemes. LFT, Crystal Embedding 
  Dimitrios Pantazis     : SARC Basis sets                               
  Anastasios Papadopoulos: AUTO-CI, single reference methods and gradients 
  Taras Petrenko         : pre 6.0 DFT Hessian and TD-DFT gradient,  ECA, NRVS 
  Petra Pikulova         : Analytic Raman intensities                    
  Peter Pinski           : DLPNO-MP2, DLPNO-MP2 Gradient                 
  Shashank Vittal Rao    : ES-AILFT, MagRelax                            
  Christoph Reimann      : Effective Core Potentials                     
  Marius Retegan         : Local ZFS, SOC                                
  Christoph Riplinger    : Optimizer, TS searches, QM/MM, DLPNO-CCSD(T), (RO)-DLPNO pert. Triples 
  Michael Roemelt        : Original ROCIS implementation, recursive CI coupling coefficients
  Masaaki Saitow         : Open-shell DLPNO-CCSD energy and density      
  Barbara Sandhoefer     : DKH picture change effects                    
  Yorick L. A. Schmerwitz: GMF and freeze-and-release deltaSCF, NEB S-IDPP initial path                    
  Kantharuban Sivalingam : CASSCF convergence/infrastructure, NEVPT2, NEVPT3, NEVPT4(SD), FIC-MRCI and CEPA variants
  Bernardo de Souza      : ESD, SOC TD-DFT                               
  Georgi L. Stoychev     : AutoAux, RI-MP2 NMR, DLPNO-MP2 response, X2C  
  Van Anh Tran           : RI-MP2 g-tensors                              
  Willem Van den Heuvel  : Paramagnetic NMR                              
  Zikuan Wang            : NOTCH, Electric field optimization            
  Frank Wennmohs         : Technical directorship and infrastructure     
  Hang Xu                : AUTO-CI-Response properties                   
                                                                         
[FACCTs GmbH]                                                            
  Markus Bursch, Nicolas Foglia, Miquel Garcia-Rates, Ingolf Harden, Hagen Neugebauer, Anastasios Papadopoulos, 
  Christoph Riplinger, Bernardo de Souza, Georgi L. Stoychev                                                    
                                                                 
  APM, various basis sets, CI-OPT, improved COSX, DLPNO-Multilevel,           
  DOCKER, DRACO, updates on ESD, Fragmentator, GOAT, IRC, LR-CPCM, L-BFGS, MBIS, meta-GGA TD-DFT gradient, ML-optimized integration grids, 
  MM, NACMEs, nearIR, NEB, NEB-TS, NL-DFT gradient (VV10), 2- and 3-layer-ONIOM, interface openCOSMO-RS, QMMM,   
  Crystal-QMMM, RESP, rigid body optimization, SF, symmetry and pop. for TD-DFT, various functionals, SOLVATOR                                   
                                                                         
[Other institutions]                                                     
  V. Asgeirsson          : NEB                                           
  Christoph Bannwarth    : sTDA-DFT, sTD-DFT, PBEh-3c, B97-3c, D3        
  Giovanni Bistoni       : ETS/NOCV, ADLD/ADEX, COVALED                  
  Martin Brehm           : Molecular dynamics                            
  Ronald Cardenas        : ETS/NOCV                                      
  Martina Colucci        : COVALED                                       
  Sebastian Ehlert       : rSCAN, r2SCAN, r2SCAN-3c, D4, dhf basis sets  
  Marvin Friede          : D4 for Fr, Ra, Ac-Lr                          
  Lars Goerigk           : TD-DFT with DH, B97 family of functionals     
  Stefan Grimme          : VdW corrections, initial TS optimization, DFT functionals, gCP, sTDA/sTD-DF 
  Waldemar Hujo          : DFT-NL                                        
  H. Jonsson             : NEB                                           
  Holger Kruse           : gCP                                           
  Marcel Mueller         : wB97X-3c, vDZP basis set                      
  Hagen Neugebauer       : wr2SCAN, Native XTB                           
  Gianluca Regni         : ADLD/ADEX                                     
  Tobias Risthaus        : pre 6.0 range-separated hybrid DFT and stability analysis
  Lukas Wittmann         : regularized MP2, r2SCAN double-hybrids, wr2SCAN        
                                                                         
We gratefully acknowledge several colleagues who have allowed us to      
interface, adapt or use parts of their codes:                            
  Ed Valeev, F. Pavosevic, A. Kumar             : LibInt (2-el integral package), F12 methods 
  Garnet Chan, S. Sharma, J. Yang, R. Olivares  : DMRG                   
  Ulf Ekstrom                                   : XCFun DFT Library      
  Mihaly Kallay                                 : mrcc  (arbitrary order and MRCC methods)
  Frank Weinhold                                : gennbo (NPA and NBO analysis)           
  Simon Mueller                                 : openCOSMO-RS                            
  Christopher J. Cramer and Donald G. Truhlar   : smd solvation model                     
  S Lehtola, MJT Oliveira, MAL Marques          : LibXC Library                           
  Liviu Ungur et al                             : ANISO software                          


 Your calculation uses the libint2 library for the computation of 2-el integrals
 For citations please refer to: http://libint.valeyev.net

 Your ORCA version has been built with support for libXC version: 7.0.0
 For citations please refer to: https://libxc.gitlab.io

 This ORCA versions uses:
   CBLAS   interface :  Fast vector & matrix operations
   LAPACKE interface :  Fast linear algebra routines
   SCALAPACK package :  Parallel linear algebra routines
   Shared memory     :  Shared parallel matrices
   BLAS/LAPACK       :  OpenBLAS 0.3.29  USE64BITINT DYNAMIC_ARCH NO_AFFINITY Haswell SINGLE_THREADED
        Core in use  :  Haswell
   Copyright (c) 2011-2014, The OpenBLAS Project


  ***********************************
  * Starting time: Sat Aug 30 15:28:41 2025
  * Host name:     chemlab03
  * Process ID:    78711
  * Working dir.:  /home/vivek/mm-project/vivek/xtb-goat/B97-D-opt/e/3
  ***********************************



***************************************
The coordinates will be read from file: /home/vivek/mm-project/vivek/xtb-goat/xtb-goat/e/E_CONF/3.xyz
***************************************


Your calculation utilizes empirical dispersion correction


Warning: RI is on but no J-basis has been assigned. Assigning Def2/J (nothing to worry about!)
================================================================================

----- Orbital basis set information -----
Your calculation utilizes the basis: 6-31G**
   H-He, Li-Ne : W. J. Hehre, R. Ditchfield and J.A. Pople, J. Chem. Phys. 56, 2257 (1972).
                 Note: He and Ne are unpublished basis sets taken from the Gaussian program.
                 Note: Li and B from J. D. Dill and J. A. Pople, J. Chem. Phys. 62, 2921 (1975).
   Na - Ar     : M. M. Francl, W. J. Pietro, W. J. Hehre, J. S. Binkley, M. S. Gordon, 
                 D. J. DeFrees and J. A. Pople, J. Chem. Phys. 77, 3654 (1982).
   K - Zn      : V. A. Rassolov, J. A. Pople, M. A. Ratner, and T. L. Windus, J. Chem. Phys. 109, 1223 (1998).

----- AuxJ basis set information -----
Your calculation utilizes the auxiliary basis: def2/J
   H-Rn: F. Weigend, Phys. Chem. Chem. Phys. 8, 1057 (2006).
   Fr-Lr: K. Eichkorn, F. Weigend, O. Treutler, R. Ahlrichs; Theor. Chem. Acc. 97, 119 (1997).

================================================================================
                                        WARNINGS
                       Please study these warnings very carefully!
================================================================================


WARNING: Geometry Optimization
  ===> : Switching off AutoStart
         For restart on a previous wavefunction, please use MOREAD

INFO   : The exchange functional is Grimme's B97(-D)
         As described in S. Grimme, J. Comput. Chem. 27, 1787 (2006).
         Note that this functional defaults to a pure GGA. 

INFO   : The correlation functional is Grimme's B97(-D)
         As described in S. Grimme, J. Comput. Chem. 27, 1787 (2006).

================================================================================
                                       INPUT FILE
================================================================================
NAME = 3.inp
|  1> ! B97-D 6-31G** opt
|  2> 
|  3> * xyzfile 0 1 /home/vivek/mm-project/vivek/xtb-goat/xtb-goat/e/E_CONF/3.xyz
|  4> 
|  5>                          ****END OF INPUT****
================================================================================

                       *****************************
                       * Geometry Optimization Run *
                       *****************************

Geometry optimization settings:
Update method            Update   .... BFGS
Choice of coordinates    CoordSys .... (2022) Redundant Internals
Initial Hessian          InHess   .... Almloef's Model
Max. no of cycles        MaxIter  .... 57

Convergence Tolerances:
Energy Change            TolE     ....  5.0000e-06 Eh
Max. Gradient            TolMAXG  ....  3.0000e-04 Eh/bohr
RMS Gradient             TolRMSG  ....  1.0000e-04 Eh/bohr
Max. Displacement        TolMAXD  ....  4.0000e-03 bohr
RMS Displacement         TolRMSD  ....  2.0000e-03 bohr
Strict Convergence                .... False

------------------------------------------------------------------------------
                        ORCA OPTIMIZATION COORDINATE SETUP
------------------------------------------------------------------------------

The optimization will be done in redundant internal coordinates (2022)
Making redundant internal coordinates   ...  (2022 redundants) done
Evaluating the initial hessian          ...  (Almloef) done
Evaluating the coordinates              ...  done
Calculating the B-matrix                .... done
Calculating the G-matrix                .... done
The number of degrees of freedom        ....   78

    -----------------------------------------------------------------
                    Redundant Internal Coordinates


    -----------------------------------------------------------------
         Definition                    Initial Value    Approx d2E/dq
    -----------------------------------------------------------------
      1. B(C   1,C   0)                  1.5117         0.399559   
      2. B(O   4,C   0)                  1.3364         0.681294   
      3. B(C   5,C   1)                  1.5277         0.376733   
      4. B(H   6,C   1)                  1.0916         0.357926   
      5. B(H   7,C   1)                  1.0887         0.361861   
      6. B(C   8,C   5)                  1.5361         0.365337   
      7. B(H   9,C   5)                  1.0919         0.357549   
      8. B(H  10,C   5)                  1.0898         0.360375   
      9. B(C  11,C   8)                  1.5258         0.379383   
     10. B(O  12,C  11)                  1.2016         1.118194   
     11. B(N  13,C   8)                  1.4463         0.455038   
     12. B(N  13,H   3)                  1.0157         0.423751   
     13. B(N  13,H   2)                  1.0143         0.426001   
     14. B(H  14,O   4)                  0.9697         0.501768   
     15. B(O  15,C  11)                  1.3372         0.679283   
     16. B(H  16,C   8)                  1.0971         0.350797   
     17. B(O  17,C   0)                  1.2022         1.115614   
     18. B(H  18,O  15)                  0.9710         0.499304   
     19. A(O   4,C   0,O  17)          122.8197         0.485037   
     20. A(C   1,C   0,O  17)          125.0976         0.442891   
     21. A(C   1,C   0,O   4)          111.9772         0.405514   
     22. A(C   0,C   1,H   6)          107.6737         0.327600   
     23. A(C   0,C   1,H   7)          108.9250         0.328192   
     24. A(C   5,C   1,H   7)          111.2405         0.325028   
     25. A(H   6,C   1,H   7)          109.3503         0.290786   
     26. A(C   0,C   1,C   5)          110.3400         0.368090   
     27. A(C   5,C   1,H   6)          109.2360         0.324445   
     28. A(C   0,O   4,H  14)          110.2070         0.373874   
     29. A(C   8,C   5,H  10)          109.3053         0.323175   
     30. A(C   1,C   5,H  10)          110.3528         0.324808   
     31. A(C   8,C   5,H   9)          109.1877         0.322758   
     32. A(H   9,C   5,H  10)          109.1021         0.290550   
     33. A(C   1,C   5,H   9)          108.6694         0.324389   
     34. A(C   1,C   5,C   8)          110.1983         0.362491   
     35. A(C   5,C   8,C  11)          109.3213         0.362925   
     36. A(N  13,C   8,H  16)          108.4137         0.331597   
     37. A(C  11,C   8,H  16)          107.6405         0.323747   
     38. A(C   5,C   8,H  16)          108.8351         0.321751   
     39. A(C  11,C   8,N  13)          112.7853         0.374513   
     40. A(C   5,C   8,N  13)          109.7502         0.372085   
     41. A(C   8,C  11,O  12)          124.4735         0.438948   
     42. A(O  12,C  11,O  15)          123.0010         0.484979   
     43. A(C   8,C  11,O  15)          112.5251         0.401614   
     44. A(H   3,N  13,C   8)          109.9027         0.339246   
     45. A(H   2,N  13,C   8)          110.6836         0.339546   
     46. A(H   2,N  13,H   3)          107.4125         0.301493   
     47. A(C  11,O  15,H  18)          110.4882         0.373366   
     48. D(C   5,C   1,C   0,O  17)    -53.7066         0.011849   
     49. D(H   6,C   1,C   0,O  17)     65.4300         0.011849   
     50. D(H   6,C   1,C   0,O   4)   -110.9105         0.011849   
     51. D(H   7,C   1,C   0,O   4)      7.5712         0.011849   
     52. D(C   5,C   1,C   0,O   4)    129.9528         0.011849   
     53. D(H  14,O   4,C   0,O  17)      4.6986         0.034584   
     54. D(H  14,O   4,C   0,C   1)   -178.8640         0.034584   
     55. D(H   9,C   5,C   1,H   7)    173.4734         0.011322   
     56. D(H   9,C   5,C   1,H   6)    -65.7199         0.011322   
     57. D(H   9,C   5,C   1,C   0)     52.4628         0.011322   
     58. D(C   8,C   5,C   1,H   7)     53.8724         0.011322   
     59. D(C   8,C   5,C   1,H   6)    174.6790         0.011322   
     60. D(C   8,C   5,C   1,C   0)    -67.1382         0.011322   
     61. D(C  11,C   8,C   5,H   9)     61.3689         0.010687   
     62. D(C  11,C   8,C   5,C   1)   -179.3450         0.010687   
     63. D(N  13,C   8,C   5,H  10)    177.9015         0.010687   
     64. D(N  13,C   8,C   5,H   9)    -62.8204         0.010687   
     65. D(N  13,C   8,C   5,C   1)     56.4658         0.010687   
     66. D(C  11,C   8,C   5,H  10)    -57.9092         0.010687   
     67. D(O  15,C  11,C   8,N  13)   -173.8025         0.010742   
     68. D(O  15,C  11,C   8,C   5)     63.8077         0.010742   
     69. D(O  12,C  11,C   8,H  16)    125.5167         0.010742   
     70. D(O  12,C  11,C   8,N  13)      5.9724         0.010742   
     71. D(O  12,C  11,C   8,C   5)   -116.4174         0.010742   
     72. D(H   3,N  13,C   8,C  11)    -57.2563         0.017669   
     73. D(H   3,N  13,C   8,C   5)     64.8924         0.017669   
     74. D(H   2,N  13,C   8,H  16)    -57.8712         0.017669   
     75. D(H   2,N  13,C   8,C  11)     61.2250         0.017669   
     76. D(H   2,N  13,C   8,C   5)   -176.6262         0.017669   
     77. D(H  18,O  15,C  11,O  12)      0.7701         0.034362   
     78. D(H  18,O  15,C  11,C   8)   -179.4512         0.034362   
    -----------------------------------------------------------------

Number of atoms                         .... 19
Number of degrees of freedom            .... 78


         *************************************************************
         *                GEOMETRY OPTIMIZATION CYCLE   1            *
         *************************************************************
---------------------------------
CARTESIAN COORDINATES (ANGSTROEM)
---------------------------------
  C     -3.310775    0.271821   -0.336060
  C     -2.226538    0.743697   -1.277860
  H     -1.479252    1.542741    2.348828
  H     -1.602851   -0.000682    1.820180
  O     -4.194760    1.237391   -0.067164
  C     -0.848440    0.393989   -0.718896
  H     -2.368917    0.230588   -2.230826
  H     -2.330908    1.817047   -1.426975
  C     -0.570910    1.206557    0.554769
  H     -0.829335   -0.670578   -0.476709
  H     -0.075141    0.605752   -1.457010
  C      0.815200    0.854197    1.086377
  O      1.023789    0.330926    2.147710
  N     -1.618897    0.970480    1.523161
  H     -4.867158    0.913057    0.551699
  O      1.791235    1.196922    0.238964
  H     -0.568055    2.273795    0.300449
  O     -3.425237   -0.850500    0.079338
  H      2.657976    0.952124    0.601922

----------------------------
CARTESIAN COORDINATES (A.U.)
----------------------------
  NO LB      ZA    FRAG     MASS         X           Y           Z
   0 C     6.0000    0    12.011   -6.256459    0.513667   -0.635062
   1 C     6.0000    0    12.011   -4.207548    1.405384   -2.414805
   2 H     1.0000    0     1.008   -2.795382    2.915357    4.438641
   3 H     1.0000    0     1.008   -3.028949   -0.001289    3.439643
   4 O     8.0000    0    15.999   -7.926947    2.338330   -0.126922
   5 C     6.0000    0    12.011   -1.603318    0.744531   -1.358516
   6 H     1.0000    0     1.008   -4.476604    0.435748   -4.215650
   7 H     1.0000    0     1.008   -4.404777    3.433720   -2.696591
   8 C     6.0000    0    12.011   -1.078864    2.280062    1.048361
   9 H     1.0000    0     1.008   -1.567216   -1.267208   -0.900849
  10 H     1.0000    0     1.008   -0.141996    1.144706   -2.753350
  11 C     6.0000    0    12.011    1.540506    1.614198    2.052954
  12 O     8.0000    0    15.999    1.934680    0.625360    4.058584
  13 N     7.0000    0    14.007   -3.059273    1.833942    2.878357
  14 H     1.0000    0     1.008   -9.197596    1.725428    1.042560
  15 O     8.0000    0    15.999    3.384943    2.261854    0.451577
  16 H     1.0000    0     1.008   -1.073469    4.296849    0.567766
  17 O     8.0000    0    15.999   -6.472759   -1.607212    0.149928
  18 H     1.0000    0     1.008    5.022846    1.799253    1.137468

--------------------------------
INTERNAL COORDINATES (ANGSTROEM)
--------------------------------
 C      0   0   0     0.000000000000     0.00000000     0.00000000
 C      1   0   0     1.511695657746     0.00000000     0.00000000
 H      1   2   0     3.489747496481    89.38204493     0.00000000
 H      3   1   2     1.636122675867    50.81775855   259.55392996
 O      1   2   3     1.336435212018   111.97717769    85.37247751
 C      2   1   3     1.527708263980   110.33998531    44.58032420
 H      2   1   3     1.091648709212   107.67373301   163.71698317
 H      2   1   3     1.088672238450   108.92498833   282.19871029
 C      6   2   1     1.536069783497   110.19828595   292.86179203
 H      6   2   1     1.091935055881   108.66939951    52.46283677
 H      6   2   1     1.089791988510   110.35282057   172.05165547
 C      9   6   2     1.525800554702   109.32128384   180.65503322
 O     12   9   6     1.201561427037   124.47353898   243.58264317
 N      3   1   2     1.014252548111    25.30393951   304.49485989
 H      5   1   2     0.969692491465   110.20704877   181.13597700
 O     12   9   6     1.337240146198   112.52509207    63.80773648
 H      9   6   2     1.097125130241   108.83505060   297.97094781
 O      1   2   3     1.202190189639   125.09763740   261.71305378
 H     16  12   9     0.971032435023   110.48820961   180.54879511

---------------------------
INTERNAL COORDINATES (A.U.)
---------------------------
 C      0   0   0     0.000000000000     0.00000000     0.00000000
 C      1   0   0     2.856690790977     0.00000000     0.00000000
 H      1   2   0     6.594667044886    89.38204493     0.00000000
 H      3   1   2     3.091823778887    50.81775855   259.55392996
 O      1   2   3     2.525496546443   111.97717769    85.37247751
 C      2   1   3     2.886950231450   110.33998531    44.58032420
 H      2   1   3     2.062917094860   107.67373301   163.71698317
 H      2   1   3     2.057292380274   108.92498833   282.19871029
 C      6   2   1     2.902751213401   110.19828595   292.86179203
 H      6   2   1     2.063458211642   108.66939951    52.46283677
 H      6   2   1     2.059408401225   110.35282057   172.05165547
 C      9   6   2     2.883345183372   109.32128384   180.65503322
 O     12   9   6     2.270622030183   124.47353898   243.58264317
 N      3   1   2     1.916659546562    25.30393951   304.49485989
 H      5   1   2     1.832453242989   110.20704877   181.13597700
 O     12   9   6     2.527017651598   112.52509207    63.80773648
 H      9   6   2     2.073266030798   108.83505060   297.97094781
 O      1   2   3     2.271810219304   125.09763740   261.71305378
 H     16  12   9     1.834985369348   110.48820961   180.54879511

---------------------
BASIS SET INFORMATION
---------------------
There are 4 groups of distinct atoms

 Group   1 Type C   : 10s4p1d contracted to 3s2p1d pattern {631/31/1}
 Group   2 Type H   : 4s1p contracted to 2s1p pattern {31/1}
 Group   3 Type O   : 10s4p1d contracted to 3s2p1d pattern {631/31/1}
 Group   4 Type N   : 10s4p1d contracted to 3s2p1d pattern {631/31/1}

Atom   0C    basis set group =>   1
Atom   1C    basis set group =>   1
Atom   2H    basis set group =>   2
Atom   3H    basis set group =>   2
Atom   4O    basis set group =>   3
Atom   5C    basis set group =>   1
Atom   6H    basis set group =>   2
Atom   7H    basis set group =>   2
Atom   8C    basis set group =>   1
Atom   9H    basis set group =>   2
Atom  10H    basis set group =>   2
Atom  11C    basis set group =>   1
Atom  12O    basis set group =>   3
Atom  13N    basis set group =>   4
Atom  14H    basis set group =>   2
Atom  15O    basis set group =>   3
Atom  16H    basis set group =>   2
Atom  17O    basis set group =>   3
Atom  18H    basis set group =>   2
---------------------------------
AUXILIARY/J BASIS SET INFORMATION
---------------------------------
There are 4 groups of distinct atoms

 Group   1 Type C   : 12s5p4d2f1g contracted to 6s4p3d1f1g pattern {711111/2111/211/2/1}
 Group   2 Type H   : 5s2p1d contracted to 3s1p1d pattern {311/2/1}
 Group   3 Type O   : 12s5p4d2f1g contracted to 6s4p3d1f1g pattern {711111/2111/211/2/1}
 Group   4 Type N   : 12s5p4d2f1g contracted to 6s4p3d1f1g pattern {711111/2111/211/2/1}

Atom   0C    basis set group =>   1
Atom   1C    basis set group =>   1
Atom   2H    basis set group =>   2
Atom   3H    basis set group =>   2
Atom   4O    basis set group =>   3
Atom   5C    basis set group =>   1
Atom   6H    basis set group =>   2
Atom   7H    basis set group =>   2
Atom   8C    basis set group =>   1
Atom   9H    basis set group =>   2
Atom  10H    basis set group =>   2
Atom  11C    basis set group =>   1
Atom  12O    basis set group =>   3
Atom  13N    basis set group =>   4
Atom  14H    basis set group =>   2
Atom  15O    basis set group =>   3
Atom  16H    basis set group =>   2
Atom  17O    basis set group =>   3
Atom  18H    basis set group =>   2
------------------------------------------------------------------------------
                             ORCA STARTUP CALCULATIONS
                           -- RI-GTO INTEGRALS CHOSEN --
------------------------------------------------------------------------------
------------------------------------------------------------------------------
                   ___                                                        
                  /   \      - P O W E R E D   B Y -                         
                 /     \                                                     
                 |  |  |   _    _      __       _____    __    __             
                 |  |  |  | |  | |    /  \     |  _  \  |  |  /  |          
                  \  \/   | |  | |   /    \    | | | |  |  | /  /          
                 / \  \   | |__| |  /  /\  \   | |_| |  |  |/  /          
                |  |  |   |  __  | /  /__\  \  |    /   |      \           
                |  |  |   | |  | | |   __   |  |    \   |  |\   \          
                \     /   | |  | | |  |  |  |  | |\  \  |  | \   \       
                 \___/    |_|  |_| |__|  |__|  |_| \__\ |__|  \__/        
                                                                              
                      - O R C A' S   B I G   F R I E N D -                    
                                      &                                       
                       - I N T E G R A L  F E E D E R -                       
                                                                              
 v1 FN, 2020, v2 2021, v3 2022-2024                                           
------------------------------------------------------------------------------


----------------------
SHARK INTEGRAL PACKAGE
----------------------

Number of atoms                             ...     19
Number of basis functions                   ...    185
Number of shells                            ...     87
Maximum angular momentum                    ...      2
Integral batch strategy                     ... SHARK/LIBINT Hybrid
RI-J (if used) integral strategy            ... SPLIT-RIJ (Revised 2003 algorithm where possible)
Printlevel                                  ...      1
Contraction scheme used                     ... SEGMENTED contraction
Prescreening option                         ... SCHWARTZ
   Thresh                                   ... 2.500e-11
   Tcut                                     ... 2.500e-12
   Tpresel                                  ... 2.500e-12 
Coulomb Range Separation                    ... NOT USED
Exchange Range Separation                   ... NOT USED
Multipole approximations                    ... NOT USED
Finite Nucleus Model                        ... NOT USED
CABS basis                                  ... NOT available
Auxiliary Coulomb fitting basis             ... AVAILABLE
   # of basis functions in Aux-J            ...    589
   # of shells in Aux-J                     ...    195
   Maximum angular momentum in Aux-J        ...      4
Auxiliary J/K fitting basis                 ... NOT available
Auxiliary Correlation fitting basis         ... NOT available
Auxiliary 'external' fitting basis          ... NOT available

Checking pre-screening integrals            ... done (  0.0 sec) Dimension = 87
   => SHARK Basis and OBASIS are compatible. Storing Pre-screening
Shell pair information
Shell pair cut-off parameter TPreSel        ...   2.5e-12
Total number of shell pairs                 ...      3828
Shell pairs after pre-screening             ...      3419
Total number of primitive shell pairs       ...     19347
Primitive shell pairs kept                  ...     11226
          la=0 lb=0:   1041 shell pairs
          la=1 lb=0:   1242 shell pairs
          la=1 lb=1:    399 shell pairs
          la=2 lb=0:    424 shell pairs
          la=2 lb=1:    265 shell pairs
          la=2 lb=2:     48 shell pairs

Checking whether 4 symmetric matrices of dimension 185 fit in memory
:Max Core in MB      =   4096.00
 MB in use           =      8.07
 MB left             =   4087.93
 MB needed           =      0.53
 Data fit in memory  = YES
Calculating RI/J V-Matrix + Cholesky decomp.... done (  0.0 sec)
Calculating Nuclear repulsion               ... done (  0.0 sec) ENN=    563.011994518693 Eh

Diagonalization of the overlap matrix:
Smallest eigenvalue                        ... 2.837e-03
Time for diagonalization                   ...    0.002 sec
Threshold for overlap eigenvalues          ... 1.000e-07
Number of eigenvalues below threshold      ... 0
Time for construction of square roots      ...    0.001 sec
Total time needed                          ...    0.003 sec

-------------------
DFT GRID GENERATION
-------------------

General Integration Accuracy     IntAcc      ... 4.388
Radial Grid Type                 RadialGrid  ... OptM3 with GC (2021)
Angular Grid (max. ang.)         AngularGrid ... 4 (Lebedev-302)
Angular grid pruning method      GridPruning ... 4 (adaptive)
Weight generation scheme         WeightScheme... mBecke (2022)
Basis function cutoff            BFCut       ... 1.0000e-11
Integration weight cutoff        WCut        ... 1.0000e-14
Partially contracted basis set               ... off
Rotationally invariant grid construction     ... off
Angular grids for H and He will be reduced by one unit

Total number of grid points                  ...    89143
Total number of batches                      ...     1403
Average number of points per batch           ...       63
Average number of grid points per atom       ...     4692
Grids setup in   0.4 sec
Initializing property integral containers    ... done (  0.0 sec)

SHARK setup successfully completed in   0.4 seconds

Maximum memory used throughout the entire STARTUP-calculation: 37.6 MB
-------------------------------------------------------------------------------
                                 ORCA GUESS
                   Start orbitals & Density for SCF / CASSCF
-------------------------------------------------------------------------------

------------
SCF SETTINGS
------------
Hamiltonian:
 Density Functional     Method          .... DFT(GTOs)
 Exchange Functional    Exchange        .... B97(D)
 Correlation Functional Correlation     .... B97(D)
 Gradients option       PostSCFGGA      .... off
 RI-approximation to the Coulomb term is turned on
   Number of AuxJ basis functions       .... 589


General Settings:
 Integral files         IntName         .... 3
 Hartree-Fock type      HFTyp           .... RHF
 Total Charge           Charge          ....    0
 Multiplicity           Mult            ....    1
 Number of Electrons    NEL             ....   78
 Basis Dimension        Dim             ....  185
 Nuclear Repulsion      ENuc            ....    563.0119945187 Eh

Convergence Acceleration:
 AO-DIIS                CNVDIIS         .... on
   Start iteration      DIISMaxIt       ....    12
   Startup error        DIISStart       ....  0.200000
   # of expansion vecs  DIISMaxEq       ....     5
   Bias factor          DIISBfac        ....   1.050
   Max. coefficient     DIISMaxC        ....  10.000
 MO-DIIS                CNVKDIIS        .... off
 Trust-Rad. Augm. Hess. CNVTRAH         .... auto
   Auto Start mean grad. ratio tolernc. ....  1.125000
   Auto Start start iteration           ....    50
   Auto Start num. interpolation iter.  ....    10
   Max. Number of Micro iterations      ....    24
   Max. Number of Macro iterations      .... Maxiter - #DIIS iter
   Number of Davidson start vectors     ....     2
   Converg. threshold    (grad. norm)   ....   1.000e-05
   Grad. Scal. Fac. for Micro threshold ....   0.100
   Minimum threshold for Micro iter.    ....   1.000e-02
   NR start threshold (gradient norm)   ....   1.000e-04
   Initial trust radius                 ....   0.400
   Minimum AH scaling param. (alpha)    ....   1.000
   Maximum AH scaling param. (alpha)    .... 1000.000
   Quad. conv. algorithm                .... NR
   White noise on init. David. guess    .... on
   Maximum white noise                  ....   0.010
   Pseudo random numbers                .... off
   Inactive MOs                         .... canonical
   Orbital update algorithm             .... Taylor
   Preconditioner                       .... Diag
   Full preconditioner red. dimension   ....   250
 SOSCF                 CNVSOSCF           .... on
   Start iteration     SOSCFMaxIt         ....   150
   Startup grad/error  SOSCFStart         ....  0.003300
   Hessian update      SOSCFHessUp        .... L-BFGS
   Autom. constraints  SOSCFAutoConstrain .... off
 Level Shifting         CNVShift        .... on
   Level shift para.    LevelShift      ....    0.2500
   Turn off err/grad.   ShiftErr        ....    0.0010
 Zerner damping         CNVZerner       .... off
 Static damping         CNVDamp         .... on
   Fraction old density DampFac         ....    0.7000
   Max. Damping (<1)    DampMax         ....    0.9800
   Min. Damping (>=0)   DampMin         ....    0.0000
   Turn off err/grad.   DampErr         ....    0.1000

SCF Procedure:
 Maximum # iterations   MaxIter         ....   125
 SCF integral mode      SCFMode         .... Direct
   Integral package                     .... SHARK and LIBINT hybrid scheme
 Reset frequency        DirectResetFreq ....    20
 Integral Threshold     Thresh          ....  2.500e-11 Eh
 Primitive CutOff       TCut            ....  2.500e-12 Eh

Convergence Tolerance:
 Convergence Check Mode ConvCheckMode   .... Total+1el-Energy
 Convergence forced     ConvForced      .... 0
 Energy Change          TolE            ....  1.000e-08 Eh
 1-El. energy change                    ....  1.000e-05 Eh
 Orbital Gradient       TolG            ....  1.000e-05
 Orbital Rotation angle TolX            ....  1.000e-05
 DIIS Error             TolErr          ....  5.000e-07

------------------------------
INITIAL GUESS: MODEL POTENTIAL
------------------------------
Loading Hartree-Fock densities                     ... done
Calculating cut-offs                               ... done
Initializing the effective Hamiltonian             ... done
Setting up the integral package (SHARK)            ... done
Starting the Coulomb interaction                   ... done (   0.1 sec)
Making the grid                                    ... done (   0.1 sec)
Mapping shells                                     ... done
Starting the XC term evaluation                    ... done (   0.1 sec)
  promolecular density results
     # of electrons  =     77.997350942
     EX              =    -66.735036070
     EC              =     -3.508559043
     EX+EC           =    -70.243595112
Transforming the Hamiltonian                       ... done (   0.0 sec)
Diagonalizing the Hamiltonian                      ... done (   0.0 sec)
Back transforming the eigenvectors                 ... done (   0.0 sec)
Now organizing SCF variables                       ... done
                      ------------------
                      INITIAL GUESS DONE (   0.3 sec)
                      ------------------
             **** ENERGY FILE WAS UPDATED (3.en.tmp) ****
Finished Guess after   0.3 sec
Maximum memory used throughout the entire GUESS-calculation: 13.3 MB

-------------------------------------------------------------------------------------------
                                      ORCA LEAN-SCF
                              memory conserving SCF solver
-------------------------------------------------------------------------------------------

----------------------------------------D-I-I-S--------------------------------------------
Iteration    Energy (Eh)           Delta-E    RMSDP     MaxDP     DIISErr   Damp  Time(sec)
-------------------------------------------------------------------------------------------
               ***  Starting incremental Fock matrix formation  ***
    1    -550.8652859951702112     0.00e+00  4.08e-03  1.06e-01  2.62e-01  0.700   0.5
    2    -551.0651903151959914    -2.00e-01  2.46e-03  5.46e-02  9.46e-02  0.700   0.5
                               ***Turning on AO-DIIS***
    3    -551.1228125201577086    -5.76e-02  8.87e-04  1.49e-02  3.13e-02  0.700   0.5
    4    -551.1622872784613492    -3.95e-02  1.16e-03  1.97e-02  1.41e-02  0.000   0.5
    5    -551.2551164345801453    -9.28e-02  4.19e-04  8.20e-03  1.16e-02  0.000   0.5
    6    -551.2560397333824085    -9.23e-04  1.50e-04  2.69e-03  3.34e-03  0.000   0.5
                              *** Initializing SOSCF ***
---------------------------------------S-O-S-C-F--------------------------------------
Iteration    Energy (Eh)           Delta-E    RMSDP     MaxDP     MaxGrad    Time(sec)
--------------------------------------------------------------------------------------
    7    -551.2561124630125278    -7.27e-05  5.56e-05  9.82e-04  1.39e-03     0.5
               *** Restarting incremental Fock matrix formation ***
    8    -551.2561229690446680    -1.05e-05  3.60e-05  6.69e-04  1.18e-04     0.5
    9    -551.2561230829645638    -1.14e-07  1.79e-05  5.12e-04  3.49e-04     0.4
   10    -551.2561237320588816    -6.49e-07  1.80e-05  3.98e-04  2.37e-04     0.4
   11    -551.2561238533068035    -1.21e-07  7.70e-06  1.74e-04  7.84e-05     0.4
   12    -551.2561240621452043    -2.09e-07  6.53e-06  1.28e-04  2.59e-05     0.4
   13    -551.2561240760959436    -1.40e-08  2.37e-06  6.05e-05  2.24e-05     0.4
   14    -551.2561241001104690    -2.40e-08  1.84e-06  3.22e-05  9.65e-06     0.4
   15    -551.2561241046581699    -4.55e-09  8.42e-07  3.09e-05  1.84e-05     0.4
                 **** Energy Check signals convergence ****

               *****************************************************
               *                     SUCCESS                       *
               *           SCF CONVERGED AFTER  15 CYCLES          *
               *****************************************************

             **** ENERGY FILE WAS UPDATED (3.en.tmp) ****

----------------
TOTAL SCF ENERGY
----------------

Total Energy       :       -551.25612410077144 Eh          -15000.44174 eV

Components:
Nuclear Repulsion  :        563.01199451869309 Eh           15320.33524 eV
Electronic Energy  :      -1114.26811861946453 Eh          -30320.77699 eV
One Electron Energy:      -1871.45685288662503 Eh          -50924.92994 eV
Two Electron Energy:        757.18873426716050 Eh           20604.15295 eV

Virial components:
Potential Energy   :      -1099.77559768309220 Eh          -29926.41544 eV
Kinetic Energy     :        548.51947358232064 Eh           14925.97370 eV
Virial Ratio       :          2.00498915836220

DFT components:
N(Alpha)           :       38.999990698634 electrons
N(Beta)            :       38.999990698634 electrons
N(Total)           :       77.999981397267 electrons
E(X)               :      -68.104117280622 Eh       
E(C)               :       -3.497496239865 Eh       
E(XC)              :      -71.601613520487 Eh       

---------------
SCF CONVERGENCE
---------------

  Last Energy change         ...    4.5477e-09  Tolerance :   1.0000e-08
  Last MAX-Density change    ...    3.0945e-05  Tolerance :   1.0000e-07
  Last RMS-Density change    ...    8.4196e-07  Tolerance :   5.0000e-09
  Last DIIS Error            ...    1.3868e-03  Tolerance :   5.0000e-07
  Last Orbital Gradient      ...    1.8439e-05  Tolerance :   1.0000e-05
  Last Orbital Rotation      ...    2.8577e-05  Tolerance :   1.0000e-05


----------------
ORBITAL ENERGIES
----------------

  NO   OCC          E(Eh)            E(eV) 
   0   2.0000     -18.817975      -512.0631 
   1   2.0000     -18.795437      -511.4498 
   2   2.0000     -18.757313      -510.4124 
   3   2.0000     -18.733896      -509.7752 
   4   2.0000     -13.992122      -380.7450 
   5   2.0000     -10.031089      -272.9598 
   6   2.0000     -10.020097      -272.6607 
   7   2.0000      -9.953723      -270.8546 
   8   2.0000      -9.918771      -269.9035 
   9   2.0000      -9.915486      -269.8141 
  10   2.0000      -1.024685       -27.8831 
  11   2.0000      -1.003938       -27.3185 
  12   2.0000      -0.936042       -25.4710 
  13   2.0000      -0.914807       -24.8932 
  14   2.0000      -0.823592       -22.4111 
  15   2.0000      -0.721448       -19.6316 
  16   2.0000      -0.660034       -17.9604 
  17   2.0000      -0.595896       -16.2152 
  18   2.0000      -0.548414       -14.9231 
  19   2.0000      -0.522734       -14.2243 
  20   2.0000      -0.465089       -12.6557 
  21   2.0000      -0.456360       -12.4182 
  22   2.0000      -0.429198       -11.6791 
  23   2.0000      -0.422139       -11.4870 
  24   2.0000      -0.401453       -10.9241 
  25   2.0000      -0.399340       -10.8666 
  26   2.0000      -0.394299       -10.7294 
  27   2.0000      -0.380647       -10.3579 
  28   2.0000      -0.351691        -9.5700 
  29   2.0000      -0.347548        -9.4572 
  30   2.0000      -0.336224        -9.1491 
  31   2.0000      -0.319684        -8.6990 
  32   2.0000      -0.308729        -8.4010 
  33   2.0000      -0.302730        -8.2377 
  34   2.0000      -0.277591        -7.5536 
  35   2.0000      -0.254472        -6.9245 
  36   2.0000      -0.227870        -6.2007 
  37   2.0000      -0.210567        -5.7298 
  38   2.0000      -0.200283        -5.4500 
  39   0.0000      -0.020363        -0.5541 
  40   0.0000       0.002252         0.0613 
  41   0.0000       0.048383         1.3166 
  42   0.0000       0.063319         1.7230 
  43   0.0000       0.075999         2.0680 
  44   0.0000       0.099117         2.6971 
  45   0.0000       0.108975         2.9654 
  46   0.0000       0.137085         3.7303 
  47   0.0000       0.145236         3.9521 
  48   0.0000       0.151305         4.1172 
  49   0.0000       0.155467         4.2305 
*Only the first 10 virtual orbitals were printed.

                    ********************************
                    * MULLIKEN POPULATION ANALYSIS *
                    ********************************

-----------------------
MULLIKEN ATOMIC CHARGES
-----------------------
   0 C :    0.549500
   1 C :   -0.252606
   2 H :    0.248168
   3 H :    0.263036
   4 O :   -0.457655
   5 C :   -0.208568
   6 H :    0.136446
   7 H :    0.124712
   8 C :   -0.041397
   9 H :    0.131457
  10 H :    0.127168
  11 C :    0.486244
  12 O :   -0.411412
  13 N :   -0.560332
  14 H :    0.311085
  15 O :   -0.454527
  16 H :    0.130369
  17 O :   -0.441524
  18 H :    0.319837
Sum of atomic charges:   -0.0000000

--------------------------------
MULLIKEN REDUCED ORBITAL CHARGES
--------------------------------
  0 C s       :     2.970862  s :     2.970862
      pz      :     0.808926  p :     2.352389
      px      :     0.808809
      py      :     0.734655
      dz2     :     0.015125  d :     0.127249
      dxz     :     0.011532
      dyz     :     0.028652
      dx2y2   :     0.028391
      dxy     :     0.043549

  1 C s       :     3.239074  s :     3.239074
      pz      :     1.004415  p :     2.978983
      px      :     0.940327
      py      :     1.034240
      dz2     :     0.006354  d :     0.034549
      dxz     :     0.008210
      dyz     :     0.005513
      dx2y2   :     0.009523
      dxy     :     0.004949

  2 H s       :     0.727832  s :     0.727832
      pz      :     0.009497  p :     0.024000
      px      :     0.007157
      py      :     0.007346

  3 H s       :     0.713237  s :     0.713237
      pz      :     0.005276  p :     0.023727
      px      :     0.006995
      py      :     0.011456

  4 O s       :     3.823554  s :     3.823554
      pz      :     1.598269  p :     4.611176
      px      :     1.398826
      py      :     1.614081
      dz2     :     0.002036  d :     0.022924
      dxz     :     0.004034
      dyz     :     0.005150
      dx2y2   :     0.004617
      dxy     :     0.007087

  5 C s       :     3.237066  s :     3.237066
      pz      :     0.949646  p :     2.935309
      px      :     0.966566
      py      :     1.019098
      dz2     :     0.006055  d :     0.036193
      dxz     :     0.010122
      dyz     :     0.005757
      dx2y2   :     0.010719
      dxy     :     0.003540

  6 H s       :     0.851690  s :     0.851690
      pz      :     0.005735  p :     0.011865
      px      :     0.002693
      py      :     0.003437

  7 H s       :     0.863765  s :     0.863765
      pz      :     0.002500  p :     0.011524
      px      :     0.002421
      py      :     0.006603

  8 C s       :     3.193502  s :     3.193502
      pz      :     0.902323  p :     2.790396
      px      :     0.853383
      py      :     1.034690
      dz2     :     0.012945  d :     0.057499
      dxz     :     0.013841
      dyz     :     0.008053
      dx2y2   :     0.017226
      dxy     :     0.005433

  9 H s       :     0.856976  s :     0.856976
      pz      :     0.002577  p :     0.011567
      px      :     0.002477
      py      :     0.006513

 10 H s       :     0.861273  s :     0.861273
      pz      :     0.004188  p :     0.011559
      px      :     0.004709
      py      :     0.002663

 11 C s       :     2.984900  s :     2.984900
      pz      :     0.768186  p :     2.404223
      px      :     0.849727
      py      :     0.786309
      dz2     :     0.029394  d :     0.124633
      dxz     :     0.044602
      dyz     :     0.020503
      dx2y2   :     0.013059
      dxy     :     0.017075

 12 O s       :     3.855222  s :     3.855222
      pz      :     1.380473  p :     4.527934
      px      :     1.747143
      py      :     1.400318
      dz2     :     0.009776  d :     0.028255
      dxz     :     0.006115
      dyz     :     0.008363
      dx2y2   :     0.002321
      dxy     :     0.001680

 13 N s       :     3.590624  s :     3.590624
      pz      :     1.191270  p :     3.941546
      px      :     1.556792
      py      :     1.193483
      dz2     :     0.005041  d :     0.028162
      dxz     :     0.005865
      dyz     :     0.007385
      dx2y2   :     0.007166
      dxy     :     0.002705

 14 H s       :     0.650954  s :     0.650954
      pz      :     0.014364  p :     0.037961
      px      :     0.014461
      py      :     0.009135

 15 O s       :     3.824596  s :     3.824596
      pz      :     1.636854  p :     4.607252
      px      :     1.228092
      py      :     1.742306
      dz2     :     0.004914  d :     0.022679
      dxz     :     0.007516
      dyz     :     0.004264
      dx2y2   :     0.002990
      dxy     :     0.002995

 16 H s       :     0.858623  s :     0.858623
      pz      :     0.002402  p :     0.011007
      px      :     0.002148
      py      :     0.006457

 17 O s       :     3.857257  s :     3.857257
      pz      :     1.506049  p :     4.556394
      px      :     1.661433
      py      :     1.388912
      dz2     :     0.004076  d :     0.027874
      dxz     :     0.001104
      dyz     :     0.008571
      dx2y2   :     0.006786
      dxy     :     0.007337

 18 H s       :     0.642243  s :     0.642243
      pz      :     0.009709  p :     0.037920
      px      :     0.018368
      py      :     0.009843



                     *******************************
                     * LOEWDIN POPULATION ANALYSIS *
                     *******************************

----------------------
LOEWDIN ATOMIC CHARGES
----------------------
   0 C :    0.120956
   1 C :   -0.142397
   2 H :    0.129876
   3 H :    0.135333
   4 O :   -0.138501
   5 C :   -0.112552
   6 H :    0.092608
   7 H :    0.080872
   8 C :   -0.050613
   9 H :    0.080595
  10 H :    0.079838
  11 C :    0.100557
  12 O :   -0.216919
  13 N :   -0.222381
  14 H :    0.177879
  15 O :   -0.140348
  16 H :    0.084574
  17 O :   -0.242337
  18 H :    0.182960

-------------------------------
LOEWDIN REDUCED ORBITAL CHARGES
-------------------------------
  0 C s       :     2.847061  s :     2.847061
      pz      :     0.869503  p :     2.729850
      px      :     0.890856
      py      :     0.969490
      dz2     :     0.034920  d :     0.302133
      dxz     :     0.025739
      dyz     :     0.066767
      dx2y2   :     0.067974
      dxy     :     0.106734

  1 C s       :     2.905924  s :     2.905924
      pz      :     1.055935  p :     3.158719
      px      :     1.025027
      py      :     1.077756
      dz2     :     0.013191  d :     0.077755
      dxz     :     0.020466
      dyz     :     0.011418
      dx2y2   :     0.021942
      dxy     :     0.010737

  2 H s       :     0.790936  s :     0.790936
      pz      :     0.034571  p :     0.079188
      px      :     0.021802
      py      :     0.022815

  3 H s       :     0.784669  s :     0.784669
      pz      :     0.015701  p :     0.079998
      px      :     0.020967
      py      :     0.043330

  4 O s       :     3.470275  s :     3.470275
      pz      :     1.582464  p :     4.617536
      px      :     1.406500
      py      :     1.628572
      dz2     :     0.004852  d :     0.050690
      dxz     :     0.011101
      dyz     :     0.008019
      dx2y2   :     0.009742
      dxy     :     0.016976

  5 C s       :     2.902005  s :     2.902005
      pz      :     1.026298  p :     3.129724
      px      :     1.030153
      py      :     1.073274
      dz2     :     0.013765  d :     0.080823
      dxz     :     0.022403
      dyz     :     0.013883
      dx2y2   :     0.023319
      dxy     :     0.007453

  6 H s       :     0.867163  s :     0.867163
      pz      :     0.021232  p :     0.040229
      px      :     0.007902
      py      :     0.011095

  7 H s       :     0.878159  s :     0.878159
      pz      :     0.007439  p :     0.040970
      px      :     0.007304
      py      :     0.026227

  8 C s       :     2.880848  s :     2.880848
      pz      :     0.995811  p :     3.038299
      px      :     0.976912
      py      :     1.065577
      dz2     :     0.028955  d :     0.131466
      dxz     :     0.033073
      dyz     :     0.018324
      dx2y2   :     0.039742
      dxy     :     0.011372

  9 H s       :     0.878531  s :     0.878531
      pz      :     0.007881  p :     0.040875
      px      :     0.006981
      py      :     0.026013

 10 H s       :     0.879715  s :     0.879715
      pz      :     0.015710  p :     0.040446
      px      :     0.016819
      py      :     0.007917

 11 C s       :     2.857232  s :     2.857232
      pz      :     0.954647  p :     2.743741
      px      :     0.958922
      py      :     0.830172
      dz2     :     0.069992  d :     0.298470
      dxz     :     0.111235
      dyz     :     0.049099
      dx2y2   :     0.028933
      dxy     :     0.039211

 12 O s       :     3.553815  s :     3.553815
      pz      :     1.460014  p :     4.604734
      px      :     1.735008
      py      :     1.409712
      dz2     :     0.020363  d :     0.058370
      dxz     :     0.012900
      dyz     :     0.018131
      dx2y2   :     0.003573
      dxy     :     0.003403

 13 N s       :     3.190830  s :     3.190830
      pz      :     1.222655  p :     3.974021
      px      :     1.547972
      py      :     1.203395
      dz2     :     0.010398  d :     0.057530
      dxz     :     0.012740
      dyz     :     0.015720
      dx2y2   :     0.014190
      dxy     :     0.004482

 14 H s       :     0.706456  s :     0.706456
      pz      :     0.043816  p :     0.115664
      px      :     0.044174
      py      :     0.027674

 15 O s       :     3.469835  s :     3.469835
      pz      :     1.647120  p :     4.619601
      px      :     1.258015
      py      :     1.714466
      dz2     :     0.008802  d :     0.050912
      dxz     :     0.018410
      dyz     :     0.006060
      dx2y2   :     0.010479
      dxy     :     0.007161

 16 H s       :     0.876113  s :     0.876113
      pz      :     0.007969  p :     0.039313
      px      :     0.006176
      py      :     0.025168

 17 O s       :     3.551003  s :     3.551003
      pz      :     1.509847  p :     4.633881
      px      :     1.643885
      py      :     1.480149
      dz2     :     0.007347  d :     0.057453
      dxz     :     0.002048
      dyz     :     0.017292
      dx2y2   :     0.017839
      dxy     :     0.012928

 18 H s       :     0.701331  s :     0.701331
      pz      :     0.029584  p :     0.115709
      px      :     0.057534
      py      :     0.028591



                      *****************************
                      * MAYER POPULATION ANALYSIS *
                      *****************************

  NA   - Mulliken gross atomic population
  ZA   - Total nuclear charge
  QA   - Mulliken gross atomic charge
  VA   - Mayer's total valence
  BVA  - Mayer's bonded valence
  FA   - Mayer's free valence

  ATOM       NA         ZA         QA         VA         BVA        FA
  0 C      5.4505     6.0000     0.5495     4.0019     4.0019     0.0000
  1 C      6.2526     6.0000    -0.2526     3.8424     3.8424    -0.0000
  2 H      0.7518     1.0000     0.2482     0.9230     0.9230    -0.0000
  3 H      0.7370     1.0000     0.2630     0.9233     0.9233     0.0000
  4 O      8.4577     8.0000    -0.4577     2.0517     2.0517    -0.0000
  5 C      6.2086     6.0000    -0.2086     3.8765     3.8765    -0.0000
  6 H      0.8636     1.0000     0.1364     0.9501     0.9501    -0.0000
  7 H      0.8753     1.0000     0.1247     0.9559     0.9559     0.0000
  8 C      6.0414     6.0000    -0.0414     3.8679     3.8679    -0.0000
  9 H      0.8685     1.0000     0.1315     0.9593     0.9593     0.0000
 10 H      0.8728     1.0000     0.1272     0.9555     0.9555     0.0000
 11 C      5.5138     6.0000     0.4862     3.9621     3.9621     0.0000
 12 O      8.4114     8.0000    -0.4114     2.1250     2.1250    -0.0000
 13 N      7.5603     7.0000    -0.5603     2.9460     2.9460     0.0000
 14 H      0.6889     1.0000     0.3111     0.9230     0.9230    -0.0000
 15 O      8.4545     8.0000    -0.4545     2.0291     2.0291     0.0000
 16 H      0.8696     1.0000     0.1304     0.9483     0.9483    -0.0000
 17 O      8.4415     8.0000    -0.4415     2.0819     2.0819     0.0000
 18 H      0.6802     1.0000     0.3198     0.9162     0.9162     0.0000

  Mayer bond orders larger than 0.100000
B(  0-C ,  1-C ) :   0.9508 B(  0-C ,  4-O ) :   1.0969 B(  0-C , 17-O ) :   1.8884 
B(  1-C ,  5-C ) :   0.9935 B(  1-C ,  6-H ) :   0.9348 B(  1-C ,  7-H ) :   0.9361 
B(  2-H , 13-N ) :   0.9051 B(  3-H , 13-N ) :   0.8894 B(  4-O , 14-H ) :   0.8582 
B(  5-C ,  8-C ) :   0.9800 B(  5-C ,  9-H ) :   0.9330 B(  5-C , 10-H ) :   0.9404 
B(  8-C , 11-C ) :   0.8956 B(  8-C , 13-N ) :   1.0550 B(  8-C , 16-H ) :   0.9215 
B( 11-C , 12-O ) :   1.9424 B( 11-C , 15-O ) :   1.0784 B( 15-O , 18-H ) :   0.8504 


-------
TIMINGS
-------

Total SCF time: 0 days 0 hours 0 min 7 sec 

Total time                  ....       7.384 sec
Sum of individual times     ....       6.933 sec  ( 93.9%)

SCF preparation             ....       0.028 sec  (  0.4%)
Fock matrix formation       ....       6.842 sec  ( 92.7%)
  Startup                   ....       0.001 sec  (  0.0% of F)
  Split-RI-J                ....       2.421 sec  ( 35.4% of F)
  XC integration            ....       4.799 sec  ( 70.1% of F)
    XC Preparation          ....       0.000 sec  (  0.0% of XC)
    Basis function eval.    ....       1.711 sec  ( 35.7% of XC)
    Density eval.           ....       1.053 sec  ( 21.9% of XC)
    XC-Functional eval.     ....       0.872 sec  ( 18.2% of XC)
    XC-Potential eval.      ....       1.038 sec  ( 21.6% of XC)
Diagonalization             ....       0.000 sec  (  0.0%)
Density matrix formation    ....       0.005 sec  (  0.1%)
Total Energy calculation    ....       0.001 sec  (  0.0%)
Population analysis         ....       0.002 sec  (  0.0%)
Orbital Transformation      ....       0.006 sec  (  0.1%)
Orbital Orthonormalization  ....       0.000 sec  (  0.0%)
DIIS solution               ....       0.029 sec  (  0.4%)
SOSCF solution              ....       0.019 sec  (  0.3%)
Finished LeanSCF after   7.4 sec

Maximum memory used throughout the entire LEANSCF-calculation: 20.4 MB



-------------------------------------------------------------------------------
                          DFT DISPERSION CORRECTION                            
-------------------------------------------------------------------------------
Active option DFTDOPT                   ...         2   
Final C6-coefficient scaling factor     ...     1.250
Final VDW-radii scaling factor          ...     1.100
Damping factor alpha                    ...    20.000
-------------------------   ----------------
Dispersion correction           -0.026622644
-------------------------   ----------------


-------------------------   --------------------
FINAL SINGLE POINT ENERGY      -551.282746744444
-------------------------   --------------------

------------------------------------------------------------------------------
                         ORCA SCF GRADIENT CALCULATION
------------------------------------------------------------------------------

Nuc. rep. gradient        (SHARK) ... done (  0.0 sec)
HCore & Overlap gradient  (SHARK) ... done (  0.1 sec)
Split-RIJ-J gradient      (SHARK) ... done (  0.6 sec)
XC gradient                       ... done (  2.4 sec)
Dispersion correction             ... done (  0.0 sec)

-------------------
DISPERSION GRADIENT
-------------------

   1   C   :    0.000212774    0.000560127   -0.000515414
   2   C   :    0.000360056   -0.000612137    0.000432845
   3   H   :   -0.000589010   -0.000054481    0.000684058
   4   H   :   -0.000120746    0.000203126    0.001480872
   5   O   :   -0.000495760   -0.000002877   -0.000388525
   6   C   :   -0.000584097    0.000853162   -0.000344623
   7   H   :   -0.000233766    0.000649154   -0.000021953
   8   H   :   -0.000869130   -0.000839607   -0.000591993
   9   C   :    0.000545199   -0.000798031    0.000047592
  10   H   :    0.000745699    0.000126015   -0.001070451
  11   H   :   -0.000340089   -0.000689159   -0.000135236
  12   C   :    0.000410011    0.000518694    0.000081742
  13   O   :    0.000914601    0.000212899   -0.000255488
  14   N   :    0.000724238    0.000177364   -0.000473070
  15   H   :   -0.000041054   -0.000390161   -0.000043608
  16   O   :    0.000526619   -0.000055039    0.000401420
  17   H   :    0.000394427    0.000238453    0.000402351
  18   O   :   -0.001482921    0.000034186   -0.000068199
  19   H   :   -0.000077051   -0.000131688    0.000377678

Difference to translation invariance:
           :   -0.0000000000    0.0000000000    0.0000000000

Difference to rotation invariance:
           :    0.0000000000    0.0000000000    0.0000000000

Norm of the Dispersion gradient    ...    0.0041268736
RMS gradient                       ...    0.0005466178
MAX gradient                       ...    0.0014829211

------------------
CARTESIAN GRADIENT
------------------

   1   C   :    0.000528082   -0.009437571    0.006821342
   2   C   :    0.000400972    0.000264755   -0.000751128
   3   H   :   -0.002008484   -0.001048541   -0.003052562
   4   H   :   -0.000990153    0.002614495   -0.001456960
   5   O   :    0.013365264   -0.026735507    0.004192295
   6   C   :    0.001913275   -0.004529624    0.001749293
   7   H   :    0.001534554    0.001832510    0.005351947
   8   H   :   -0.001492896   -0.006147097    0.003309814
   9   C   :   -0.002488193    0.001883285   -0.001211873
  10   H   :   -0.001061147    0.005702686   -0.000666805
  11   H   :   -0.003936640    0.000319551    0.003276444
  12   C   :    0.006139801   -0.005891629    0.004610463
  13   O   :   -0.004501396    0.015273071   -0.029167256
  14   N   :    0.004355512   -0.004360614   -0.002761874
  15   H   :   -0.000650849    0.006889373   -0.001816077
  16   O   :   -0.011054932   -0.011279671    0.024558785
  17   H   :   -0.000061112   -0.003226881    0.002050918
  18   O   :    0.000084862    0.035053719   -0.009396140
  19   H   :   -0.000076519    0.002823690   -0.005640628

Difference to translation invariance:
           :    0.0000000000    0.0000000000   -0.0000000000

Difference to rotation invariance:
           :    0.0003900679   -0.0000679857    0.0002299114

Norm of the Cartesian gradient     ...    0.0691015694
RMS gradient                       ...    0.0091527265
MAX gradient                       ...    0.0350537185

-------
TIMINGS
-------

Total SCF gradient time     ....        3.147 sec

Densities                   ....       0.000 sec  (  0.0%)
One electron gradient       ....       0.116 sec  (  3.7%)
RI-J Coulomb gradient       ....       0.620 sec  ( 19.7%)
XC gradient                 ....       2.410 sec  ( 76.6%)

Maximum memory used throughout the entire SCFGRAD-calculation: 26.3 MB
------------------------------------------------------------------------------
                         ORCA GEOMETRY RELAXATION STEP
------------------------------------------------------------------------------

Reading the OPT-File                    .... done
Getting information on internals        .... done
Copying old internal coords+grads       .... done
Making the new internal coordinates     .... (2022 redundants) done
Validating the new internal coordinates .... (2022 redundants) done
Calculating the B-matrix                .... done
Calculating the G,G- and P matrices     .... done
Transforming gradient to internals      .... done
Projecting the internal gradient        .... done
Number of atoms                         ....  19
Number of internal coordinates          ....  78
Current Energy                          ....  -551.282746744 Eh
Current gradient norm                   ....     0.069101569 Eh/bohr
Maximum allowed component of the step   ....  0.300
Current trust radius                    ....  0.300
Evaluating the initial hessian          ....  (Almloef) done
Projecting the Hessian                  .... done
Forming the augmented Hessian           .... done
Diagonalizing the augmented Hessian     .... done
Last element of RFO vector              ....  0.946735597
Lowest eigenvalues of augmented Hessian:
 -0.014190217  0.010729577  0.010771662  0.011729691  0.012911216
Length of the computed step             ....  0.340128724
Warning: the length of the step is outside the trust region - taking restricted step instead
The input lambda is                     ....     0.009687
   iter:   5  x=    0.000065  g=  209.390158 f(x)=     0.768519
   iter:  10  x=   -0.019493  g=    3.849983 f(x)=     0.001429
The output lambda is                    ....    -0.019499 (13 iterations)
The final length of the internal step   ....  0.300000000
Converting the step to Cartesian space:
 Initial RMS(Int)=    0.0339683110
Transforming coordinates:
 Iter   0:  RMS(Cart)=    0.2098677675 RMS(Int)=    1.0001365977
 Iter   5:  RMS(Cart)=    0.0000028358 RMS(Int)=    0.0000016424
done
Storing new coordinates                 .... done

                                .--------------------.
          ----------------------|Geometry convergence|-------------------------
          Item                value                   Tolerance       Converged
          ---------------------------------------------------------------------
          RMS gradient        0.0088699838            0.0001000000      NO
          MAX gradient        0.0359801036            0.0003000000      NO
          RMS step            0.0339683110            0.0020000000      NO
          MAX step            0.1202380522            0.0040000000      NO
          -------------------------------------------------------------------------
          ........................................................
          Max(Bonds)      0.0198      Max(Angles)    4.33
          Max(Dihed)        6.89      Max(Improp)    0.00
          ---------------------------------------------------------------------

The optimization has not yet converged - more geometry cycles are needed


    ---------------------------------------------------------------------------
                         Redundant Internal Coordinates
                            (Angstroem and degrees)

        Definition                    Value    dE/dq     Step     New-Value
    ----------------------------------------------------------------------------
     1. B(C   1,C   0)                1.5117 -0.011482  0.0145    1.5262   
     2. B(O   4,C   0)                1.3364 -0.022261  0.0168    1.3532   
     3. B(C   5,C   1)                1.5277 -0.014850  0.0198    1.5475   
     4. B(H   6,C   1)                1.0916 -0.005731  0.0080    1.0997   
     5. B(H   7,C   1)                1.0887 -0.006377  0.0088    1.0975   
     6. B(C   8,C   5)                1.5361 -0.013638  0.0188    1.5548   
     7. B(H   9,C   5)                1.0919 -0.005720  0.0080    1.1000   
     8. B(H  10,C   5)                1.0898 -0.004954  0.0069    1.0967   
     9. B(C  11,C   8)                1.5258 -0.010801  0.0143    1.5401   
    10. B(O  12,C  11)                1.2016 -0.033197  0.0154    1.2170   
    11. B(N  13,C   8)                1.4463 -0.005403  0.0060    1.4523   
    12. B(N  13,H   3)                1.0157 -0.002950  0.0035    1.0192   
    13. B(N  13,H   2)                1.0143 -0.003349  0.0040    1.0182   
    14. B(H  14,O   4)                0.9697 -0.003016  0.0031    0.9728   
    15. B(O  15,C  11)                1.3372 -0.022280  0.0169    1.3541   
    16. B(H  16,C   8)                1.0971 -0.003613  0.0052    1.1023   
    17. B(O  17,C   0)                1.2022 -0.035980  0.0168    1.2190   
    18. B(H  18,O  15)                0.9710 -0.002887  0.0029    0.9740   
    19. A(O   4,C   0,O  17)          122.82 -0.005691    0.60    123.42   
    20. A(C   1,C   0,O  17)          125.10  0.004832   -0.65    124.45   
    21. A(C   1,C   0,O   4)          111.98  0.001088   -0.20    111.78   
    22. A(C   0,C   1,H   6)          107.67  0.008223   -1.77    105.91   
    23. A(C   0,C   1,H   7)          108.92  0.000068    1.03    109.95   
    24. A(C   5,C   1,H   7)          111.24  0.003851   -0.09    111.15   
    25. A(H   6,C   1,H   7)          109.35  0.000160   -0.95    108.40   
    26. A(C   0,C   1,C   5)          110.34 -0.016503    2.92    113.26   
    27. A(C   5,C   1,H   6)          109.24  0.004435   -1.23    108.01   
    28. A(C   0,O   4,H  14)          110.21  0.011895   -1.73    108.47   
    29. A(C   8,C   5,H  10)          109.31  0.004040   -1.20    108.11   
    30. A(C   1,C   5,H  10)          110.35  0.008622   -1.43    108.92   
    31. A(C   8,C   5,H   9)          109.19  0.004401    0.06    109.25   
    32. A(H   9,C   5,H  10)          109.10  0.001457   -1.45    107.65   
    33. A(C   1,C   5,H   9)          108.67  0.006506   -0.34    108.33   
    34. A(C   1,C   5,C   8)          110.20 -0.024818    4.33    114.53   
    35. A(C   5,C   8,C  11)          109.32  0.002190   -0.11    109.21   
    36. A(N  13,C   8,H  16)          108.41  0.000393   -0.35    108.06   
    37. A(C  11,C   8,H  16)          107.64  0.000131   -0.44    107.20   
    38. A(C   5,C   8,H  16)          108.84  0.002379   -0.71    108.13   
    39. A(C  11,C   8,N  13)          112.79  0.003468   -0.41    112.37   
    40. A(C   5,C   8,N  13)          109.75 -0.008367    1.94    111.69   
    41. A(C   8,C  11,O  12)          124.47 -0.001071    0.17    124.64   
    42. A(O  12,C  11,O  15)          123.00 -0.003854    0.47    123.47   
    43. A(C   8,C  11,O  15)          112.53  0.004924   -0.63    111.89   
    44. A(H   3,N  13,C   8)          109.90  0.000912   -0.28    109.62   
    45. A(H   2,N  13,C   8)          110.68  0.001806   -0.42    110.26   
    46. A(H   2,N  13,H   3)          107.41  0.000502   -0.39    107.03   
    47. A(C  11,O  15,H  18)          110.49  0.010289   -1.50    108.99   
    48. D(C   5,C   1,C   0,O  17)    -53.71 -0.000408    0.36    -53.35   
    49. D(H   6,C   1,C   0,O  17)     65.43  0.000478   -0.52     64.91   
    50. D(H   6,C   1,C   0,O   4)   -110.91 -0.003251    3.76   -107.15   
    51. D(H   7,C   1,C   0,O   4)      7.57  0.001607    2.20      9.77   
    52. D(C   5,C   1,C   0,O   4)    129.95 -0.004137    4.64    134.59   
    53. D(H  14,O   4,C   0,O  17)      4.70 -0.001765    1.82      6.52   
    54. D(H  14,O   4,C   0,C   1)   -178.86  0.002305   -2.40   -181.26   
    55. D(H   9,C   5,C   1,H   7)    173.47 -0.005165   -1.22    172.25   
    56. D(H   9,C   5,C   1,H   6)    -65.72  0.000422   -3.27    -68.99   
    57. D(H   9,C   5,C   1,C   0)     52.46  0.003345   -4.44     48.03   
    58. D(C   8,C   5,C   1,H   7)     53.87  0.000289   -3.67     50.20   
    59. D(C   8,C   5,C   1,H   6)    174.68  0.005875   -5.72    168.96   
    60. D(C   8,C   5,C   1,C   0)    -67.14  0.008799   -6.89    -74.03   
    61. D(C  11,C   8,C   5,H   9)     61.37  0.002863    0.63     62.00   
    62. D(C  11,C   8,C   5,C   1)   -179.34 -0.001472    2.87   -176.47   
    63. D(N  13,C   8,C   5,H  10)    177.90 -0.004176    2.36    180.26   
    64. D(N  13,C   8,C   5,H   9)    -62.82  0.002626   -0.08    -62.90   
    65. D(N  13,C   8,C   5,C   1)     56.47 -0.001709    2.16     58.63   
    66. D(C  11,C   8,C   5,H  10)    -57.91 -0.003939    3.07    -54.84   
    67. D(O  15,C  11,C   8,N  13)   -173.80 -0.003477    1.38   -172.42   
    68. D(O  15,C  11,C   8,C   5)     63.81  0.003302   -0.75     63.06   
    69. D(O  12,C  11,C   8,H  16)    125.52 -0.001008    0.96    126.47   
    70. D(O  12,C  11,C   8,N  13)      5.97 -0.003676    1.93      7.90   
    71. D(O  12,C  11,C   8,C   5)   -116.42  0.003103   -0.19   -116.61   
    72. D(H   3,N  13,C   8,C  11)    -57.26 -0.000349   -0.34    -57.59   
    73. D(H   3,N  13,C   8,C   5)     64.89 -0.001190    0.64     65.53   
    74. D(H   2,N  13,C   8,H  16)    -57.87 -0.000602   -0.22    -58.09   
    75. D(H   2,N  13,C   8,C  11)     61.23  0.001955   -1.25     59.98   
    76. D(H   2,N  13,C   8,C   5)   -176.63  0.001115   -0.27   -176.90   
    77. D(H  18,O  15,C  11,O  12)      0.77  0.000068   -0.24      0.53   
    78. D(H  18,O  15,C  11,C   8)   -179.45 -0.000121    0.30   -179.15   
    ----------------------------------------------------------------------------

Geometry step timings:
Preparation and reading OPT file:      0.000 s ( 0.839 %)
Internal coordinates            :      0.000 s ( 0.769 %)
B/P matrices and projection     :      0.000 s (31.936 %)
Hessian update/contruction      :      0.000 s ( 8.665 %)
Making the step                 :      0.001 s (41.999 %)
Converting the step to Cartesian:      0.000 s ( 3.284 %)
Storing new data                :      0.000 s ( 1.118 %)
Checking convergence            :      0.000 s ( 0.978 %)
Final printing                  :      0.000 s (10.412 %)
Total time                      :      0.001 s

Time for energy+gradient        :     11.322 s
Time for complete geometry iter :     11.337 s

         *************************************************************
         *                GEOMETRY OPTIMIZATION CYCLE   2            *
         *************************************************************
---------------------------------
CARTESIAN COORDINATES (ANGSTROEM)
---------------------------------
  C     -3.440554    0.232606   -0.428114
  C     -2.266617    0.770617   -1.241556
  H     -1.257464    1.635602    2.495977
  H     -1.483310    0.086315    2.014363
  O     -4.405664    1.166760   -0.263220
  C     -0.888588    0.415491   -0.633441
  H     -2.337397    0.289817   -2.228027
  H     -2.371122    1.854798   -1.376398
  C     -0.515374    1.230231    0.637144
  H     -0.885489   -0.657005   -0.389185
  H     -0.111793    0.586654   -1.388442
  C      0.906886    0.845866    1.085964
  O      1.177292    0.311949    2.145637
  N     -1.495092    1.054023    1.694670
  H     -5.136279    0.769413    0.241327
  O      1.834641    1.166762    0.153271
  H     -0.494047    2.298344    0.365631
  O     -3.572223   -0.933126   -0.097046
  H      2.713219    0.894207    0.473343

----------------------------
CARTESIAN COORDINATES (A.U.)
----------------------------
  NO LB      ZA    FRAG     MASS         X           Y           Z
   0 C     6.0000    0    12.011   -6.501705    0.439561   -0.809017
   1 C     6.0000    0    12.011   -4.283286    1.456255   -2.346201
   2 H     1.0000    0     1.008   -2.376262    3.090840    4.716714
   3 H     1.0000    0     1.008   -2.803050    0.163112    3.806594
   4 O     8.0000    0    15.999   -8.325498    2.204857   -0.497414
   5 C     6.0000    0    12.011   -1.679188    0.785165   -1.197030
   6 H     1.0000    0     1.008   -4.417039    0.547674   -4.210362
   7 H     1.0000    0     1.008   -4.480771    3.505060   -2.601015
   8 C     6.0000    0    12.011   -0.973917    2.324799    1.204027
   9 H     1.0000    0     1.008   -1.673332   -1.241559   -0.735454
  10 H     1.0000    0     1.008   -0.211258    1.108615   -2.623776
  11 C     6.0000    0    12.011    1.713766    1.598456    2.052174
  12 O     8.0000    0    15.999    2.224760    0.589497    4.054666
  13 N     7.0000    0    14.007   -2.825314    1.991815    3.202463
  14 H     1.0000    0     1.008   -9.706162    1.453981    0.456042
  15 O     8.0000    0    15.999    3.466969    2.204860    0.289639
  16 H     1.0000    0     1.008   -0.933614    4.343241    0.690943
  17 O     8.0000    0    15.999   -6.750523   -1.763352   -0.183390
  18 H     1.0000    0     1.008    5.127240    1.689806    0.894489

--------------------------------
INTERNAL COORDINATES (ANGSTROEM)
--------------------------------
 C      0   0   0     0.000000000000     0.00000000     0.00000000
 C      1   0   0     1.526195457444     0.00000000     0.00000000
 H      1   2   0     3.909550958008    80.94503012     0.00000000
 H      3   1   2     1.638062579256    50.48296156   256.13066095
[...]
      px      :     0.858714
      py      :     1.027752
      dz2     :     0.012304  d :     0.056075
      dxz     :     0.013392
      dyz     :     0.008439
      dx2y2   :     0.014694
      dxy     :     0.007247

  9 H s       :     0.855035  s :     0.855035
      pz      :     0.002583  p :     0.011556
      px      :     0.002478
      py      :     0.006494

 10 H s       :     0.862825  s :     0.862825
      pz      :     0.004354  p :     0.011396
      px      :     0.004457
      py      :     0.002585

 11 C s       :     3.009090  s :     3.009090
      pz      :     0.748983  p :     2.383440
      px      :     0.845611
      py      :     0.788846
      dz2     :     0.028913  d :     0.117308
      dxz     :     0.042235
      dyz     :     0.019855
      dx2y2   :     0.011360
      dxy     :     0.014944

 12 O s       :     3.869947  s :     3.869947
      pz      :     1.381391  p :     4.520751
      px      :     1.737362
      py      :     1.401998
      dz2     :     0.009385  d :     0.027505
      dxz     :     0.006116
      dyz     :     0.008234
      dx2y2   :     0.002206
      dxy     :     0.001564

 13 N s       :     3.604995  s :     3.604995
      pz      :     1.144227  p :     3.928729
      px      :     1.511470
      py      :     1.273032
      dz2     :     0.005185  d :     0.028474
      dxz     :     0.008183
      dyz     :     0.004900
      dx2y2   :     0.007930
      dxy     :     0.002276

 14 H s       :     0.644259  s :     0.644259
      pz      :     0.012520  p :     0.037466
      px      :     0.013286
      py      :     0.011659

 15 O s       :     3.842227  s :     3.842227
      pz      :     1.609308  p :     4.598856
      px      :     1.254103
      py      :     1.735444
      dz2     :     0.005118  d :     0.022973
      dxz     :     0.008022
      dyz     :     0.004448
      dx2y2   :     0.002176
      dxy     :     0.003210

 16 H s       :     0.859695  s :     0.859695
      pz      :     0.002437  p :     0.010840
      px      :     0.002172
      py      :     0.006231

 17 O s       :     3.876109  s :     3.876109
      pz      :     1.425532  p :     4.535119
      px      :     1.741301
      py      :     1.368286
      dz2     :     0.005639  d :     0.027092
      dxz     :     0.001990
      dyz     :     0.007726
      dx2y2   :     0.006288
      dxy     :     0.005450

 18 H s       :     0.642036  s :     0.642036
      pz      :     0.009910  p :     0.037447
      px      :     0.016937
      py      :     0.010601



                     *******************************
                     * LOEWDIN POPULATION ANALYSIS *
                     *******************************

----------------------
LOEWDIN ATOMIC CHARGES
----------------------
   0 C :    0.148912
   1 C :   -0.146443
   2 H :    0.131183
   3 H :    0.135403
   4 O :   -0.153803
   5 C :   -0.117396
   6 H :    0.096563
   7 H :    0.090839
   8 C :   -0.048351
   9 H :    0.082355
  10 H :    0.081402
  11 C :    0.123742
  12 O :   -0.224765
  13 N :   -0.247176
  14 H :    0.183370
  15 O :   -0.161469
  16 H :    0.083196
  17 O :   -0.241375
  18 H :    0.183813

-------------------------------
LOEWDIN REDUCED ORBITAL CHARGES
-------------------------------
  0 C s       :     2.860678  s :     2.860678
      pz      :     0.864109  p :     2.710546
      px      :     0.907971
      py      :     0.938466
      dz2     :     0.035300  d :     0.279865
      dxz     :     0.042358
      dyz     :     0.044230
      dx2y2   :     0.059425
      dxy     :     0.098551

  1 C s       :     2.913458  s :     2.913458
      pz      :     1.060701  p :     3.157060
      px      :     1.018945
      py      :     1.077413
      dz2     :     0.016237  d :     0.075926
      dxz     :     0.017397
      dyz     :     0.007445
      dx2y2   :     0.020911
      dxy     :     0.013935

  2 H s       :     0.791113  s :     0.791113
      pz      :     0.034627  p :     0.077704
      px      :     0.022586
      py      :     0.020491

  3 H s       :     0.785726  s :     0.785726
      pz      :     0.013696  p :     0.078871
      px      :     0.020929
      py      :     0.044246

  4 O s       :     3.496409  s :     3.496409
      pz      :     1.661977  p :     4.608912
      px      :     1.304770
      py      :     1.642165
      dz2     :     0.005055  d :     0.048482
      dxz     :     0.009846
      dyz     :     0.006010
      dx2y2   :     0.008800
      dxy     :     0.018771

  5 C s       :     2.908495  s :     2.908495
      pz      :     1.030247  p :     3.131459
      px      :     1.026027
      py      :     1.075185
      dz2     :     0.012948  d :     0.077442
      dxz     :     0.022121
      dyz     :     0.012136
      dx2y2   :     0.022329
      dxy     :     0.007908

  6 H s       :     0.864163  s :     0.864163
      pz      :     0.023282  p :     0.039274
      px      :     0.007275
      py      :     0.008717

  7 H s       :     0.869130  s :     0.869130
      pz      :     0.006859  p :     0.040031
      px      :     0.006895
      py      :     0.026277

  8 C s       :     2.890137  s :     2.890137
      pz      :     0.990520  p :     3.031638
      px      :     0.976711
      py      :     1.064407
      dz2     :     0.026840  d :     0.126576
      dxz     :     0.031948
      dyz     :     0.018754
      dx2y2   :     0.033241
      dxy     :     0.015792

  9 H s       :     0.877206  s :     0.877206
      pz      :     0.007819  p :     0.040438
      px      :     0.006765
      py      :     0.025855

 10 H s       :     0.879007  s :     0.879007
      pz      :     0.016414  p :     0.039591
      px      :     0.015631
      py      :     0.007546

 11 C s       :     2.874676  s :     2.874676
      pz      :     0.944069  p :     2.723944
      px      :     0.949261
      py      :     0.830614
      dz2     :     0.068833  d :     0.277638
      dxz     :     0.104545
      dyz     :     0.046433
      dx2y2   :     0.024082
      dxy     :     0.033745

 12 O s       :     3.568256  s :     3.568256
      pz      :     1.461356  p :     4.600556
      px      :     1.727245
      py      :     1.411956
      dz2     :     0.019747  d :     0.055953
      dxz     :     0.012302
      dyz     :     0.017510
      dx2y2   :     0.003301
      dxy     :     0.003093

 13 N s       :     3.210190  s :     3.210190
      pz      :     1.189498  p :     3.980399
      px      :     1.511242
      py      :     1.279659
      dz2     :     0.011033  d :     0.056588
      dxz     :     0.016997
      dyz     :     0.010752
      dx2y2   :     0.013686
      dxy     :     0.004119

 14 H s       :     0.702861  s :     0.702861
      pz      :     0.037944  p :     0.113768
      px      :     0.040135
      py      :     0.035690

 15 O s       :     3.497248  s :     3.497248
      pz      :     1.626139  p :     4.615855
      px      :     1.279427
      py      :     1.710289
      dz2     :     0.008572  d :     0.048366
      dxz     :     0.018887
      dyz     :     0.005890
      dx2y2   :     0.007897
      dxy     :     0.007121

 16 H s       :     0.878264  s :     0.878264
      pz      :     0.008183  p :     0.038540
      px      :     0.006098
      py      :     0.024259

 17 O s       :     3.567896  s :     3.567896
      pz      :     1.447936  p :     4.618399
      px      :     1.725903
      py      :     1.444561
      dz2     :     0.008076  d :     0.055079
      dxz     :     0.003537
      dyz     :     0.018876
      dx2y2   :     0.014546
      dxy     :     0.010044

 18 H s       :     0.702071  s :     0.702071
      pz      :     0.029757  p :     0.114116
      px      :     0.053241
      py      :     0.031118



                      *****************************
                      * MAYER POPULATION ANALYSIS *
                      *****************************

  NA   - Mulliken gross atomic population
  ZA   - Total nuclear charge
  QA   - Mulliken gross atomic charge
  VA   - Mayer's total valence
  BVA  - Mayer's bonded valence
  FA   - Mayer's free valence

  ATOM       NA         ZA         QA         VA         BVA        FA
  0 C      5.4551     6.0000     0.5449     3.9586     3.9586    -0.0000
  1 C      6.2596     6.0000    -0.2596     3.8355     3.8355    -0.0000
  2 H      0.7520     1.0000     0.2480     0.9239     0.9239    -0.0000
  3 H      0.7391     1.0000     0.2609     0.9241     0.9241    -0.0000
  4 O      8.4636     8.0000    -0.4636     2.0444     2.0444    -0.0000
  5 C      6.2090     6.0000    -0.2090     3.8677     3.8677     0.0000
  6 H      0.8592     1.0000     0.1408     0.9476     0.9476    -0.0000
  7 H      0.8601     1.0000     0.1399     0.9543     0.9543    -0.0000
  8 C      6.0372     6.0000    -0.0372     3.8787     3.8787    -0.0000
  9 H      0.8666     1.0000     0.1334     0.9619     0.9619     0.0000
 10 H      0.8742     1.0000     0.1258     0.9552     0.9552    -0.0000
 11 C      5.5098     6.0000     0.4902     3.9280     3.9280     0.0000
 12 O      8.4182     8.0000    -0.4182     2.1157     2.1157    -0.0000
 13 N      7.5622     7.0000    -0.5622     2.9203     2.9203    -0.0000
 14 H      0.6817     1.0000     0.3183     0.9175     0.9175    -0.0000
 15 O      8.4641     8.0000    -0.4641     2.0206     2.0206     0.0000
 16 H      0.8705     1.0000     0.1295     0.9463     0.9463     0.0000
 17 O      8.4383     8.0000    -0.4383     2.0867     2.0867     0.0000
 18 H      0.6795     1.0000     0.3205     0.9159     0.9159     0.0000

  Mayer bond orders larger than 0.100000
B(  0-C ,  1-C ) :   0.9533 B(  0-C ,  4-O ) :   1.0875 B(  0-C , 17-O ) :   1.8686 
B(  1-C ,  5-C ) :   0.9857 B(  1-C ,  6-H ) :   0.9295 B(  1-C ,  7-H ) :   0.9321 
B(  2-H , 13-N ) :   0.9024 B(  3-H , 13-N ) :   0.8876 B(  4-O , 14-H ) :   0.8540 
B(  5-C ,  8-C ) :   0.9850 B(  5-C ,  9-H ) :   0.9313 B(  5-C , 10-H ) :   0.9392 
B(  8-C , 11-C ) :   0.8956 B(  8-C , 13-N ) :   1.0581 B(  8-C , 16-H ) :   0.9198 
B( 11-C , 12-O ) :   1.9225 B( 11-C , 15-O ) :   1.0593 B( 15-O , 18-H ) :   0.8516 


-------
TIMINGS
-------

Total SCF time: 0 days 0 hours 0 min 3 sec 

Total time                  ....       3.509 sec
Sum of individual times     ....       3.078 sec  ( 87.7%)

SCF preparation             ....       0.031 sec  (  0.9%)
Fock matrix formation       ....       3.011 sec  ( 85.8%)
  Startup                   ....       0.001 sec  (  0.0% of F)
  Split-RI-J                ....       1.120 sec  ( 37.2% of F)
  XC integration            ....       2.257 sec  ( 75.0% of F)
    XC Preparation          ....       0.000 sec  (  0.0% of XC)
    Basis function eval.    ....       0.835 sec  ( 37.0% of XC)
    Density eval.           ....       0.496 sec  ( 22.0% of XC)
    XC-Functional eval.     ....       0.435 sec  ( 19.3% of XC)
    XC-Potential eval.      ....       0.430 sec  ( 19.0% of XC)
Diagonalization             ....       0.000 sec  (  0.0%)
Density matrix formation    ....       0.002 sec  (  0.1%)
Total Energy calculation    ....       0.001 sec  (  0.0%)
Population analysis         ....       0.012 sec  (  0.3%)
Orbital Transformation      ....       0.003 sec  (  0.1%)
Orbital Orthonormalization  ....       0.000 sec  (  0.0%)
DIIS solution               ....       0.003 sec  (  0.1%)
SOSCF solution              ....       0.015 sec  (  0.4%)
Finished LeanSCF after   3.5 sec

Maximum memory used throughout the entire LEANSCF-calculation: 20.7 MB



-------------------------------------------------------------------------------
                          DFT DISPERSION CORRECTION                            
-------------------------------------------------------------------------------
Active option DFTDOPT                   ...         2   
Final C6-coefficient scaling factor     ...     1.250
Final VDW-radii scaling factor          ...     1.100
Damping factor alpha                    ...    20.000
-------------------------   ----------------
Dispersion correction           -0.025893176
-------------------------   ----------------


-------------------------   --------------------
FINAL SINGLE POINT ENERGY      -551.290328276349
-------------------------   --------------------

                                *** OPTIMIZATION RUN DONE ***


------------------------------------------------------------------------------
                              ORCA PROPERTY CALCULATIONS
------------------------------------------------------------------------------

GBWName                                 ... 3.gbw
Number of atoms                         ...     19
Number of basis functions               ...    185
Max core memory                         ...   4096 MB

Electric properties:
Dipole moment                           ... YES
Quadrupole moment                       ...  NO
Static polarizability (Dipole/Dipole)   ...  NO
Static polarizability (Dipole/Quad.)    ...  NO
Static polarizability (Quad./Quad.)     ...  NO
Static polarizability (Velocity)        ...  NO
Static hyperpolarizability              ...  NO

Atomic electric properties:
Dipole moment                           ...  NO
Quadrupole moment                       ...  NO
Static polarizability                   ...  NO

Choice of electric origin               ... Center of mass
Position of electric origin             ...    -2.365432     1.157837     0.652304

General magnetic properties:
Magnetizability                         ...  NO

EPR properties:
g-Tensor (aka g-matrix)                 ...  NO
Zero-Field splitting spin-orbit         ...  NO
Zero-field splitting spin-spin          ...  NO
Hyperfine couplings                     ...  NO (   0 nuclei)
Quadrupole couplings                    ...  NO (   0 nuclei)
Contact density                         ...  NO (   0 nuclei)

NMR properties:
Chemical shifts                         ...  NO (   0 nuclei)
Spin-rotation constants                 ...  NO (   0 nuclei)
Spin-spin couplings                     ...  NO (   0 nuclei,    0 pairs)

Choice of magnetic origin               ... GIAO
Position of magnetic origin             ...     0.000000     0.000000     0.000000

Properties with geometric perturbations:
SCF Hessian                             ...  NO
IR spectrum                             ...  NO
VCD spectrum                            ...  NO
X-ray spectroscopy properties:
SCF XES/XAS/RIXS spectra                ...  NO

SCF SOC stabilization energy            ...  NO
Diagonal Born-Oppenheimer correction    ...  NO

-------------
DIPOLE MOMENT
-------------

Method             : SCF
Type of density    : Electron Density
Multiplicity       :   1
Irrep              :   0
Energy             :  -551.2644350998672280 Eh
Basis              : AO
                                X                 Y                 Z
Electronic contribution:      0.487547476      -1.698727980       2.331498138
Nuclear contribution   :     -0.246340774       2.158714135      -2.888054513
                        -----------------------------------------
Total Dipole Moment    :      0.241206703       0.459986155      -0.556556375
                        -----------------------------------------
Magnitude (a.u.)       :      0.761264038
Magnitude (Debye)      :      1.934979409



--------------------
Rotational spectrum 
--------------------
 
Rotational constants in cm-1:             0.099077             0.021915             0.020296 
Rotational constants in MHz :          2970.266415           656.996496           608.468417 

Dipole components along the rotational axes: 
x,y,z [a.u.] :    -0.117336    -0.682627    -0.315872 
x,y,z [Debye]:    -0.298244    -1.735101    -0.802883 

 

Dipole moment calculation done in   0.0 sec 

Maximum memory used throughout the entire PROP-calculation: 11.9 MB

--------------------------------
SUGGESTED CITATIONS FOR THIS RUN
--------------------------------

Below you find a list of papers that are relevant to this ORCA run
We neither can nor want to force you to cite these papers, but we appreciate if you do
You receive ORCA, which is the product of decades of hard work by many enthusiastic individuals, for free
The only thing we kindly ask in return is that you cite our papers,
We deeply appreciate it, if you show your appreciation for ORCA by not just citing the generic ORCA reference.

Please note that relegating all ORCA citations to the supporting information does *not* help us.
SI sections are not indexed - citations you put there will not count into any citation statistics
But we need these citations in order to attract the funding resources that allow us to do what we are doing

Therefore, if you are a happy ORCA user, please consider citing a few of the papers listed below in the main body of your paper

In addition to the list printed below, the program has created the file 3.bibtex that contains the list in bibtex format
You can import this file easily into all common literature databanks and citation aid programs


List of essential papers. We consider these as the minimum necessary citations

  1. Neese, F.
     Software update: the ORCA program system, version 6.0
     WIRES Comput. Molec. Sci. 2025 15(1), e70019
     doi.org/10.1002/wcms.7019

List of papers to cite with high priority. The work reported in these papers was absolutely
necessary for this run to complete.
Our perspective: the developers of density functionals and basis sets usually get cited in chemistry papers
Good! But without the algorithms to do something with them, the functionals or basis sets would not do anything.
Hence, in our opinion, the algorithm design and method developments papers are equally worthy of getting cited

  1. Neese, F.
     An improvement of the resolution of the identity approximation for the formation of the Coulomb matrix
     J. Comp. Chem. 2003 24(14), 1740-1747
     doi.org/10.1002/jcc.10318
  2. Grimme, S.
     Semiempirical GGA-type density functional constructed with a long-range dispersion correction
     J.Comput.Chem. 2006 27(15), 1787-1799
     doi.org/10.1002/jcc.20495
  3. Neese, F.
     The SHARK Integral Generation and Digestion System
     J. Comp. Chem. 2022 44(3), 381
     doi.org/10.1002/jcc.26942

List of suggested additional citations. These are papers that are important in the 'surrounding' of 
of this run, or papers that preceded the highly important papers. If you like your results we are grateful for a citation.

  1. Neese, F.
     The ORCA program system
     WIRES Comput. Molec. Sci. 2012 2(1), 73-78
     doi.org/10.1002/wcms.81
  2. Neese, F.
     Software update: the ORCA program system, version 4.0
     WIRES Comput. Molec. Sci. 2018 8(1), 1-6
     doi.org/10.1002/wcms.1327
  3. Neese, F.; Wennmohs, F.; Becker, U.; Riplinger, C.
     The ORCA quantum chemistry program package
     J. Chem. Phys. 2020 152(22), 224108
     doi.org/10.1063/5.0004608
  4. Neese, F.
     Software update: The ORCA program system—Version 5.0
     WIRES Comput. Molec. Sci. 2022 12(1), e1606
     doi.org/10.1002/wcms.1606

List of optional additional citations

  1. Neese, F.
     Approximate second-order SCF convergence for spin unrestricted wavefunctions
     Chem. Phys. Lett. 2000 325(1-3), 93-98
     doi.org/10.1016/s0009-2614(00)00662-x

Timings for individual modules:

Sum of individual times          ...      126.214 sec (=   2.104 min)
Startup calculation              ...        6.486 sec (=   0.108 min)   5.1 %
SCF iterations                   ...       75.825 sec (=   1.264 min)  60.1 %
Property calculations            ...        0.037 sec (=   0.001 min)   0.0 %
SCF Gradient evaluation          ...       43.843 sec (=   0.731 min)  34.7 %
Geometry relaxation              ...        0.023 sec (=   0.000 min)   0.0 %
                             ****ORCA TERMINATED NORMALLY****
TOTAL RUN TIME: 0 days 0 hours 2 minutes 6 seconds 563 msec
