
                                 *****************
                                 * O   R   C   A *
                                 *****************

                                            #,                                       
                                            ###                                      
                                            ####                                     
                                            #####                                    
                                            ######                                   
                                           ########,                                 
                                     ,,################,,,,,                         
                               ,,#################################,,                 
                          ,,##########################################,,             
                       ,#########################################, ''#####,          
                    ,#############################################,,   '####,        
                  ,##################################################,,,,####,       
                ,###########''''           ''''###############################       
              ,#####''   ,,,,##########,,,,          '''####'''          '####       
            ,##' ,,,,###########################,,,                        '##       
           ' ,,###''''                  '''############,,,                           
         ,,##''                                '''############,,,,        ,,,,,,###''
      ,#''                                            '''#######################'''  
     '                                                          ''''####''''         
             ,#######,   #######,   ,#######,      ##                                
            ,#'     '#,  ##    ##  ,#'     '#,    #''#        ,####,    ,#,          
            ##       ##  ##   ,#'  ##            #'  '#       #'       ,# #          
            ##       ##  #######   ##           ,######,      #####,      #          
            '#,     ,#'  ##    ##  '#,     ,#' ,#      #,     #,   #      #          
             '#######'   ##     ##  '#######'  #'      '#     '####' #    #          



                #########################################################
                #                        -***-                          #
                #          Department of theory and spectroscopy        #
                #                                                       #
                #                      Frank Neese                      #
                #                                                       #
                #     Directorship, Architecture, Infrastructure        #
                #                    SHARK, DRIVERS                     #
                #        Core code/Algorithms in most modules           #
                #                                                       #
                #        Max Planck Institute fuer Kohlenforschung      #
                #                Kaiser Wilhelm Platz 1                 #
                #                 D-45470 Muelheim/Ruhr                 #
                #                      Germany                          #
                #                                                       #
                #                  All rights reserved                  #
                #                        -***-                          #
                #########################################################


                         Program Version 6.1.0  -  RELEASE   -
                                (GIT: $679e74b$)
                          ($2025-06-10 18:02:51 +0200$)


 With contributions from (in alphabetic order):
[Max-Planck-Institut fuer Kohlenforschung]                               
  Daniel Aravena         : Magnetic Suceptibility                        
  Michael Atanasov       : Ab Initio Ligand Field Theory (pilot matlab implementation)
  Alexander A. Auer      : GIAO ZORA, VPT2 properties, NMR spectrum      
  Ute Becker             : All parallelization in ORCA, NUMFREQ, NUMCALC 
  Giovanni Bistoni       : ED, misc. LED, open-shell LED, HFLD           
  Dmytro Bykov           : pre 5.0 version of the SCF Hessian            
  Marcos Casanova-Páez   : Triplet and SCS-CIS(D). UHF-(DLPNO)-IP/EA/STEOM-CCSD. UHF-CVS-IP/STEOM-CCSD   
  Vijay G. Chilkuri      : MRCI spin determinant printing, contributions to CSF-ICE 
  Pauline Colinet        : FMM embedding                                 
  Dipayan Datta          : RHF DLPNO-CCSD density                        
  Achintya Kumar Dutta   : EOM-CC, STEOM-CC                              
  Nicolas Foglia         : Exact transition moments, OPA infrastructure, MCD improvements    
  Dmitry Ganyushin       : Spin-Orbit,Spin-Spin,Magnetic field MRCI      
  Miquel Garcia-Rates    : C-PCM and meta-GGA Hessian, CCSD/C-PCM, Gaussian charge scheme 
  Tiago L. C. Gouveia    : GS-ROHF, GS-ROCIS                             
  Yang Guo               : DLPNO-NEVPT2, F12-NEVPT2, CIM, IAO-localization        
  Andreas Hansen         : Spin unrestricted coupled pair/coupled cluster methods 
  Ingolf Harden          : AUTO-CI MPn and infrastructure                
  Benjamin Helmich-Paris : MC-RPA, TRAH-(SCF,CASSCF), AVAS, COSX integrals, SCF dyn. polar., MC-PDFT, srDFT 
  Lee Huntington         : MR-EOM, pCC                                   
  Robert Izsak           : Overlap fitted RIJCOSX, COSX-SCS-MP3, EOM     
  Riya Kayal             : Wick's Theorem for AUTO-CI, AUTO-CI UHF-CCSDT 
  Emily Kempfer          : AUTO-CI RHF CISDT and CCSDT, approximate NEVPT4
  Christian Kollmar      : KDIIS, OOCD, Brueckner-CCSD(T), CCSD density, CASPT2, CASPT2-K, improved NEVPT2 
  Axel Koslowski         : Symmetry handling                             
  Simone Kossmann        : meta-GGA functionals, TD-DFT gradient, OOMP2, (MP2 Hessian; deprecated post 5.0) 
  Lucas Lang             : DCDCAS, Hyperfine gauge corrections, ICE-SOC+SSC
  Marvin Lechner         : AUTO-CI (C++ implementation), FIC-MRCC        
  Spencer Leger          : CASSCF response                               
  Dagmar Lenk            : GEPOL surface, SMD, ORCA-2-JSON               
  Dimitrios Liakos       : Extrapolation schemes; Compound Job, Property file
  Dimitrios Manganas     : Further ROCIS development; embedding schemes. LFT, Crystal Embedding 
  Dimitrios Pantazis     : SARC Basis sets                               
  Anastasios Papadopoulos: AUTO-CI, single reference methods and gradients 
  Taras Petrenko         : pre 6.0 DFT Hessian and TD-DFT gradient,  ECA, NRVS 
  Petra Pikulova         : Analytic Raman intensities                    
  Peter Pinski           : DLPNO-MP2, DLPNO-MP2 Gradient                 
  Shashank Vittal Rao    : ES-AILFT, MagRelax                            
  Christoph Reimann      : Effective Core Potentials                     
  Marius Retegan         : Local ZFS, SOC                                
  Christoph Riplinger    : Optimizer, TS searches, QM/MM, DLPNO-CCSD(T), (RO)-DLPNO pert. Triples 
  Michael Roemelt        : Original ROCIS implementation, recursive CI coupling coefficients
  Masaaki Saitow         : Open-shell DLPNO-CCSD energy and density      
  Barbara Sandhoefer     : DKH picture change effects                    
  Yorick L. A. Schmerwitz: GMF and freeze-and-release deltaSCF, NEB S-IDPP initial path                    
  Kantharuban Sivalingam : CASSCF convergence/infrastructure, NEVPT2, NEVPT3, NEVPT4(SD), FIC-MRCI and CEPA variants
  Bernardo de Souza      : ESD, SOC TD-DFT                               
  Georgi L. Stoychev     : AutoAux, RI-MP2 NMR, DLPNO-MP2 response, X2C  
  Van Anh Tran           : RI-MP2 g-tensors                              
  Willem Van den Heuvel  : Paramagnetic NMR                              
  Zikuan Wang            : NOTCH, Electric field optimization            
  Frank Wennmohs         : Technical directorship and infrastructure     
  Hang Xu                : AUTO-CI-Response properties                   
                                                                         
[FACCTs GmbH]                                                            
  Markus Bursch, Nicolas Foglia, Miquel Garcia-Rates, Ingolf Harden, Hagen Neugebauer, Anastasios Papadopoulos, 
  Christoph Riplinger, Bernardo de Souza, Georgi L. Stoychev                                                    
                                                                 
  APM, various basis sets, CI-OPT, improved COSX, DLPNO-Multilevel,           
  DOCKER, DRACO, updates on ESD, Fragmentator, GOAT, IRC, LR-CPCM, L-BFGS, MBIS, meta-GGA TD-DFT gradient, ML-optimized integration grids, 
  MM, NACMEs, nearIR, NEB, NEB-TS, NL-DFT gradient (VV10), 2- and 3-layer-ONIOM, interface openCOSMO-RS, QMMM,   
  Crystal-QMMM, RESP, rigid body optimization, SF, symmetry and pop. for TD-DFT, various functionals, SOLVATOR                                   
                                                                         
[Other institutions]                                                     
  V. Asgeirsson          : NEB                                           
  Christoph Bannwarth    : sTDA-DFT, sTD-DFT, PBEh-3c, B97-3c, D3        
  Giovanni Bistoni       : ETS/NOCV, ADLD/ADEX, COVALED                  
  Martin Brehm           : Molecular dynamics                            
  Ronald Cardenas        : ETS/NOCV                                      
  Martina Colucci        : COVALED                                       
  Sebastian Ehlert       : rSCAN, r2SCAN, r2SCAN-3c, D4, dhf basis sets  
  Marvin Friede          : D4 for Fr, Ra, Ac-Lr                          
  Lars Goerigk           : TD-DFT with DH, B97 family of functionals     
  Stefan Grimme          : VdW corrections, initial TS optimization, DFT functionals, gCP, sTDA/sTD-DF 
  Waldemar Hujo          : DFT-NL                                        
  H. Jonsson             : NEB                                           
  Holger Kruse           : gCP                                           
  Marcel Mueller         : wB97X-3c, vDZP basis set                      
  Hagen Neugebauer       : wr2SCAN, Native XTB                           
  Gianluca Regni         : ADLD/ADEX                                     
  Tobias Risthaus        : pre 6.0 range-separated hybrid DFT and stability analysis
  Lukas Wittmann         : regularized MP2, r2SCAN double-hybrids, wr2SCAN        
                                                                         
We gratefully acknowledge several colleagues who have allowed us to      
interface, adapt or use parts of their codes:                            
  Ed Valeev, F. Pavosevic, A. Kumar             : LibInt (2-el integral package), F12 methods 
  Garnet Chan, S. Sharma, J. Yang, R. Olivares  : DMRG                   
  Ulf Ekstrom                                   : XCFun DFT Library      
  Mihaly Kallay                                 : mrcc  (arbitrary order and MRCC methods)
  Frank Weinhold                                : gennbo (NPA and NBO analysis)           
  Simon Mueller                                 : openCOSMO-RS                            
  Christopher J. Cramer and Donald G. Truhlar   : smd solvation model                     
  S Lehtola, MJT Oliveira, MAL Marques          : LibXC Library                           
  Liviu Ungur et al                             : ANISO software                          


 Your calculation uses the libint2 library for the computation of 2-el integrals
 For citations please refer to: http://libint.valeyev.net

 Your ORCA version has been built with support for libXC version: 7.0.0
 For citations please refer to: https://libxc.gitlab.io

 This ORCA versions uses:
   CBLAS   interface :  Fast vector & matrix operations
   LAPACKE interface :  Fast linear algebra routines
   SCALAPACK package :  Parallel linear algebra routines
   Shared memory     :  Shared parallel matrices
   BLAS/LAPACK       :  OpenBLAS 0.3.29  USE64BITINT DYNAMIC_ARCH NO_AFFINITY Haswell SINGLE_THREADED
        Core in use  :  Haswell
   Copyright (c) 2011-2014, The OpenBLAS Project


  ***********************************
  * Starting time: Sat Aug 30 15:40:01 2025
  * Host name:     chemlab03
  * Process ID:    79430
  * Working dir.:  /home/vivek/mm-project/vivek/xtb-goat/B97-D-opt/f/2
  ***********************************



***************************************
The coordinates will be read from file: /home/vivek/mm-project/vivek/xtb-goat/xtb-goat/f/F_CONF/2.xyz
***************************************


Your calculation utilizes empirical dispersion correction


Warning: RI is on but no J-basis has been assigned. Assigning Def2/J (nothing to worry about!)
================================================================================

----- Orbital basis set information -----
Your calculation utilizes the basis: 6-31G**
   H-He, Li-Ne : W. J. Hehre, R. Ditchfield and J.A. Pople, J. Chem. Phys. 56, 2257 (1972).
                 Note: He and Ne are unpublished basis sets taken from the Gaussian program.
                 Note: Li and B from J. D. Dill and J. A. Pople, J. Chem. Phys. 62, 2921 (1975).
   Na - Ar     : M. M. Francl, W. J. Pietro, W. J. Hehre, J. S. Binkley, M. S. Gordon, 
                 D. J. DeFrees and J. A. Pople, J. Chem. Phys. 77, 3654 (1982).
   K - Zn      : V. A. Rassolov, J. A. Pople, M. A. Ratner, and T. L. Windus, J. Chem. Phys. 109, 1223 (1998).

----- AuxJ basis set information -----
Your calculation utilizes the auxiliary basis: def2/J
   H-Rn: F. Weigend, Phys. Chem. Chem. Phys. 8, 1057 (2006).
   Fr-Lr: K. Eichkorn, F. Weigend, O. Treutler, R. Ahlrichs; Theor. Chem. Acc. 97, 119 (1997).

================================================================================
                                        WARNINGS
                       Please study these warnings very carefully!
================================================================================


WARNING: Geometry Optimization
  ===> : Switching off AutoStart
         For restart on a previous wavefunction, please use MOREAD

INFO   : The exchange functional is Grimme's B97(-D)
         As described in S. Grimme, J. Comput. Chem. 27, 1787 (2006).
         Note that this functional defaults to a pure GGA. 

INFO   : The correlation functional is Grimme's B97(-D)
         As described in S. Grimme, J. Comput. Chem. 27, 1787 (2006).

================================================================================
                                       INPUT FILE
================================================================================
NAME = 2.inp
|  1> ! B97-D 6-31G** opt
|  2> 
|  3> * xyzfile 0 1 /home/vivek/mm-project/vivek/xtb-goat/xtb-goat/f/F_CONF/2.xyz
|  4> 
|  5>                          ****END OF INPUT****
================================================================================

                       *****************************
                       * Geometry Optimization Run *
                       *****************************

Geometry optimization settings:
Update method            Update   .... BFGS
Choice of coordinates    CoordSys .... (2022) Redundant Internals
Initial Hessian          InHess   .... Almloef's Model
Max. no of cycles        MaxIter  .... 69

Convergence Tolerances:
Energy Change            TolE     ....  5.0000e-06 Eh
Max. Gradient            TolMAXG  ....  3.0000e-04 Eh/bohr
RMS Gradient             TolRMSG  ....  1.0000e-04 Eh/bohr
Max. Displacement        TolMAXD  ....  4.0000e-03 bohr
RMS Displacement         TolRMSD  ....  2.0000e-03 bohr
Strict Convergence                .... False

------------------------------------------------------------------------------
                        ORCA OPTIMIZATION COORDINATE SETUP
------------------------------------------------------------------------------

The optimization will be done in redundant internal coordinates (2022)
Making redundant internal coordinates   ...  (2022 redundants) done
Evaluating the initial hessian          ...  (Almloef) done
Evaluating the coordinates              ...  done
Calculating the B-matrix                .... done
Calculating the G-matrix                .... done
The number of degrees of freedom        ....  107

    -----------------------------------------------------------------
                    Redundant Internal Coordinates


    -----------------------------------------------------------------
         Definition                    Initial Value    Approx d2E/dq
    -----------------------------------------------------------------
      1. B(C   1,C   0)                  1.3842         0.638335   
      2. B(H   4,C   2)                  1.0808         0.372410   
      3. B(C   5,C   1)                  1.3841         0.638390   
      4. B(H   7,C   1)                  1.0803         0.373105   
      5. B(C   8,C   5)                  1.3897         0.625492   
      6. B(C   8,C   6)                  1.5025         0.413308   
      7. B(C   8,C   2)                  1.3900         0.624743   
      8. B(H   9,C   0)                  1.0800         0.373518   
      9. B(C  10,H   3)                  1.0804         0.373047   
     10. B(C  10,C   2)                  1.3836         0.639664   
     11. B(C  10,C   0)                  1.3847         0.637110   
     12. B(H  11,C   5)                  1.0805         0.372858   
     13. B(C  12,C   6)                  1.5475         0.350335   
     14. B(H  13,C   6)                  1.0901         0.360028   
     15. B(H  14,C   6)                  1.0906         0.359300   
     16. B(C  15,C  12)                  1.5257         0.379532   
     17. B(N  17,C  12)                  1.4459         0.455632   
     18. B(O  18,H  16)                  0.9698         0.501605   
     19. B(O  18,C  15)                  1.3398         0.672982   
     20. B(H  19,N  17)                  1.0138         0.426657   
     21. B(O  20,C  15)                  1.2021         1.116072   
     22. B(H  21,C  12)                  1.0972         0.350690   
     23. B(H  22,N  17)                  1.0151         0.424630   
     24. A(C   1,C   0,C  10)          119.6805         0.438497   
     25. A(C   1,C   0,H   9)          120.1841         0.356864   
     26. A(H   9,C   0,C  10)          120.1347         0.356748   
     27. A(C   0,C   1,C   5)          120.1248         0.438655   
     28. A(C   0,C   1,H   7)          120.0496         0.356797   
     29. A(C   5,C   1,H   7)          119.8256         0.356803   
     30. A(C   8,C   2,C  10)          120.5848         0.437113   
     31. A(H   4,C   2,C   8)          119.5269         0.355384   
     32. A(H   4,C   2,C  10)          119.8881         0.356810   
     33. A(C   1,C   5,C   8)          120.6108         0.437051   
     34. A(C   8,C   5,H  11)          119.3878         0.355528   
     35. A(C   1,C   5,H  11)          120.0010         0.356763   
     36. A(C  12,C   6,H  14)          108.1580         0.320806   
     37. A(H  13,C   6,H  14)          109.4161         0.290729   
     38. A(C   8,C   6,H  14)          110.2775         0.329643   
     39. A(C  12,C   6,H  13)          107.3739         0.320912   
     40. A(C   8,C   6,H  13)          110.3503         0.329753   
     41. A(C   8,C   6,C  12)          111.1854         0.365649   
     42. A(C   5,C   8,C   6)          120.6160         0.404433   
     43. A(C   2,C   8,C   6)          120.5133         0.404347   
     44. A(C   2,C   8,C   5)          118.8404         0.435352   
     45. A(C   0,C  10,H   3)          120.0343         0.356671   
     46. A(C   0,C  10,C   2)          120.1563         0.438661   
     47. A(C   2,C  10,H   3)          119.8093         0.356914   
     48. A(C  15,C  12,N  17)          115.2291         0.374623   
     49. A(C   6,C  12,N  17)          110.1801         0.369494   
     50. A(C   6,C  12,C  15)          107.8238         0.360362   
     51. A(N  17,C  12,H  21)          108.2708         0.331652   
     52. A(C  15,C  12,H  21)          107.0541         0.323752   
     53. A(C   6,C  12,H  21)          108.0315         0.319537   
     54. A(C  12,C  15,O  20)          124.9010         0.438829   
     55. A(C  12,C  15,O  18)          112.5697         0.400984   
     56. A(O  18,C  15,O  20)          122.5290         0.483975   
     57. A(C  12,N  17,H  19)          110.6459         0.339707   
     58. A(H  19,N  17,H  22)          107.6190         0.301666   
     59. A(C  12,N  17,H  22)          109.8785         0.339437   
     60. A(C  15,O  18,H  16)          110.2990         0.373063   
     61. D(C   5,C   1,C   0,C  10)      0.3203         0.028301   
     62. D(C   5,C   1,C   0,H   9)   -179.9597         0.028301   
     63. D(H   7,C   1,C   0,H   9)      0.0858         0.028301   
     64. D(H   7,C   1,C   0,C  10)   -179.6341         0.028301   
     65. D(H  11,C   5,C   1,H   7)      0.2549         0.028306   
     66. D(H  11,C   5,C   1,C   0)   -179.6997         0.028306   
     67. D(C   8,C   5,C   1,C   0)      0.0845         0.028306   
     68. D(C   8,C   5,C   1,H   7)   -179.9609         0.028306   
     69. D(C   6,C   8,C   5,C   1)    177.5414         0.027102   
     70. D(C   6,C   8,C   2,C  10)   -177.5619         0.027033   
     71. D(C   2,C   8,C   5,C   1)     -0.4647         0.027102   
     72. D(C   2,C   8,C   5,H  11)    179.3208         0.027102   
     73. D(C   5,C   8,C   6,C  12)    -89.4086         0.012645   
     74. D(C   5,C   8,C   2,C  10)      0.4463         0.027033   
     75. D(C   5,C   8,C   2,H   4)   -179.4211         0.027033   
     76. D(C   2,C   8,C   6,H  13)   -152.4021         0.012645   
     77. D(C   2,C   8,C   6,C  12)     88.5640         0.012645   
     78. D(C   2,C   8,C   6,H  14)    -31.4033         0.012645   
     79. D(C   6,C   8,C   5,H  11)     -2.6731         0.027102   
     80. D(C   6,C   8,C   2,H   4)      2.5707         0.027033   
     81. D(C   5,C   8,C   6,H  13)     29.6253         0.012645   
     82. D(H   3,C  10,C   2,C   8)   -179.9385         0.028427   
     83. D(H   3,C  10,C   2,H   4)     -0.0716         0.028427   
     84. D(C   0,C  10,C   2,C   8)     -0.0479         0.028427   
     85. D(C   0,C  10,C   2,H   4)    179.8191         0.028427   
     86. D(H   3,C  10,C   0,H   9)     -0.1683         0.028185   
     87. D(H   3,C  10,C   0,C   1)    179.5518         0.028185   
     88. D(C   2,C  10,C   0,H   9)    179.9413         0.028185   
     89. D(C   2,C  10,C   0,C   1)     -0.3386         0.028185   
     90. D(C  15,C  12,C   6,H  13)    179.4739         0.010000   
     91. D(C  15,C  12,C   6,C   8)    -59.7248         0.010000   
     92. D(N  17,C  12,C   6,H  14)   -171.9821         0.010000   
     93. D(N  17,C  12,C   6,H  13)    -54.0004         0.010000   
     94. D(N  17,C  12,C   6,C   8)     66.8008         0.010000   
     95. D(C  15,C  12,C   6,H  14)     61.4923         0.010000   
     96. D(O  20,C  15,C  12,N  17)    166.6660         0.010750   
     97. D(O  20,C  15,C  12,C   6)    -69.8247         0.010750   
     98. D(O  18,C  15,C  12,H  21)   -133.9727         0.010750   
     99. D(O  18,C  15,C  12,N  17)    -13.5051         0.010750   
    100. D(O  18,C  15,C  12,C   6)    110.0042         0.010750   
    101. D(H  22,N  17,C  12,C  15)     60.5755         0.017716   
    102. D(H  22,N  17,C  12,C   6)    -61.6785         0.017716   
    103. D(H  19,N  17,C  12,H  21)     61.6778         0.017716   
    104. D(H  19,N  17,C  12,C  15)    -58.1223         0.017716   
    105. D(H  19,N  17,C  12,C   6)    179.6236         0.017716   
    106. D(H  16,O  18,C  15,O  20)      1.7901         0.033671   
    107. D(H  16,O  18,C  15,C  12)   -178.0434         0.033671   
    -----------------------------------------------------------------

Number of atoms                         .... 23
Number of degrees of freedom            .... 107


         *************************************************************
         *                GEOMETRY OPTIMIZATION CYCLE   1            *
         *************************************************************
---------------------------------
CARTESIAN COORDINATES (ANGSTROEM)
---------------------------------
  C     -5.893272    0.063541   -0.864728
  C     -5.178774    0.805410   -1.789410
  C     -4.941862    1.372771    0.906524
  H     -6.335934   -0.218430    1.210526
  H     -4.855308    1.596335    1.960452
  C     -4.345503    1.826417   -1.366268
  C     -3.268301    3.189567    0.449481
  H     -5.270865    0.589150   -2.843872
  C     -4.214148    2.118056   -0.013881
  H     -6.543249   -0.733787   -1.193799
  C     -5.775321    0.352237    0.484383
  H     -3.792397    2.407450   -2.090149
  C     -1.857308    2.612842    0.716300
  H     -3.165696    3.960727   -0.314065
  H     -3.631505    3.640505    1.373687
  C     -1.987148    1.540685    1.793964
  H     -1.907754   -0.351236    2.020461
  N     -1.256237    2.171786   -0.522631
  O     -1.787477    0.304888    1.316537
  H     -0.328515    1.798077   -0.356705
  O     -2.242542    1.753940    2.949079
  H     -1.235874    3.415013    1.133681
  H     -1.816513    1.431896   -0.933898

----------------------------
CARTESIAN COORDINATES (A.U.)
----------------------------
  NO LB      ZA    FRAG     MASS         X           Y           Z
   0 C     6.0000    0    12.011  -11.136669    0.120076   -1.634100
   1 C     6.0000    0    12.011   -9.786465    1.522004   -3.381495
   2 C     6.0000    0    12.011   -9.338767    2.594161    1.713083
   3 H     1.0000    0     1.008  -11.973180   -0.412772    2.287563
   4 H     1.0000    0     1.008   -9.175203    3.016636    3.704717
   5 C     6.0000    0    12.011   -8.211810    3.451428   -2.581872
   6 C     6.0000    0    12.011   -6.176194    6.027407    0.849395
   7 H     1.0000    0     1.008   -9.960491    1.113332   -5.374140
   8 C     6.0000    0    12.011   -7.963586    4.002546   -0.026231
   9 H     1.0000    0     1.008  -12.364949   -1.386656   -2.255952
  10 C     6.0000    0    12.011  -10.913775    0.665632    0.915351
  11 H     1.0000    0     1.008   -7.166592    4.549421   -3.949810
  12 C     6.0000    0    12.011   -3.509803    4.937556    1.353610
  13 H     1.0000    0     1.008   -5.982299    7.484689   -0.593498
  14 H     1.0000    0     1.008   -6.862549    6.879558    2.595893
  15 C     6.0000    0    12.011   -3.755166    2.911473    3.390102
  16 H     1.0000    0     1.008   -3.605132   -0.663740    3.818119
  17 N     7.0000    0    14.007   -2.373944    4.104082   -0.987629
  18 O     8.0000    0    15.999   -3.377842    0.576154    2.487894
  19 H     1.0000    0     1.008   -0.620802    3.397874   -0.674074
  20 O     8.0000    0    15.999   -4.237790    3.314466    5.572951
  21 H     1.0000    0     1.008   -2.335463    6.453439    2.142346
  22 H     1.0000    0     1.008   -3.432712    2.705891   -1.764812

--------------------------------
INTERNAL COORDINATES (ANGSTROEM)
--------------------------------
 C      0   0   0     0.000000000000     0.00000000     0.00000000
 C      1   0   0     1.384164669828     0.00000000     0.00000000
 C      1   2   0     2.399291101139    89.77207791     0.00000000
 H      3   1   2     2.137234383594    55.95066731   179.64795079
 H      3   1   2     1.080849661750   149.82272216   179.39379828
 C      2   1   3     1.384140901820   120.12482341     0.15149820
 C      3   1   2     2.512059710166   121.63523510   358.20377971
 H      2   1   3     1.080342649148   120.04960359   180.19704552
 C      6   2   1     1.389697210219   120.61078901     0.08453745
 H      1   2   3     1.080041584508   120.18414457   179.88878249
 C      4   3   1     1.080384898747    34.17482272     0.06586123
 H      6   2   1     1.080522514282   120.00102887   180.30032785
 C      7   3   1     1.547483616900   107.85099205   261.14852178
 H      7   3   1     1.090054177458   134.57171196    40.40510459
 H      7   3   1     1.090605584641    85.58324550   153.48057992
 C     13   7   3     1.525693209788   107.82381476   330.31899126
 H     16  13   7     1.907084418955   141.03165445   108.52056060
 N     13   7   3     1.445947815478   110.18012800    96.84463945
 O     17  16  13     0.969780684702    41.21572321     2.87350178
 H     18  13   7     1.013833685638   110.64593607   179.62360717
 O     16  13   7     1.202078412632   124.90102382   290.17532792
 H     13   7   3     1.097207882898   108.03153825   214.93783486
 H     18  13   7     1.015129803047   109.87846826   298.32146326

---------------------------
INTERNAL COORDINATES (A.U.)
---------------------------
 C      0   0   0     0.000000000000     0.00000000     0.00000000
 C      1   0   0     2.615692150225     0.00000000     0.00000000
 C      1   2   0     4.534003096707    89.77207791     0.00000000
 H      3   1   2     4.038787668992    55.95066731   179.64795079
 H      3   1   2     2.042509852649   149.82272216   179.39379828
 C      2   1   3     2.615647235199   120.12482341     0.15149820
 C      3   1   2     4.747104884271   121.63523510   358.20377971
 H      2   1   3     2.041551737684   120.04960359   180.19704552
 C      6   2   1     2.626147136388   120.61078901     0.08453745
 H      1   2   3     2.040982807967   120.18414457   179.88878249
 C      4   3   1     2.041631577856    34.17482272     0.06586123
 H      6   2   1     2.041891633528   120.00102887   180.30032785
 C      7   3   1     2.924320232670   107.85099205   261.14852178
 H      7   3   1     2.059903866533   134.57171196    40.40510459
 H      7   3   1     2.060945875097    85.58324550   153.48057992
 C     13   7   3     2.883142330882   107.82381476   330.31899126
 H     16  13   7     3.603867266094   141.03165445   108.52056060
 N     13   7   3     2.732445375196   110.18012800    96.84463945
 O     17  16  13     1.832619904054    41.21572321     2.87350178
 H     18  13   7     1.915868011199   110.64593607   179.62360717
 O     16  13   7     2.271598991373   124.90102382   290.17532792
 H     13   7   3     2.073422410656   108.03153825   214.93783486
 H     18  13   7     1.918317318140   109.87846826   298.32146326

---------------------
BASIS SET INFORMATION
---------------------
There are 4 groups of distinct atoms

 Group   1 Type C   : 10s4p1d contracted to 3s2p1d pattern {631/31/1}
 Group   2 Type H   : 4s1p contracted to 2s1p pattern {31/1}
 Group   3 Type N   : 10s4p1d contracted to 3s2p1d pattern {631/31/1}
 Group   4 Type O   : 10s4p1d contracted to 3s2p1d pattern {631/31/1}

Atom   0C    basis set group =>   1
Atom   1C    basis set group =>   1
Atom   2C    basis set group =>   1
Atom   3H    basis set group =>   2
Atom   4H    basis set group =>   2
Atom   5C    basis set group =>   1
Atom   6C    basis set group =>   1
Atom   7H    basis set group =>   2
Atom   8C    basis set group =>   1
Atom   9H    basis set group =>   2
Atom  10C    basis set group =>   1
Atom  11H    basis set group =>   2
Atom  12C    basis set group =>   1
Atom  13H    basis set group =>   2
Atom  14H    basis set group =>   2
Atom  15C    basis set group =>   1
Atom  16H    basis set group =>   2
Atom  17N    basis set group =>   3
Atom  18O    basis set group =>   4
Atom  19H    basis set group =>   2
Atom  20O    basis set group =>   4
Atom  21H    basis set group =>   2
Atom  22H    basis set group =>   2
---------------------------------
AUXILIARY/J BASIS SET INFORMATION
---------------------------------
There are 4 groups of distinct atoms

 Group   1 Type C   : 12s5p4d2f1g contracted to 6s4p3d1f1g pattern {711111/2111/211/2/1}
 Group   2 Type H   : 5s2p1d contracted to 3s1p1d pattern {311/2/1}
 Group   3 Type N   : 12s5p4d2f1g contracted to 6s4p3d1f1g pattern {711111/2111/211/2/1}
 Group   4 Type O   : 12s5p4d2f1g contracted to 6s4p3d1f1g pattern {711111/2111/211/2/1}

Atom   0C    basis set group =>   1
Atom   1C    basis set group =>   1
Atom   2C    basis set group =>   1
Atom   3H    basis set group =>   2
Atom   4H    basis set group =>   2
Atom   5C    basis set group =>   1
Atom   6C    basis set group =>   1
Atom   7H    basis set group =>   2
Atom   8C    basis set group =>   1
Atom   9H    basis set group =>   2
Atom  10C    basis set group =>   1
Atom  11H    basis set group =>   2
Atom  12C    basis set group =>   1
Atom  13H    basis set group =>   2
Atom  14H    basis set group =>   2
Atom  15C    basis set group =>   1
Atom  16H    basis set group =>   2
Atom  17N    basis set group =>   3
Atom  18O    basis set group =>   4
Atom  19H    basis set group =>   2
Atom  20O    basis set group =>   4
Atom  21H    basis set group =>   2
Atom  22H    basis set group =>   2
------------------------------------------------------------------------------
                             ORCA STARTUP CALCULATIONS
                           -- RI-GTO INTEGRALS CHOSEN --
------------------------------------------------------------------------------
------------------------------------------------------------------------------
                   ___                                                        
                  /   \      - P O W E R E D   B Y -                         
                 /     \                                                     
                 |  |  |   _    _      __       _____    __    __             
                 |  |  |  | |  | |    /  \     |  _  \  |  |  /  |          
                  \  \/   | |  | |   /    \    | | | |  |  | /  /          
                 / \  \   | |__| |  /  /\  \   | |_| |  |  |/  /          
                |  |  |   |  __  | /  /__\  \  |    /   |      \           
                |  |  |   | |  | | |   __   |  |    \   |  |\   \          
                \     /   | |  | | |  |  |  |  | |\  \  |  | \   \       
                 \___/    |_|  |_| |__|  |__|  |_| \__\ |__|  \__/        
                                                                              
                      - O R C A' S   B I G   F R I E N D -                    
                                      &                                       
                       - I N T E G R A L  F E E D E R -                       
                                                                              
 v1 FN, 2020, v2 2021, v3 2022-2024                                           
------------------------------------------------------------------------------


----------------------
SHARK INTEGRAL PACKAGE
----------------------

Number of atoms                             ...     23
Number of basis functions                   ...    223
Number of shells                            ...    105
Maximum angular momentum                    ...      2
Integral batch strategy                     ... SHARK/LIBINT Hybrid
RI-J (if used) integral strategy            ... SPLIT-RIJ (Revised 2003 algorithm where possible)
Printlevel                                  ...      1
Contraction scheme used                     ... SEGMENTED contraction
Prescreening option                         ... SCHWARTZ
   Thresh                                   ... 2.500e-11
   Tcut                                     ... 2.500e-12
   Tpresel                                  ... 2.500e-12 
Coulomb Range Separation                    ... NOT USED
Exchange Range Separation                   ... NOT USED
Multipole approximations                    ... NOT USED
Finite Nucleus Model                        ... NOT USED
CABS basis                                  ... NOT available
Auxiliary Coulomb fitting basis             ... AVAILABLE
   # of basis functions in Aux-J            ...    709
   # of shells in Aux-J                     ...    235
   Maximum angular momentum in Aux-J        ...      4
Auxiliary J/K fitting basis                 ... NOT available
Auxiliary Correlation fitting basis         ... NOT available
Auxiliary 'external' fitting basis          ... NOT available

Checking pre-screening integrals            ... done (  0.0 sec) Dimension = 105
   => SHARK Basis and OBASIS are compatible. Storing Pre-screening
Shell pair information
Shell pair cut-off parameter TPreSel        ...   2.5e-12
Total number of shell pairs                 ...      5565
Shell pairs after pre-screening             ...      4910
Total number of primitive shell pairs       ...     28015
Primitive shell pairs kept                  ...     15660
          la=0 lb=0:   1497 shell pairs
          la=1 lb=0:   1787 shell pairs
          la=1 lb=1:    565 shell pairs
          la=2 lb=0:    615 shell pairs
          la=2 lb=1:    375 shell pairs
          la=2 lb=2:     71 shell pairs

Checking whether 4 symmetric matrices of dimension 223 fit in memory
:Max Core in MB      =   4096.00
 MB in use           =     10.08
 MB left             =   4085.92
 MB needed           =      0.76
 Data fit in memory  = YES
Calculating RI/J V-Matrix + Cholesky decomp.... done (  0.0 sec)
Calculating Nuclear repulsion               ... done (  0.0 sec) ENN=    703.130280222795 Eh

Diagonalization of the overlap matrix:
Smallest eigenvalue                        ... 4.383e-04
Time for diagonalization                   ...    0.003 sec
Threshold for overlap eigenvalues          ... 1.000e-07
Number of eigenvalues below threshold      ... 0
Time for construction of square roots      ...    0.001 sec
Total time needed                          ...    0.004 sec

-------------------
DFT GRID GENERATION
-------------------

General Integration Accuracy     IntAcc      ... 4.388
Radial Grid Type                 RadialGrid  ... OptM3 with GC (2021)
Angular Grid (max. ang.)         AngularGrid ... 4 (Lebedev-302)
Angular grid pruning method      GridPruning ... 4 (adaptive)
Weight generation scheme         WeightScheme... mBecke (2022)
Basis function cutoff            BFCut       ... 1.0000e-11
Integration weight cutoff        WCut        ... 1.0000e-14
Partially contracted basis set               ... off
Rotationally invariant grid construction     ... off
Angular grids for H and He will be reduced by one unit

Total number of grid points                  ...   107128
Total number of batches                      ...     1685
Average number of points per batch           ...       63
Average number of grid points per atom       ...     4658
Grids setup in   0.5 sec
Initializing property integral containers    ... done (  0.0 sec)

SHARK setup successfully completed in   0.6 seconds

Maximum memory used throughout the entire STARTUP-calculation: 46.0 MB
-------------------------------------------------------------------------------
                                 ORCA GUESS
                   Start orbitals & Density for SCF / CASSCF
-------------------------------------------------------------------------------

------------
SCF SETTINGS
------------
Hamiltonian:
 Density Functional     Method          .... DFT(GTOs)
 Exchange Functional    Exchange        .... B97(D)
 Correlation Functional Correlation     .... B97(D)
 Gradients option       PostSCFGGA      .... off
 RI-approximation to the Coulomb term is turned on
   Number of AuxJ basis functions       .... 709


General Settings:
 Integral files         IntName         .... 2
 Hartree-Fock type      HFTyp           .... RHF
 Total Charge           Charge          ....    0
 Multiplicity           Mult            ....    1
 Number of Electrons    NEL             ....   88
 Basis Dimension        Dim             ....  223
 Nuclear Repulsion      ENuc            ....    703.1302802228 Eh

Convergence Acceleration:
 AO-DIIS                CNVDIIS         .... on
   Start iteration      DIISMaxIt       ....    12
   Startup error        DIISStart       ....  0.200000
   # of expansion vecs  DIISMaxEq       ....     5
   Bias factor          DIISBfac        ....   1.050
   Max. coefficient     DIISMaxC        ....  10.000
 MO-DIIS                CNVKDIIS        .... off
 Trust-Rad. Augm. Hess. CNVTRAH         .... auto
   Auto Start mean grad. ratio tolernc. ....  1.125000
   Auto Start start iteration           ....    50
   Auto Start num. interpolation iter.  ....    10
   Max. Number of Micro iterations      ....    24
   Max. Number of Macro iterations      .... Maxiter - #DIIS iter
   Number of Davidson start vectors     ....     2
   Converg. threshold    (grad. norm)   ....   1.000e-05
   Grad. Scal. Fac. for Micro threshold ....   0.100
   Minimum threshold for Micro iter.    ....   1.000e-02
   NR start threshold (gradient norm)   ....   1.000e-04
   Initial trust radius                 ....   0.400
   Minimum AH scaling param. (alpha)    ....   1.000
   Maximum AH scaling param. (alpha)    .... 1000.000
   Quad. conv. algorithm                .... NR
   White noise on init. David. guess    .... on
   Maximum white noise                  ....   0.010
   Pseudo random numbers                .... off
   Inactive MOs                         .... canonical
   Orbital update algorithm             .... Taylor
   Preconditioner                       .... Diag
   Full preconditioner red. dimension   ....   250
 SOSCF                 CNVSOSCF           .... on
   Start iteration     SOSCFMaxIt         ....   150
   Startup grad/error  SOSCFStart         ....  0.003300
   Hessian update      SOSCFHessUp        .... L-BFGS
   Autom. constraints  SOSCFAutoConstrain .... off
 Level Shifting         CNVShift        .... on
   Level shift para.    LevelShift      ....    0.2500
   Turn off err/grad.   ShiftErr        ....    0.0010
 Zerner damping         CNVZerner       .... off
 Static damping         CNVDamp         .... on
   Fraction old density DampFac         ....    0.7000
   Max. Damping (<1)    DampMax         ....    0.9800
   Min. Damping (>=0)   DampMin         ....    0.0000
   Turn off err/grad.   DampErr         ....    0.1000

SCF Procedure:
 Maximum # iterations   MaxIter         ....   125
 SCF integral mode      SCFMode         .... Direct
   Integral package                     .... SHARK and LIBINT hybrid scheme
 Reset frequency        DirectResetFreq ....    20
 Integral Threshold     Thresh          ....  2.500e-11 Eh
 Primitive CutOff       TCut            ....  2.500e-12 Eh

Convergence Tolerance:
 Convergence Check Mode ConvCheckMode   .... Total+1el-Energy
 Convergence forced     ConvForced      .... 0
 Energy Change          TolE            ....  1.000e-08 Eh
 1-El. energy change                    ....  1.000e-05 Eh
 Orbital Gradient       TolG            ....  1.000e-05
 Orbital Rotation angle TolX            ....  1.000e-05
 DIIS Error             TolErr          ....  5.000e-07

------------------------------
INITIAL GUESS: MODEL POTENTIAL
------------------------------
Loading Hartree-Fock densities                     ... done
Calculating cut-offs                               ... done
Initializing the effective Hamiltonian             ... done
Setting up the integral package (SHARK)            ... done
Starting the Coulomb interaction                   ... done (   0.1 sec)
Making the grid                                    ... done (   0.1 sec)
Mapping shells                                     ... done
Starting the XC term evaluation                    ... done (   0.1 sec)
  promolecular density results
     # of electrons  =     87.991751110
     EX              =    -71.439278481
     EC              =     -3.856418711
     EX+EC           =    -75.295697192
Transforming the Hamiltonian                       ... done (   0.0 sec)
Diagonalizing the Hamiltonian                      ... done (   0.0 sec)
Back transforming the eigenvectors                 ... done (   0.0 sec)
Now organizing SCF variables                       ... done
                      ------------------
                      INITIAL GUESS DONE (   0.4 sec)
                      ------------------
             **** ENERGY FILE WAS UPDATED (2.en.tmp) ****
Finished Guess after   0.4 sec
Maximum memory used throughout the entire GUESS-calculation: 16.5 MB

-------------------------------------------------------------------------------------------
                                      ORCA LEAN-SCF
                              memory conserving SCF solver
-------------------------------------------------------------------------------------------

----------------------------------------D-I-I-S--------------------------------------------
Iteration    Energy (Eh)           Delta-E    RMSDP     MaxDP     DIISErr   Damp  Time(sec)
-------------------------------------------------------------------------------------------
               ***  Starting incremental Fock matrix formation  ***
    1    -554.0334196025783058     0.00e+00  3.05e-03  1.09e-01  2.61e-01  0.700   0.8
    2    -554.2058154711824045    -1.72e-01  2.01e-03  5.91e-02  9.48e-02  0.700   0.7
                               ***Turning on AO-DIIS***
    3    -554.2626371441745050    -5.68e-02  7.89e-04  1.63e-02  2.36e-02  0.700   0.7
    4    -554.2988057718871460    -3.62e-02  1.12e-03  2.06e-02  1.20e-02  0.000   0.7
    5    -554.3810079447634962    -8.22e-02  3.41e-04  9.04e-03  6.97e-03  0.000   0.7
    6    -554.3817296745153271    -7.22e-04  1.26e-04  2.72e-03  3.37e-03  0.000   0.7
                              *** Initializing SOSCF ***
---------------------------------------S-O-S-C-F--------------------------------------
Iteration    Energy (Eh)           Delta-E    RMSDP     MaxDP     MaxGrad    Time(sec)
--------------------------------------------------------------------------------------
    7    -554.3817876739319672    -5.80e-05  4.15e-05  1.01e-03  1.37e-03     0.7
               *** Restarting incremental Fock matrix formation ***
    8    -554.3817954733103761    -7.80e-06  2.37e-05  6.18e-04  8.70e-05     0.8
    9    -554.3817952680396957     2.05e-07  1.12e-05  2.86e-04  1.49e-04     0.6
   10    -554.3817960678500185    -8.00e-07  9.16e-06  2.51e-04  7.22e-05     0.6
   11    -554.3817959488569613     1.19e-07  5.05e-06  1.54e-04  9.16e-05     0.6
   12    -554.3817961511888370    -2.02e-07  2.62e-06  5.81e-05  9.55e-06     0.6
   13    -554.3817961373526941     1.38e-08  1.39e-06  3.76e-05  2.22e-05     0.6
   14    -554.3817961554761951    -1.81e-08  1.39e-06  3.18e-05  9.00e-06     0.6
   15    -554.3817961582888074    -2.81e-09  8.15e-07  1.95e-05  7.62e-06     0.6
                 **** Energy Check signals convergence ****

               *****************************************************
               *                     SUCCESS                       *
               *           SCF CONVERGED AFTER  15 CYCLES          *
               *****************************************************

             **** ENERGY FILE WAS UPDATED (2.en.tmp) ****

----------------
TOTAL SCF ENERGY
----------------

Total Energy       :       -554.38179615989543 Eh          -15085.49561 eV

Components:
Nuclear Repulsion  :        703.13028022279536 Eh           19133.14764 eV
Electronic Energy  :      -1257.51207638269079 Eh          -34218.64324 eV
One Electron Energy:      -2148.91815520479258 Eh          -58475.03582 eV
Two Electron Energy:        891.40607882210179 Eh           24256.39258 eV

Virial components:
Potential Energy   :      -1106.06009961058771 Eh          -30097.42543 eV
Kinetic Energy     :        551.67830345069240 Eh           15011.92983 eV
Virial Ratio       :          2.00490048764342

DFT components:
N(Alpha)           :       43.999985215321 electrons
N(Beta)            :       43.999985215321 electrons
N(Total)           :       87.999970430641 electrons
E(X)               :      -73.002690832864 Eh       
E(C)               :       -3.856777756674 Eh       
E(XC)              :      -76.859468589538 Eh       

---------------
SCF CONVERGENCE
---------------

  Last Energy change         ...    2.8126e-09  Tolerance :   1.0000e-08
  Last MAX-Density change    ...    1.9545e-05  Tolerance :   1.0000e-07
  Last RMS-Density change    ...    8.1528e-07  Tolerance :   5.0000e-09
  Last DIIS Error            ...    1.3724e-03  Tolerance :   5.0000e-07
  Last Orbital Gradient      ...    7.6151e-06  Tolerance :   1.0000e-05
  Last Orbital Rotation      ...    1.1062e-05  Tolerance :   1.0000e-05


----------------
ORBITAL ENERGIES
----------------

  NO   OCC          E(Eh)            E(eV) 
   0   2.0000     -18.812798      -511.9223 
   1   2.0000     -18.749701      -510.2053 
   2   2.0000     -13.985164      -380.5557 
   3   2.0000     -10.025884      -272.8182 
   4   2.0000      -9.949699      -270.7451 
   5   2.0000      -9.913418      -269.7578 
   6   2.0000      -9.912743      -269.7395 
   7   2.0000      -9.907317      -269.5918 
   8   2.0000      -9.906943      -269.5816 
   9   2.0000      -9.906020      -269.5565 
  10   2.0000      -9.904880      -269.5255 
  11   2.0000      -9.903682      -269.4929 
  12   2.0000      -1.018978       -27.7278 
  13   2.0000      -0.928843       -25.2751 
  14   2.0000      -0.819234       -22.2925 
  15   2.0000      -0.781336       -21.2612 
  16   2.0000      -0.709035       -19.2938 
  17   2.0000      -0.675707       -18.3869 
  18   2.0000      -0.654288       -17.8041 
  19   2.0000      -0.603650       -16.4261 
  20   2.0000      -0.551232       -14.9998 
  21   2.0000      -0.545437       -14.8421 
  22   2.0000      -0.515163       -14.0183 
  23   2.0000      -0.460315       -12.5258 
  24   2.0000      -0.451520       -12.2865 
  25   2.0000      -0.447627       -12.1805 
  26   2.0000      -0.414965       -11.2918 
  27   2.0000      -0.406784       -11.0692 
  28   2.0000      -0.404735       -11.0134 
  29   2.0000      -0.387643       -10.5483 
  30   2.0000      -0.372757       -10.1432 
  31   2.0000      -0.368937       -10.0393 
  32   2.0000      -0.351507        -9.5650 
  33   2.0000      -0.337864        -9.1938 
  34   2.0000      -0.333984        -9.0882 
  35   2.0000      -0.323386        -8.7998 
  36   2.0000      -0.311382        -8.4731 
  37   2.0000      -0.292853        -7.9689 
  38   2.0000      -0.288137        -7.8406 
  39   2.0000      -0.268302        -7.3009 
  40   2.0000      -0.240613        -6.5474 
  41   2.0000      -0.220186        -5.9916 
  42   2.0000      -0.213976        -5.8226 
  43   2.0000      -0.183805        -5.0016 
  44   0.0000      -0.029501        -0.8028 
  45   0.0000      -0.024667        -0.6712 
  46   0.0000      -0.011338        -0.3085 
  47   0.0000       0.050393         1.3713 
  48   0.0000       0.073503         2.0001 
  49   0.0000       0.089182         2.4268 
  50   0.0000       0.101601         2.7647 
  51   0.0000       0.115067         3.1311 
  52   0.0000       0.133485         3.6323 
  53   0.0000       0.136813         3.7229 
  54   0.0000       0.148108         4.0302 
*Only the first 10 virtual orbitals were printed.

                    ********************************
                    * MULLIKEN POPULATION ANALYSIS *
                    ********************************

-----------------------
MULLIKEN ATOMIC CHARGES
-----------------------
   0 C :   -0.087721
   1 C :   -0.090129
   2 C :   -0.124073
   3 H :    0.089633
   4 H :    0.105745
   5 C :   -0.132869
   6 C :   -0.242293
   7 H :    0.089874
   8 C :    0.082118
   9 H :    0.088208
  10 C :   -0.094712
  11 H :    0.098439
  12 C :   -0.051878
  13 H :    0.125583
  14 H :    0.129245
  15 C :    0.509100
  16 H :    0.318085
  17 N :   -0.562280
  18 O :   -0.455424
  19 H :    0.243193
  20 O :   -0.424337
  21 H :    0.135745
  22 H :    0.250748
Sum of atomic charges:    0.0000000

--------------------------------
MULLIKEN REDUCED ORBITAL CHARGES
--------------------------------
  0 C s       :     3.176396  s :     3.176396
      pz      :     0.932167  p :     2.876644
      px      :     0.974221
      py      :     0.970255
      dz2     :     0.009830  d :     0.034681
      dxz     :     0.008096
      dyz     :     0.008912
      dx2y2   :     0.002671
      dxy     :     0.005171

  1 C s       :     3.180169  s :     3.180169
      pz      :     0.958619  p :     2.875100
      px      :     0.960894
      py      :     0.955586
      dz2     :     0.010364  d :     0.034861
      dxz     :     0.005656
      dyz     :     0.007251
      dx2y2   :     0.006291
      dxy     :     0.005299

  2 C s       :     3.187178  s :     3.187178
      pz      :     0.975989  p :     2.902330
      px      :     0.964236
      py      :     0.962105
      dz2     :     0.010140  d :     0.034565
      dxz     :     0.005712
      dyz     :     0.007352
      dx2y2   :     0.006073
      dxy     :     0.005288

  3 H s       :     0.897940  s :     0.897940
      pz      :     0.004477  p :     0.012426
      px      :     0.004026
      py      :     0.003923

  4 H s       :     0.881640  s :     0.881640
      pz      :     0.007089  p :     0.012615
      px      :     0.002823
      py      :     0.002703

  5 C s       :     3.193528  s :     3.193528
      pz      :     0.959574  p :     2.904643
      px      :     0.971987
      py      :     0.973082
      dz2     :     0.008320  d :     0.034699
      dxz     :     0.008231
      dyz     :     0.009489
      dx2y2   :     0.004016
      dxy     :     0.004643

  6 C s       :     3.237655  s :     3.237655
      pz      :     1.048638  p :     2.968326
      px      :     0.934668
      py      :     0.985021
      dz2     :     0.005561  d :     0.036312
      dxz     :     0.005322
      dyz     :     0.009735
      dx2y2   :     0.007455
      dxy     :     0.008240

  7 H s       :     0.897691  s :     0.897691
      pz      :     0.006993  p :     0.012435
      px      :     0.002704
      py      :     0.002739

  8 C s       :     3.139767  s :     3.139767
      pz      :     0.891978  p :     2.736547
      px      :     0.944005
      py      :     0.900564
      dz2     :     0.010499  d :     0.041568
      dxz     :     0.009165
      dyz     :     0.010637
      dx2y2   :     0.005603
      dxy     :     0.005663

  9 H s       :     0.899335  s :     0.899335
      pz      :     0.002658  p :     0.012457
      px      :     0.004517
      py      :     0.005282

 10 C s       :     3.182161  s :     3.182161
      pz      :     0.937676  p :     2.877681
      px      :     0.973497
      py      :     0.966508
      dz2     :     0.008231  d :     0.034870
      dxz     :     0.008372
      dyz     :     0.009493
      dx2y2   :     0.004096
      dxy     :     0.004678

 11 H s       :     0.889045  s :     0.889045
      pz      :     0.004385  p :     0.012516
      px      :     0.004128
      py      :     0.004003

 12 C s       :     3.203733  s :     3.203733
      pz      :     0.850052  p :     2.790571
      px      :     0.969235
      py      :     0.971284
      dz2     :     0.012813  d :     0.057573
      dxz     :     0.011431
      dyz     :     0.016832
      dx2y2   :     0.006799
      dxy     :     0.009698

 13 H s       :     0.862851  s :     0.862851
      pz      :     0.004580  p :     0.011566
      px      :     0.002447
      py      :     0.004539

 14 H s       :     0.859224  s :     0.859224
      pz      :     0.005556  p :     0.011531
      px      :     0.002844
      py      :     0.003131

 15 C s       :     2.993843  s :     2.993843
      pz      :     0.825254  p :     2.372364
      px      :     0.779721
      py      :     0.767389
      dz2     :     0.029780  d :     0.124694
      dxz     :     0.019224
      dyz     :     0.046694
      dx2y2   :     0.013855
      dxy     :     0.015140

 16 H s       :     0.643982  s :     0.643982
      pz      :     0.015118  p :     0.037933
      px      :     0.009393
      py      :     0.013422

 17 N s       :     3.580052  s :     3.580052
      pz      :     1.341056  p :     3.954009
      px      :     1.132923
      py      :     1.480029
      dz2     :     0.007417  d :     0.028220
      dxz     :     0.004896
      dyz     :     0.004250
      dx2y2   :     0.003137
      dxy     :     0.008520

 18 O s       :     3.823684  s :     3.823684
      pz      :     1.602654  p :     4.608768
      px      :     1.759857
      py      :     1.246257
      dz2     :     0.004241  d :     0.022972
      dxz     :     0.002839
      dyz     :     0.009630
      dx2y2   :     0.003127
      dxy     :     0.003134

 19 H s       :     0.732884  s :     0.732884
      pz      :     0.005726  p :     0.023923
      px      :     0.010873
      py      :     0.007324

 20 O s       :     3.859357  s :     3.859357
      pz      :     1.366415  p :     4.536947
      px      :     1.413641
      py      :     1.756891
      dz2     :     0.009696  d :     0.028032
      dxz     :     0.009551
      dyz     :     0.007153
      dx2y2   :     0.000851
      dxy     :     0.000781

 21 H s       :     0.853377  s :     0.853377
      pz      :     0.002584  p :     0.010878
      px      :     0.003580
      py      :     0.004715

 22 H s       :     0.724961  s :     0.724961
      pz      :     0.007455  p :     0.024290
      px      :     0.007122
      py      :     0.009713



                     *******************************
                     * LOEWDIN POPULATION ANALYSIS *
                     *******************************

----------------------
LOEWDIN ATOMIC CHARGES
----------------------
   0 C :   -0.075327
   1 C :   -0.071372
   2 C :   -0.077556
   3 H :    0.072918
   4 H :    0.078253
   5 C :   -0.082272
   6 C :   -0.108045
   7 H :    0.073087
   8 C :   -0.021391
   9 H :    0.072424
  10 C :   -0.070806
  11 H :    0.075275
  12 C :   -0.043557
  13 H :    0.083162
  14 H :    0.084286
  15 C :    0.103104
  16 H :    0.181602
  17 N :   -0.251045
  18 O :   -0.138382
  19 H :    0.126000
  20 O :   -0.225051
  21 H :    0.088478
  22 H :    0.126217

-------------------------------
LOEWDIN REDUCED ORBITAL CHARGES
-------------------------------
  0 C s       :     2.896157  s :     2.896157
      pz      :     1.062426  p :     3.092926
      px      :     1.009943
      py      :     1.020557
      dz2     :     0.027658  d :     0.086244
      dxz     :     0.020461
      dyz     :     0.022952
      dx2y2   :     0.004923
      dxy     :     0.010250

  1 C s       :     2.896472  s :     2.896472
      pz      :     1.051489  p :     3.088183
      px      :     1.010869
      py      :     1.025825
      dz2     :     0.024386  d :     0.086718
      dxz     :     0.014572
      dyz     :     0.018931
      dx2y2   :     0.014045
      dxy     :     0.014784

  2 C s       :     2.896958  s :     2.896958
      pz      :     1.053925  p :     3.094713
      px      :     1.015121
      py      :     1.025666
      dz2     :     0.023883  d :     0.085886
      dxz     :     0.014659
      dyz     :     0.018979
      dx2y2   :     0.013328
      dxy     :     0.015037

  3 H s       :     0.886408  s :     0.886408
      pz      :     0.015326  p :     0.040673
      px      :     0.012750
      py      :     0.012597

  4 H s       :     0.879805  s :     0.879805
      pz      :     0.026306  p :     0.041942
      px      :     0.007735
      py      :     0.007900

  5 C s       :     2.897235  s :     2.897235
      pz      :     1.052785  p :     3.098888
      px      :     1.016572
      py      :     1.029530
      dz2     :     0.022646  d :     0.086148
      dxz     :     0.019897
      dyz     :     0.024049
      dx2y2   :     0.008371
      dxy     :     0.011184

  6 C s       :     2.896880  s :     2.896880
      pz      :     1.078460  p :     3.130012
      px      :     1.007411
      py      :     1.044141
      dz2     :     0.012273  d :     0.081153
      dxz     :     0.011241
      dyz     :     0.020875
      dx2y2   :     0.016870
      dxy     :     0.019894

  7 H s       :     0.886214  s :     0.886214
      pz      :     0.025318  p :     0.040699
      px      :     0.007510
      py      :     0.007871

  8 C s       :     2.874163  s :     2.874163
      pz      :     1.065979  p :     3.042697
      px      :     0.982516
      py      :     0.994202
      dz2     :     0.029922  d :     0.104530
      dxz     :     0.023269
      dyz     :     0.027000
      dx2y2   :     0.010923
      dxy     :     0.013415

  9 H s       :     0.886813  s :     0.886813
      pz      :     0.008159  p :     0.040763
      px      :     0.014663
      py      :     0.017942

 10 C s       :     2.896510  s :     2.896510
      pz      :     1.057928  p :     3.087566
      px      :     1.007841
      py      :     1.021797
      dz2     :     0.022793  d :     0.086730
      dxz     :     0.020158
      dyz     :     0.024097
      dx2y2   :     0.008594
      dxy     :     0.011088

 11 H s       :     0.883079  s :     0.883079
      pz      :     0.015490  p :     0.041646
      px      :     0.013072
      py      :     0.013084

 12 C s       :     2.885421  s :     2.885421
      pz      :     0.965010  p :     3.027215
      px      :     1.025959
      py      :     1.036246
      dz2     :     0.028970  d :     0.130921
      dxz     :     0.024391
      dyz     :     0.041039
      dx2y2   :     0.015129
      dxy     :     0.021391

 13 H s       :     0.876655  s :     0.876655
      pz      :     0.016592  p :     0.040183
      px      :     0.007075
      py      :     0.016516

 14 H s       :     0.875442  s :     0.875442
      pz      :     0.020944  p :     0.040272
      px      :     0.009172
      py      :     0.010157

 15 C s       :     2.861788  s :     2.861788
      pz      :     1.025440  p :     2.737311
      px      :     0.791504
      py      :     0.920366
      dz2     :     0.072723  d :     0.297798
      dxz     :     0.041597
      dyz     :     0.117067
      dx2y2   :     0.033913
      dxy     :     0.032498

 16 H s       :     0.702365  s :     0.702365
      pz      :     0.048722  p :     0.116033
      px      :     0.026771
      py      :     0.040540

 17 N s       :     3.188727  s :     3.188727
      pz      :     1.362772  p :     4.004270
      px      :     1.159420
      py      :     1.482077
      dz2     :     0.015728  d :     0.058049
      dxz     :     0.012386
      dyz     :     0.008460
      dx2y2   :     0.006647
      dxy     :     0.014828

 18 O s       :     3.471260  s :     3.471260
      pz      :     1.605549  p :     4.616033
      px      :     1.723834
      py      :     1.286650
      dz2     :     0.007421  d :     0.051088
      dxz     :     0.002881
      dyz     :     0.022015
      dx2y2   :     0.011837
      dxy     :     0.006935

 19 H s       :     0.794845  s :     0.794845
      pz      :     0.017189  p :     0.079156
      px      :     0.039249
      py      :     0.022718

 20 O s       :     3.552906  s :     3.552906
      pz      :     1.468237  p :     4.613836
      px      :     1.409015
      py      :     1.736584
      dz2     :     0.025759  d :     0.058309
      dxz     :     0.015158
      dyz     :     0.014652
      dx2y2   :     0.001370
      dxy     :     0.001369

 21 H s       :     0.872773  s :     0.872773
      pz      :     0.007965  p :     0.038749
      px      :     0.012978
      py      :     0.017806

 22 H s       :     0.792495  s :     0.792495
      pz      :     0.023558  p :     0.081288
      px      :     0.022497
      py      :     0.035234



                      *****************************
                      * MAYER POPULATION ANALYSIS *
                      *****************************

  NA   - Mulliken gross atomic population
  ZA   - Total nuclear charge
  QA   - Mulliken gross atomic charge
  VA   - Mayer's total valence
  BVA  - Mayer's bonded valence
  FA   - Mayer's free valence

  ATOM       NA         ZA         QA         VA         BVA        FA
  0 C      6.0877     6.0000    -0.0877     3.9478     3.9478     0.0000
  1 C      6.0901     6.0000    -0.0901     3.9390     3.9390     0.0000
  2 C      6.1241     6.0000    -0.1241     3.9372     3.9372     0.0000
  3 H      0.9104     1.0000     0.0896     0.9564     0.9564     0.0000
  4 H      0.8943     1.0000     0.1057     0.9649     0.9649    -0.0000
  5 C      6.1329     6.0000    -0.1329     3.9381     3.9381     0.0000
  6 C      6.2423     6.0000    -0.2423     3.8751     3.8751    -0.0000
  7 H      0.9101     1.0000     0.0899     0.9562     0.9562     0.0000
  8 C      5.9179     6.0000     0.0821     3.9907     3.9907    -0.0000
  9 H      0.9118     1.0000     0.0882     0.9564     0.9564    -0.0000
 10 C      6.0947     6.0000    -0.0947     3.9414     3.9414     0.0000
 11 H      0.9016     1.0000     0.0984     0.9616     0.9616    -0.0000
 12 C      6.0519     6.0000    -0.0519     3.8825     3.8825    -0.0000
 13 H      0.8744     1.0000     0.1256     0.9561     0.9561    -0.0000
 14 H      0.8708     1.0000     0.1292     0.9537     0.9537     0.0000
 15 C      5.4909     6.0000     0.5091     3.9417     3.9417    -0.0000
 16 H      0.6819     1.0000     0.3181     0.9190     0.9190    -0.0000
 17 N      7.5623     7.0000    -0.5623     2.8879     2.8879     0.0000
 18 O      8.4554     8.0000    -0.4554     2.0589     2.0589     0.0000
 19 H      0.7568     1.0000     0.2432     0.9224     0.9224     0.0000
 20 O      8.4243     8.0000    -0.4243     2.0846     2.0846    -0.0000
 21 H      0.8643     1.0000     0.1357     0.9473     0.9473    -0.0000
 22 H      0.7493     1.0000     0.2507     0.9334     0.9334     0.0000

  Mayer bond orders larger than 0.100000
B(  0-C ,  1-C ) :   1.4481 B(  0-C ,  9-H ) :   0.9398 B(  0-C , 10-C ) :   1.4432 
B(  1-C ,  5-C ) :   1.4269 B(  1-C ,  7-H ) :   0.9382 B(  2-C ,  4-H ) :   0.9274 
B(  2-C ,  8-C ) :   1.4253 B(  2-C , 10-C ) :   1.4342 B(  3-H , 10-C ) :   0.9383 
B(  5-C ,  8-C ) :   1.4267 B(  5-C , 11-H ) :   0.9311 B(  6-C ,  8-C ) :   1.0012 
B(  6-C , 12-C ) :   0.9592 B(  6-C , 13-H ) :   0.9334 B(  6-C , 14-H ) :   0.9341 
B( 12-C , 15-C ) :   0.9016 B( 12-C , 17-N ) :   1.0446 B( 12-C , 21-H ) :   0.9283 
B( 15-C , 18-O ) :   1.0964 B( 15-C , 20-O ) :   1.8851 B( 16-H , 18-O ) :   0.8524 
B( 17-N , 19-H ) :   0.9089 B( 17-N , 22-H ) :   0.8854 

-------
TIMINGS
-------

Total SCF time: 0 days 0 hours 0 min 10 sec 

Total time                  ....      10.776 sec
Sum of individual times     ....      10.139 sec  ( 94.1%)

SCF preparation             ....       0.031 sec  (  0.3%)
Fock matrix formation       ....       9.995 sec  ( 92.7%)
  Startup                   ....       0.001 sec  (  0.0% of F)
  Split-RI-J                ....       3.971 sec  ( 39.7% of F)
  XC integration            ....       6.572 sec  ( 65.8% of F)
    XC Preparation          ....       0.000 sec  (  0.0% of XC)
    Basis function eval.    ....       2.351 sec  ( 35.8% of XC)
    Density eval.           ....       1.534 sec  ( 23.3% of XC)
    XC-Functional eval.     ....       1.048 sec  ( 15.9% of XC)
    XC-Potential eval.      ....       1.486 sec  ( 22.6% of XC)
Diagonalization             ....       0.000 sec  (  0.0%)
Density matrix formation    ....       0.007 sec  (  0.1%)
Total Energy calculation    ....       0.001 sec  (  0.0%)
Population analysis         ....       0.003 sec  (  0.0%)
Orbital Transformation      ....       0.026 sec  (  0.2%)
Orbital Orthonormalization  ....       0.000 sec  (  0.0%)
DIIS solution               ....       0.045 sec  (  0.4%)
SOSCF solution              ....       0.031 sec  (  0.3%)
Finished LeanSCF after  10.8 sec

Maximum memory used throughout the entire LEANSCF-calculation: 25.9 MB



-------------------------------------------------------------------------------
                          DFT DISPERSION CORRECTION                            
-------------------------------------------------------------------------------
Active option DFTDOPT                   ...         2   
Final C6-coefficient scaling factor     ...     1.250
Final VDW-radii scaling factor          ...     1.100
Damping factor alpha                    ...    20.000
-------------------------   ----------------
Dispersion correction           -0.034620654
-------------------------   ----------------


-------------------------   --------------------
FINAL SINGLE POINT ENERGY      -554.416416814009
-------------------------   --------------------

------------------------------------------------------------------------------
                         ORCA SCF GRADIENT CALCULATION
------------------------------------------------------------------------------

Nuc. rep. gradient        (SHARK) ... done (  0.0 sec)
HCore & Overlap gradient  (SHARK) ... done (  0.2 sec)
Split-RIJ-J gradient      (SHARK) ... done (  1.0 sec)
XC gradient                       ... done (  3.6 sec)
Dispersion correction             ... done (  0.0 sec)

-------------------
DISPERSION GRADIENT
-------------------

   1   C   :    0.000430060    0.000666003    0.000235858
   2   C   :   -0.000278560    0.000043709    0.000786148
   3   C   :   -0.001717446   -0.000684068   -0.001137209
   4   H   :   -0.000046848   -0.000019853   -0.000023390
   5   H   :   -0.001174915   -0.000355000    0.000047266
   6   C   :   -0.001758498   -0.000929352   -0.000245607
   7   C   :    0.000592296    0.000493584    0.000127685
   8   H   :   -0.000036123   -0.000018502   -0.000007033
   9   C   :   -0.000452388    0.000196734    0.000033242
  10   H   :    0.000004977    0.000014202    0.000002538
  11   C   :    0.000077813    0.000351354   -0.000788315
  12   H   :   -0.000772278   -0.000131512   -0.000749957
  13   C   :    0.000166430    0.000279277    0.000148362
  14   H   :   -0.000400886    0.000435900    0.000930381
  15   H   :   -0.000066979    0.000913722   -0.000975350
  16   C   :    0.000627765    0.000351829    0.000052824
  17   H   :    0.000093132    0.000139283    0.000457757
  18   N   :    0.000779538   -0.000208239    0.001241919
  19   O   :    0.000867384   -0.000285909    0.000499175
  20   H   :    0.000458698   -0.000080708   -0.000843208
  21   O   :    0.000941137   -0.000976524    0.000759496
  22   H   :    0.000279269    0.000068179   -0.000006308
  23   H   :    0.001386424   -0.000264109   -0.000546273

Difference to translation invariance:
           :    0.0000000000   -0.0000000000    0.0000000000

Difference to rotation invariance:
           :   -0.0000000000    0.0000000000    0.0000000000

Norm of the Dispersion gradient    ...    0.0052241408
RMS gradient                       ...    0.0006289126
MAX gradient                       ...    0.0017584978

------------------
CARTESIAN GRADIENT
------------------

   1   C   :    0.006921293    0.008770750    0.003590587
   2   C   :    0.000744871    0.002891912    0.011288152
   3   C   :    0.000808659   -0.001724738   -0.010245987
   4   H   :    0.004104500    0.003896189   -0.005184004
   5   H   :   -0.001382224   -0.001820628   -0.006752412
   6   C   :   -0.004664884   -0.005118640    0.007111674
   7   C   :   -0.000181468    0.000479548   -0.001641927
   8   H   :    0.000729481    0.001419901    0.007510069
   9   C   :   -0.003442504   -0.010813551   -0.002237103
  10   H   :    0.004762394    0.005570717    0.002441583
  11   C   :    0.005251802    0.005933341   -0.007610243
  12   H   :   -0.004341676   -0.004424642    0.004540273
  13   C   :   -0.002715469    0.000996127    0.003390093
  14   H   :   -0.001362944   -0.004784152    0.002993073
  15   H   :    0.001370800   -0.002559279   -0.004370164
  16   C   :   -0.006204797   -0.001632772    0.006327945
  17   H   :    0.002152543   -0.002356943   -0.006545133
  18   N   :   -0.003187035   -0.008567685    0.012383749
  19   O   :   -0.006200601    0.018357475    0.019288174
  20   H   :   -0.002012072    0.002924751   -0.001136459
  21   O   :    0.008659090   -0.009835356   -0.032083345
  22   H   :   -0.000543169   -0.001144344   -0.002972215
  23   H   :    0.000733409    0.003542021   -0.000086380

Difference to translation invariance:
           :   -0.0000000000    0.0000000000   -0.0000000000

Difference to rotation invariance:
           :   -0.0001469867    0.0001424951    0.0001281762

Norm of the Cartesian gradient     ...    0.0588578651
RMS gradient                       ...    0.0070856543
MAX gradient                       ...    0.0320833449

-------
TIMINGS
-------

Total SCF gradient time     ....        4.757 sec

Densities                   ....       0.000 sec  (  0.0%)
One electron gradient       ....       0.190 sec  (  4.0%)
RI-J Coulomb gradient       ....       0.992 sec  ( 20.8%)
XC gradient                 ....       3.574 sec  ( 75.1%)

Maximum memory used throughout the entire SCFGRAD-calculation: 32.8 MB
------------------------------------------------------------------------------
                         ORCA GEOMETRY RELAXATION STEP
------------------------------------------------------------------------------

Reading the OPT-File                    .... done
Getting information on internals        .... done
Copying old internal coords+grads       .... done
Making the new internal coordinates     .... (2022 redundants) done
Validating the new internal coordinates .... (2022 redundants) done
Calculating the B-matrix                .... done
Calculating the G,G- and P matrices     .... done
Transforming gradient to internals      .... done
Projecting the internal gradient        .... done
Number of atoms                         ....  23
Number of internal coordinates          .... 107
Current Energy                          ....  -554.416416814 Eh
Current gradient norm                   ....     0.058857865 Eh/bohr
Maximum allowed component of the step   ....  0.300
Current trust radius                    ....  0.300
Evaluating the initial hessian          ....  (Almloef) done
Projecting the Hessian                  .... done
Forming the augmented Hessian           .... done
Diagonalizing the augmented Hessian     .... done
Last element of RFO vector              ....  0.980360025
Lowest eigenvalues of augmented Hessian:
 -0.009237152  0.010184788  0.010811786  0.012660364  0.017290337
Length of the computed step             ....  0.201167096
The final length of the internal step   ....  0.201167096
Converting the step to Cartesian space:
 Initial RMS(Int)=    0.0194475572
Transforming coordinates:
 Iter   0:  RMS(Cart)=    0.0906362548 RMS(Int)=    1.2143991349
 Iter   5:  RMS(Cart)=    0.0000000403 RMS(Int)=    0.0000000275
done
Storing new coordinates                 .... done

                                .--------------------.
          ----------------------|Geometry convergence|-------------------------
          Item                value                   Tolerance       Converged
          ---------------------------------------------------------------------
          RMS gradient        0.0068463375            0.0001000000      NO
          MAX gradient        0.0344138412            0.0003000000      NO
          RMS step            0.0194475572            0.0020000000      NO
          MAX step            0.0725796343            0.0040000000      NO
          -------------------------------------------------------------------------
          ........................................................
          Max(Bonds)      0.0167      Max(Angles)    1.79
          Max(Dihed)        4.16      Max(Improp)    0.00
          ---------------------------------------------------------------------

The optimization has not yet converged - more geometry cycles are needed


    ---------------------------------------------------------------------------
                         Redundant Internal Coordinates
                            (Angstroem and degrees)

        Definition                    Value    dE/dq     Step     New-Value
    ----------------------------------------------------------------------------
     1. B(C   1,C   0)                1.3842 -0.018890  0.0155    1.3996   
     2. B(H   4,C   2)                1.0808 -0.007072  0.0098    1.0907   
     3. B(C   5,C   1)                1.3841 -0.019349  0.0158    1.4000   
     4. B(H   7,C   1)                1.0803 -0.007676  0.0106    1.0910   
     5. B(C   8,C   5)                1.3897 -0.018638  0.0155    1.4052   
     6. B(C   8,C   6)                1.5025 -0.010621  0.0133    1.5158   
     7. B(C   8,C   2)                1.3900 -0.018624  0.0155    1.4055   
     8. B(H   9,C   0)                1.0800 -0.007723  0.0107    1.0907   
     9. B(C  10,H   3)                1.0804 -0.007673  0.0106    1.0910   
    10. B(C  10,C   2)                1.3836 -0.018898  0.0154    1.3990   
    11. B(C  10,C   0)                1.3847 -0.019163  0.0157    1.4004   
    12. B(H  11,C   5)                1.0805 -0.007642  0.0106    1.0911   
    13. B(C  12,C   6)                1.5475 -0.009590  0.0141    1.5616   
    14. B(H  13,C   6)                1.0901 -0.005610  0.0080    1.0981   
    15. B(H  14,C   6)                1.0906 -0.005217  0.0075    1.0981   
    16. B(C  15,C  12)                1.5257 -0.012234  0.0167    1.5423   
    17. B(N  17,C  12)                1.4459 -0.010781  0.0123    1.4582   
    18. B(O  18,H  16)                0.9698 -0.003422  0.0035    0.9733   
    19. B(O  18,C  15)                1.3398 -0.019900  0.0154    1.3552   
    20. B(H  19,N  17)                1.0138 -0.003104  0.0038    1.0176   
    21. B(O  20,C  15)                1.2021 -0.034414  0.0162    1.2183   
    22. B(H  21,C  12)                1.0972 -0.002275  0.0033    1.1006   
    23. B(H  22,N  17)                1.0151 -0.002952  0.0036    1.0187   
    24. A(C   1,C   0,C  10)          119.68  0.000442   -0.05    119.63   
    25. A(C   1,C   0,H   9)          120.18 -0.000142    0.01    120.20   
    26. A(H   9,C   0,C  10)          120.13 -0.000300    0.04    120.17   
    27. A(C   0,C   1,C   5)          120.12  0.000264   -0.03    120.10   
    28. A(C   0,C   1,H   7)          120.05 -0.000171    0.02    120.07   
    29. A(C   5,C   1,H   7)          119.83 -0.000093    0.01    119.83   
    30. A(C   8,C   2,C  10)          120.58 -0.000638    0.08    120.66   
    31. A(H   4,C   2,C   8)          119.53  0.001158   -0.17    119.36   
    32. A(H   4,C   2,C  10)          119.89 -0.000520    0.09    119.98   
    33. A(C   1,C   5,C   8)          120.61 -0.000893    0.12    120.73   
    34. A(C   8,C   5,H  11)          119.39  0.001231   -0.18    119.21   
    35. A(C   1,C   5,H  11)          120.00 -0.000339    0.07    120.07   
    36. A(C  12,C   6,H  14)          108.16  0.002301   -0.23    107.93   
    37. A(H  13,C   6,H  14)          109.42 -0.000252   -0.46    108.96   
    38. A(C   8,C   6,H  14)          110.28  0.001558    0.03    110.31   
    39. A(C  12,C   6,H  13)          107.37  0.003565   -0.70    106.67   
    40. A(C   8,C   6,H  13)          110.35  0.002154   -0.34    110.01   
    41. A(C   8,C   6,C  12)          111.19 -0.009211    1.66    112.84   
    42. A(C   5,C   8,C   6)          120.62  0.000191   -0.02    120.59   
    43. A(C   2,C   8,C   6)          120.51 -0.001154    0.16    120.68   
    44. A(C   2,C   8,C   5)          118.84  0.000956   -0.14    118.70   
    45. A(C   0,C  10,H   3)          120.03  0.000006   -0.00    120.03   
    46. A(C   0,C  10,C   2)          120.16 -0.000131    0.02    120.18   
    47. A(C   2,C  10,H   3)          119.81  0.000126   -0.02    119.79   
[...]

 18 O s       :     3.841485  s :     3.841485
      pz      :     1.556673  p :     4.601102
      px      :     1.736985
      py      :     1.307444
      dz2     :     0.005559  d :     0.023405
      dxz     :     0.002570
      dyz     :     0.007893
      dx2y2   :     0.003549
      dxy     :     0.003833

 19 H s       :     0.730910  s :     0.730910
      pz      :     0.005831  p :     0.023639
      px      :     0.010638
      py      :     0.007169

 20 O s       :     3.874757  s :     3.874757
      pz      :     1.385285  p :     4.527796
      px      :     1.422012
      py      :     1.720499
      dz2     :     0.008979  d :     0.027213
      dxz     :     0.008353
      dyz     :     0.006787
      dx2y2   :     0.001739
      dxy     :     0.001355

 21 H s       :     0.849090  s :     0.849090
      pz      :     0.002422  p :     0.010929
      px      :     0.003619
      py      :     0.004888

 22 H s       :     0.726415  s :     0.726415
      pz      :     0.007031  p :     0.023929
      px      :     0.007365
      py      :     0.009533



                     *******************************
                     * LOEWDIN POPULATION ANALYSIS *
                     *******************************

----------------------
LOEWDIN ATOMIC CHARGES
----------------------
   0 C :   -0.076518
   1 C :   -0.073806
   2 C :   -0.079468
   3 H :    0.074603
   4 H :    0.080268
   5 C :   -0.082397
   6 C :   -0.110797
   7 H :    0.074706
   8 C :   -0.022301
   9 H :    0.074036
  10 C :   -0.072271
  11 H :    0.077448
  12 C :   -0.043989
  13 H :    0.083103
  14 H :    0.086395
  15 C :    0.126712
  16 H :    0.184439
  17 N :   -0.256476
  18 O :   -0.157255
  19 H :    0.128494
  20 O :   -0.234757
  21 H :    0.090856
  22 H :    0.128974

-------------------------------
LOEWDIN REDUCED ORBITAL CHARGES
-------------------------------
  0 C s       :     2.908850  s :     2.908850
      pz      :     1.056917  p :     3.086518
      px      :     1.010718
      py      :     1.018883
      dz2     :     0.025964  d :     0.081150
      dxz     :     0.019516
      dyz     :     0.021518
      dx2y2   :     0.004511
      dxy     :     0.009641

  1 C s       :     2.908987  s :     2.908987
      pz      :     1.050262  p :     3.083221
      px      :     1.010834
      py      :     1.022125
      dz2     :     0.023075  d :     0.081597
      dxz     :     0.014136
      dyz     :     0.017357
      dx2y2   :     0.013001
      dxy     :     0.014028

  2 C s       :     2.909462  s :     2.909462
      pz      :     1.054470  p :     3.089156
      px      :     1.014013
      py      :     1.020673
      dz2     :     0.022518  d :     0.080850
      dxz     :     0.014245
      dyz     :     0.017491
      dx2y2   :     0.012378
      dxy     :     0.014216

  3 H s       :     0.885784  s :     0.885784
      pz      :     0.014576  p :     0.039614
      px      :     0.012363
      py      :     0.012675

  4 H s       :     0.878709  s :     0.878709
      pz      :     0.026299  p :     0.041023
      px      :     0.007458
      py      :     0.007266

  5 C s       :     2.910012  s :     2.910012
      pz      :     1.049929  p :     3.091306
      px      :     1.015384
      py      :     1.025993
      dz2     :     0.021848  d :     0.081078
      dxz     :     0.019033
      dyz     :     0.022159
      dx2y2   :     0.007523
      dxy     :     0.010515

  6 C s       :     2.904686  s :     2.904686
      pz      :     1.079868  p :     3.127483
      px      :     1.002678
      py      :     1.044938
      dz2     :     0.012631  d :     0.078627
      dxz     :     0.010401
      dyz     :     0.019542
      dx2y2   :     0.016900
      dxy     :     0.019152

  7 H s       :     0.885646  s :     0.885646
      pz      :     0.025257  p :     0.039648
      px      :     0.007160
      py      :     0.007231

  8 C s       :     2.886837  s :     2.886837
      pz      :     1.059546  p :     3.036908
      px      :     0.983558
      py      :     0.993804
      dz2     :     0.028417  d :     0.098555
      dxz     :     0.022164
      dyz     :     0.025279
      dx2y2   :     0.010056
      dxy     :     0.012639

  9 H s       :     0.886272  s :     0.886272
      pz      :     0.008003  p :     0.039692
      px      :     0.014696
      py      :     0.016993

 10 C s       :     2.908927  s :     2.908927
      pz      :     1.054272  p :     3.081720
      px      :     1.008691
      py      :     1.018756
      dz2     :     0.021973  d :     0.081625
      dxz     :     0.019277
      dyz     :     0.022319
      dx2y2   :     0.007667
      dxy     :     0.010389

 11 H s       :     0.881985  s :     0.881985
      pz      :     0.014547  p :     0.040567
      px      :     0.012894
      py      :     0.013126

 12 C s       :     2.895173  s :     2.895173
      pz      :     0.957229  p :     3.023297
      px      :     1.030193
      py      :     1.035876
      dz2     :     0.031793  d :     0.125518
      dxz     :     0.021394
      dyz     :     0.038467
      dx2y2   :     0.013669
      dxy     :     0.020195

 13 H s       :     0.877781  s :     0.877781
      pz      :     0.015364  p :     0.039116
      px      :     0.006748
      py      :     0.017003

 14 H s       :     0.873809  s :     0.873809
      pz      :     0.021803  p :     0.039795
      px      :     0.008543
      py      :     0.009450

 15 C s       :     2.878750  s :     2.878750
      pz      :     1.015586  p :     2.717093
      px      :     0.802265
      py      :     0.899243
      dz2     :     0.071546  d :     0.277446
      dxz     :     0.038376
      dyz     :     0.090972
      dx2y2   :     0.035795
      dxy     :     0.040757

 16 H s       :     0.701571  s :     0.701571
      pz      :     0.055577  p :     0.113990
      px      :     0.025361
      py      :     0.033052

 17 N s       :     3.212741  s :     3.212741
      pz      :     1.380073  p :     3.986386
      px      :     1.163366
      py      :     1.442946
      dz2     :     0.016385  d :     0.057348
      dxz     :     0.011047
      dyz     :     0.007698
      dx2y2   :     0.006078
      dxy     :     0.016140

 18 O s       :     3.497756  s :     3.497756
      pz      :     1.559533  p :     4.610617
      px      :     1.709883
      py      :     1.341200
      dz2     :     0.009762  d :     0.048882
      dxz     :     0.002815
      dyz     :     0.017055
      dx2y2   :     0.010193
      dxy     :     0.009056

 19 H s       :     0.793852  s :     0.793852
      pz      :     0.017316  p :     0.077654
      px      :     0.038197
      py      :     0.022140

 20 O s       :     3.568586  s :     3.568586
      pz      :     1.475592  p :     4.610364
      px      :     1.427902
      py      :     1.706870
      dz2     :     0.021786  d :     0.055807
      dxz     :     0.015597
      dyz     :     0.013260
      dx2y2   :     0.002566
      dxy     :     0.002597

 21 H s       :     0.870677  s :     0.870677
      pz      :     0.007216  p :     0.038467
      px      :     0.012998
      py      :     0.018253

 22 H s       :     0.791725  s :     0.791725
      pz      :     0.021245  p :     0.079301
      px      :     0.023018
      py      :     0.035038



                      *****************************
                      * MAYER POPULATION ANALYSIS *
                      *****************************

  NA   - Mulliken gross atomic population
  ZA   - Total nuclear charge
  QA   - Mulliken gross atomic charge
  VA   - Mayer's total valence
  BVA  - Mayer's bonded valence
  FA   - Mayer's free valence

  ATOM       NA         ZA         QA         VA         BVA        FA
  0 C      6.0913     6.0000    -0.0913     3.9364     3.9364    -0.0000
  1 C      6.0938     6.0000    -0.0938     3.9275     3.9275    -0.0000
  2 C      6.1281     6.0000    -0.1281     3.9248     3.9248     0.0000
  3 H      0.9073     1.0000     0.0927     0.9575     0.9575    -0.0000
  4 H      0.8905     1.0000     0.1095     0.9660     0.9660    -0.0000
  5 C      6.1302     6.0000    -0.1302     3.9241     3.9241    -0.0000
  6 C      6.2420     6.0000    -0.2420     3.8734     3.8734    -0.0000
  7 H      0.9070     1.0000     0.0930     0.9573     0.9573    -0.0000
  8 C      5.9238     6.0000     0.0762     3.9729     3.9729    -0.0000
  9 H      0.9086     1.0000     0.0914     0.9575     0.9575    -0.0000
 10 C      6.0959     6.0000    -0.0959     3.9288     3.9288    -0.0000
 11 H      0.8979     1.0000     0.1021     0.9622     0.9622    -0.0000
 12 C      6.0561     6.0000    -0.0561     3.8778     3.8778    -0.0000
 13 H      0.8764     1.0000     0.1236     0.9548     0.9548     0.0000
 14 H      0.8676     1.0000     0.1324     0.9564     0.9564     0.0000
 15 C      5.4817     6.0000     0.5183     3.8998     3.8998     0.0000
 16 H      0.6798     1.0000     0.3202     0.9178     0.9178     0.0000
 17 N      7.5613     7.0000    -0.5613     2.8851     2.8851    -0.0000
 18 O      8.4660     8.0000    -0.4660     2.0559     2.0559     0.0000
 19 H      0.7545     1.0000     0.2455     0.9218     0.9218    -0.0000
 20 O      8.4298     8.0000    -0.4298     2.0736     2.0736    -0.0000
 21 H      0.8600     1.0000     0.1400     0.9444     0.9444    -0.0000
 22 H      0.7503     1.0000     0.2497     0.9298     0.9298    -0.0000

  Mayer bond orders larger than 0.100000
B(  0-C ,  1-C ) :   1.4405 B(  0-C ,  9-H ) :   0.9395 B(  0-C , 10-C ) :   1.4364 
B(  1-C ,  5-C ) :   1.4224 B(  1-C ,  7-H ) :   0.9382 B(  2-C ,  4-H ) :   0.9272 
B(  2-C ,  8-C ) :   1.4202 B(  2-C , 10-C ) :   1.4281 B(  3-H , 10-C ) :   0.9383 
B(  5-C ,  8-C ) :   1.4156 B(  5-C , 11-H ) :   0.9309 B(  6-C ,  8-C ) :   1.0009 
B(  6-C , 12-C ) :   0.9582 B(  6-C , 13-H ) :   0.9343 B(  6-C , 14-H ) :   0.9314 
B( 12-C , 15-C ) :   0.8975 B( 12-C , 17-N ) :   1.0420 B( 12-C , 21-H ) :   0.9239 
B( 15-C , 18-O ) :   1.0872 B( 15-C , 20-O ) :   1.8563 B( 16-H , 18-O ) :   0.8517 
B( 17-N , 19-H ) :   0.9051 B( 17-N , 22-H ) :   0.8872 

-------
TIMINGS
-------

Total SCF time: 0 days 0 hours 0 min 3 sec 

Total time                  ....       3.403 sec
Sum of individual times     ....       2.778 sec  ( 81.6%)

SCF preparation             ....       0.036 sec  (  1.1%)
Fock matrix formation       ....       2.688 sec  ( 79.0%)
  Startup                   ....       0.001 sec  (  0.0% of F)
  Split-RI-J                ....       1.196 sec  ( 44.5% of F)
  XC integration            ....       2.044 sec  ( 76.0% of F)
    XC Preparation          ....       0.000 sec  (  0.0% of XC)
    Basis function eval.    ....       0.720 sec  ( 35.2% of XC)
    Density eval.           ....       0.486 sec  ( 23.8% of XC)
    XC-Functional eval.     ....       0.328 sec  ( 16.0% of XC)
    XC-Potential eval.      ....       0.464 sec  ( 22.7% of XC)
Diagonalization             ....       0.000 sec  (  0.0%)
Density matrix formation    ....       0.002 sec  (  0.0%)
Total Energy calculation    ....       0.000 sec  (  0.0%)
Population analysis         ....       0.011 sec  (  0.3%)
Orbital Transformation      ....       0.022 sec  (  0.6%)
Orbital Orthonormalization  ....       0.000 sec  (  0.0%)
DIIS solution               ....       0.005 sec  (  0.2%)
SOSCF solution              ....       0.014 sec  (  0.4%)
Finished LeanSCF after   3.4 sec

Maximum memory used throughout the entire LEANSCF-calculation: 26.1 MB



-------------------------------------------------------------------------------
                          DFT DISPERSION CORRECTION                            
-------------------------------------------------------------------------------
Active option DFTDOPT                   ...         2   
Final C6-coefficient scaling factor     ...     1.250
Final VDW-radii scaling factor          ...     1.100
Damping factor alpha                    ...    20.000
-------------------------   ----------------
Dispersion correction           -0.033683801
-------------------------   ----------------


-------------------------   --------------------
FINAL SINGLE POINT ENERGY      -554.422479948308
-------------------------   --------------------

                                *** OPTIMIZATION RUN DONE ***


------------------------------------------------------------------------------
                              ORCA PROPERTY CALCULATIONS
------------------------------------------------------------------------------

GBWName                                 ... 2.gbw
Number of atoms                         ...     23
Number of basis functions               ...    223
Max core memory                         ...   4096 MB

Electric properties:
Dipole moment                           ... YES
Quadrupole moment                       ...  NO
Static polarizability (Dipole/Dipole)   ...  NO
Static polarizability (Dipole/Quad.)    ...  NO
Static polarizability (Quad./Quad.)     ...  NO
Static polarizability (Velocity)        ...  NO
Static hyperpolarizability              ...  NO

Atomic electric properties:
Dipole moment                           ...  NO
Quadrupole moment                       ...  NO
Static polarizability                   ...  NO

Choice of electric origin               ... Center of mass
Position of electric origin             ...    -6.522998     2.847010     0.747424

General magnetic properties:
Magnetizability                         ...  NO

EPR properties:
g-Tensor (aka g-matrix)                 ...  NO
Zero-Field splitting spin-orbit         ...  NO
Zero-field splitting spin-spin          ...  NO
Hyperfine couplings                     ...  NO (   0 nuclei)
Quadrupole couplings                    ...  NO (   0 nuclei)
Contact density                         ...  NO (   0 nuclei)

NMR properties:
Chemical shifts                         ...  NO (   0 nuclei)
Spin-rotation constants                 ...  NO (   0 nuclei)
Spin-spin couplings                     ...  NO (   0 nuclei,    0 pairs)

Choice of magnetic origin               ... GIAO
Position of magnetic origin             ...     0.000000     0.000000     0.000000

Properties with geometric perturbations:
SCF Hessian                             ...  NO
IR spectrum                             ...  NO
VCD spectrum                            ...  NO
X-ray spectroscopy properties:
SCF XES/XAS/RIXS spectra                ...  NO

SCF SOC stabilization energy            ...  NO
Diagonal Born-Oppenheimer correction    ...  NO

-------------
DIPOLE MOMENT
-------------

Method             : SCF
Type of density    : Electron Density
Multiplicity       :   1
Irrep              :   0
Energy             :  -554.3887961472538564 Eh
Basis              : AO
                                X                 Y                 Z
Electronic contribution:      0.986223345      -1.445480686       3.849485868
Nuclear contribution   :     -0.794385700       0.832218569      -4.039952745
                        -----------------------------------------
Total Dipole Moment    :      0.191837645      -0.613262117      -0.190466877
                        -----------------------------------------
Magnitude (a.u.)       :      0.670201267
Magnitude (Debye)      :      1.703516239



--------------------
Rotational spectrum 
--------------------
 
Rotational constants in cm-1:             0.052123             0.022292             0.019542 
Rotational constants in MHz :          1562.611556           668.311489           585.840774 

Dipole components along the rotational axes: 
x,y,z [a.u.] :     0.071902     0.055088     0.664052 
x,y,z [Debye]:     0.182761     0.140023     1.687886 

 

Dipole moment calculation done in   0.0 sec 

Maximum memory used throughout the entire PROP-calculation: 15.1 MB

--------------------------------
SUGGESTED CITATIONS FOR THIS RUN
--------------------------------

Below you find a list of papers that are relevant to this ORCA run
We neither can nor want to force you to cite these papers, but we appreciate if you do
You receive ORCA, which is the product of decades of hard work by many enthusiastic individuals, for free
The only thing we kindly ask in return is that you cite our papers,
We deeply appreciate it, if you show your appreciation for ORCA by not just citing the generic ORCA reference.

Please note that relegating all ORCA citations to the supporting information does *not* help us.
SI sections are not indexed - citations you put there will not count into any citation statistics
But we need these citations in order to attract the funding resources that allow us to do what we are doing

Therefore, if you are a happy ORCA user, please consider citing a few of the papers listed below in the main body of your paper

In addition to the list printed below, the program has created the file 2.bibtex that contains the list in bibtex format
You can import this file easily into all common literature databanks and citation aid programs


List of essential papers. We consider these as the minimum necessary citations

  1. Neese, F.
     Software update: the ORCA program system, version 6.0
     WIRES Comput. Molec. Sci. 2025 15(1), e70019
     doi.org/10.1002/wcms.7019

List of papers to cite with high priority. The work reported in these papers was absolutely
necessary for this run to complete.
Our perspective: the developers of density functionals and basis sets usually get cited in chemistry papers
Good! But without the algorithms to do something with them, the functionals or basis sets would not do anything.
Hence, in our opinion, the algorithm design and method developments papers are equally worthy of getting cited

  1. Neese, F.
     An improvement of the resolution of the identity approximation for the formation of the Coulomb matrix
     J. Comp. Chem. 2003 24(14), 1740-1747
     doi.org/10.1002/jcc.10318
  2. Grimme, S.
     Semiempirical GGA-type density functional constructed with a long-range dispersion correction
     J.Comput.Chem. 2006 27(15), 1787-1799
     doi.org/10.1002/jcc.20495
  3. Neese, F.
     The SHARK Integral Generation and Digestion System
     J. Comp. Chem. 2022 44(3), 381
     doi.org/10.1002/jcc.26942

List of suggested additional citations. These are papers that are important in the 'surrounding' of 
of this run, or papers that preceded the highly important papers. If you like your results we are grateful for a citation.

  1. Neese, F.
     The ORCA program system
     WIRES Comput. Molec. Sci. 2012 2(1), 73-78
     doi.org/10.1002/wcms.81
  2. Neese, F.
     Software update: the ORCA program system, version 4.0
     WIRES Comput. Molec. Sci. 2018 8(1), 1-6
     doi.org/10.1002/wcms.1327
  3. Neese, F.; Wennmohs, F.; Becker, U.; Riplinger, C.
     The ORCA quantum chemistry program package
     J. Chem. Phys. 2020 152(22), 224108
     doi.org/10.1063/5.0004608
  4. Neese, F.
     Software update: The ORCA program system—Version 5.0
     WIRES Comput. Molec. Sci. 2022 12(1), e1606
     doi.org/10.1002/wcms.1606

List of optional additional citations

  1. Neese, F.
     Approximate second-order SCF convergence for spin unrestricted wavefunctions
     Chem. Phys. Lett. 2000 325(1-3), 93-98
     doi.org/10.1016/s0009-2614(00)00662-x

Timings for individual modules:

Sum of individual times          ...      119.124 sec (=   1.985 min)
Startup calculation              ...        6.009 sec (=   0.100 min)   5.0 %
SCF iterations                   ...       70.849 sec (=   1.181 min)  59.5 %
Property calculations            ...        0.039 sec (=   0.001 min)   0.0 %
SCF Gradient evaluation          ...       42.208 sec (=   0.703 min)  35.4 %
Geometry relaxation              ...        0.019 sec (=   0.000 min)   0.0 %
                             ****ORCA TERMINATED NORMALLY****
TOTAL RUN TIME: 0 days 0 hours 1 minutes 59 seconds 375 msec
