
                                 *****************
                                 * O   R   C   A *
                                 *****************

                                            #,                                       
                                            ###                                      
                                            ####                                     
                                            #####                                    
                                            ######                                   
                                           ########,                                 
                                     ,,################,,,,,                         
                               ,,#################################,,                 
                          ,,##########################################,,             
                       ,#########################################, ''#####,          
                    ,#############################################,,   '####,        
                  ,##################################################,,,,####,       
                ,###########''''           ''''###############################       
              ,#####''   ,,,,##########,,,,          '''####'''          '####       
            ,##' ,,,,###########################,,,                        '##       
           ' ,,###''''                  '''############,,,                           
         ,,##''                                '''############,,,,        ,,,,,,###''
      ,#''                                            '''#######################'''  
     '                                                          ''''####''''         
             ,#######,   #######,   ,#######,      ##                                
            ,#'     '#,  ##    ##  ,#'     '#,    #''#        ,####,    ,#,          
            ##       ##  ##   ,#'  ##            #'  '#       #'       ,# #          
            ##       ##  #######   ##           ,######,      #####,      #          
            '#,     ,#'  ##    ##  '#,     ,#' ,#      #,     #,   #      #          
             '#######'   ##     ##  '#######'  #'      '#     '####' #    #          



                #########################################################
                #                        -***-                          #
                #          Department of theory and spectroscopy        #
                #                                                       #
                #                      Frank Neese                      #
                #                                                       #
                #     Directorship, Architecture, Infrastructure        #
                #                    SHARK, DRIVERS                     #
                #        Core code/Algorithms in most modules           #
                #                                                       #
                #        Max Planck Institute fuer Kohlenforschung      #
                #                Kaiser Wilhelm Platz 1                 #
                #                 D-45470 Muelheim/Ruhr                 #
                #                      Germany                          #
                #                                                       #
                #                  All rights reserved                  #
                #                        -***-                          #
                #########################################################


                         Program Version 6.1.0  -  RELEASE   -
                                (GIT: $679e74b$)
                          ($2025-06-10 18:02:51 +0200$)


 With contributions from (in alphabetic order):
[Max-Planck-Institut fuer Kohlenforschung]                               
  Daniel Aravena         : Magnetic Suceptibility                        
  Michael Atanasov       : Ab Initio Ligand Field Theory (pilot matlab implementation)
  Alexander A. Auer      : GIAO ZORA, VPT2 properties, NMR spectrum      
  Ute Becker             : All parallelization in ORCA, NUMFREQ, NUMCALC 
  Giovanni Bistoni       : ED, misc. LED, open-shell LED, HFLD           
  Dmytro Bykov           : pre 5.0 version of the SCF Hessian            
  Marcos Casanova-Páez   : Triplet and SCS-CIS(D). UHF-(DLPNO)-IP/EA/STEOM-CCSD. UHF-CVS-IP/STEOM-CCSD   
  Vijay G. Chilkuri      : MRCI spin determinant printing, contributions to CSF-ICE 
  Pauline Colinet        : FMM embedding                                 
  Dipayan Datta          : RHF DLPNO-CCSD density                        
  Achintya Kumar Dutta   : EOM-CC, STEOM-CC                              
  Nicolas Foglia         : Exact transition moments, OPA infrastructure, MCD improvements    
  Dmitry Ganyushin       : Spin-Orbit,Spin-Spin,Magnetic field MRCI      
  Miquel Garcia-Rates    : C-PCM and meta-GGA Hessian, CCSD/C-PCM, Gaussian charge scheme 
  Tiago L. C. Gouveia    : GS-ROHF, GS-ROCIS                             
  Yang Guo               : DLPNO-NEVPT2, F12-NEVPT2, CIM, IAO-localization        
  Andreas Hansen         : Spin unrestricted coupled pair/coupled cluster methods 
  Ingolf Harden          : AUTO-CI MPn and infrastructure                
  Benjamin Helmich-Paris : MC-RPA, TRAH-(SCF,CASSCF), AVAS, COSX integrals, SCF dyn. polar., MC-PDFT, srDFT 
  Lee Huntington         : MR-EOM, pCC                                   
  Robert Izsak           : Overlap fitted RIJCOSX, COSX-SCS-MP3, EOM     
  Riya Kayal             : Wick's Theorem for AUTO-CI, AUTO-CI UHF-CCSDT 
  Emily Kempfer          : AUTO-CI RHF CISDT and CCSDT, approximate NEVPT4
  Christian Kollmar      : KDIIS, OOCD, Brueckner-CCSD(T), CCSD density, CASPT2, CASPT2-K, improved NEVPT2 
  Axel Koslowski         : Symmetry handling                             
  Simone Kossmann        : meta-GGA functionals, TD-DFT gradient, OOMP2, (MP2 Hessian; deprecated post 5.0) 
  Lucas Lang             : DCDCAS, Hyperfine gauge corrections, ICE-SOC+SSC
  Marvin Lechner         : AUTO-CI (C++ implementation), FIC-MRCC        
  Spencer Leger          : CASSCF response                               
  Dagmar Lenk            : GEPOL surface, SMD, ORCA-2-JSON               
  Dimitrios Liakos       : Extrapolation schemes; Compound Job, Property file
  Dimitrios Manganas     : Further ROCIS development; embedding schemes. LFT, Crystal Embedding 
  Dimitrios Pantazis     : SARC Basis sets                               
  Anastasios Papadopoulos: AUTO-CI, single reference methods and gradients 
  Taras Petrenko         : pre 6.0 DFT Hessian and TD-DFT gradient,  ECA, NRVS 
  Petra Pikulova         : Analytic Raman intensities                    
  Peter Pinski           : DLPNO-MP2, DLPNO-MP2 Gradient                 
  Shashank Vittal Rao    : ES-AILFT, MagRelax                            
  Christoph Reimann      : Effective Core Potentials                     
  Marius Retegan         : Local ZFS, SOC                                
  Christoph Riplinger    : Optimizer, TS searches, QM/MM, DLPNO-CCSD(T), (RO)-DLPNO pert. Triples 
  Michael Roemelt        : Original ROCIS implementation, recursive CI coupling coefficients
  Masaaki Saitow         : Open-shell DLPNO-CCSD energy and density      
  Barbara Sandhoefer     : DKH picture change effects                    
  Yorick L. A. Schmerwitz: GMF and freeze-and-release deltaSCF, NEB S-IDPP initial path                    
  Kantharuban Sivalingam : CASSCF convergence/infrastructure, NEVPT2, NEVPT3, NEVPT4(SD), FIC-MRCI and CEPA variants
  Bernardo de Souza      : ESD, SOC TD-DFT                               
  Georgi L. Stoychev     : AutoAux, RI-MP2 NMR, DLPNO-MP2 response, X2C  
  Van Anh Tran           : RI-MP2 g-tensors                              
  Willem Van den Heuvel  : Paramagnetic NMR                              
  Zikuan Wang            : NOTCH, Electric field optimization            
  Frank Wennmohs         : Technical directorship and infrastructure     
  Hang Xu                : AUTO-CI-Response properties                   
                                                                         
[FACCTs GmbH]                                                            
  Markus Bursch, Nicolas Foglia, Miquel Garcia-Rates, Ingolf Harden, Hagen Neugebauer, Anastasios Papadopoulos, 
  Christoph Riplinger, Bernardo de Souza, Georgi L. Stoychev                                                    
                                                                 
  APM, various basis sets, CI-OPT, improved COSX, DLPNO-Multilevel,           
  DOCKER, DRACO, updates on ESD, Fragmentator, GOAT, IRC, LR-CPCM, L-BFGS, MBIS, meta-GGA TD-DFT gradient, ML-optimized integration grids, 
  MM, NACMEs, nearIR, NEB, NEB-TS, NL-DFT gradient (VV10), 2- and 3-layer-ONIOM, interface openCOSMO-RS, QMMM,   
  Crystal-QMMM, RESP, rigid body optimization, SF, symmetry and pop. for TD-DFT, various functionals, SOLVATOR                                   
                                                                         
[Other institutions]                                                     
  V. Asgeirsson          : NEB                                           
  Christoph Bannwarth    : sTDA-DFT, sTD-DFT, PBEh-3c, B97-3c, D3        
  Giovanni Bistoni       : ETS/NOCV, ADLD/ADEX, COVALED                  
  Martin Brehm           : Molecular dynamics                            
  Ronald Cardenas        : ETS/NOCV                                      
  Martina Colucci        : COVALED                                       
  Sebastian Ehlert       : rSCAN, r2SCAN, r2SCAN-3c, D4, dhf basis sets  
  Marvin Friede          : D4 for Fr, Ra, Ac-Lr                          
  Lars Goerigk           : TD-DFT with DH, B97 family of functionals     
  Stefan Grimme          : VdW corrections, initial TS optimization, DFT functionals, gCP, sTDA/sTD-DF 
  Waldemar Hujo          : DFT-NL                                        
  H. Jonsson             : NEB                                           
  Holger Kruse           : gCP                                           
  Marcel Mueller         : wB97X-3c, vDZP basis set                      
  Hagen Neugebauer       : wr2SCAN, Native XTB                           
  Gianluca Regni         : ADLD/ADEX                                     
  Tobias Risthaus        : pre 6.0 range-separated hybrid DFT and stability analysis
  Lukas Wittmann         : regularized MP2, r2SCAN double-hybrids, wr2SCAN        
                                                                         
We gratefully acknowledge several colleagues who have allowed us to      
interface, adapt or use parts of their codes:                            
  Ed Valeev, F. Pavosevic, A. Kumar             : LibInt (2-el integral package), F12 methods 
  Garnet Chan, S. Sharma, J. Yang, R. Olivares  : DMRG                   
  Ulf Ekstrom                                   : XCFun DFT Library      
  Mihaly Kallay                                 : mrcc  (arbitrary order and MRCC methods)
  Frank Weinhold                                : gennbo (NPA and NBO analysis)           
  Simon Mueller                                 : openCOSMO-RS                            
  Christopher J. Cramer and Donald G. Truhlar   : smd solvation model                     
  S Lehtola, MJT Oliveira, MAL Marques          : LibXC Library                           
  Liviu Ungur et al                             : ANISO software                          


 Your calculation uses the libint2 library for the computation of 2-el integrals
 For citations please refer to: http://libint.valeyev.net

 Your ORCA version has been built with support for libXC version: 7.0.0
 For citations please refer to: https://libxc.gitlab.io

 This ORCA versions uses:
   CBLAS   interface :  Fast vector & matrix operations
   LAPACKE interface :  Fast linear algebra routines
   SCALAPACK package :  Parallel linear algebra routines
   Shared memory     :  Shared parallel matrices
   BLAS/LAPACK       :  OpenBLAS 0.3.29  USE64BITINT DYNAMIC_ARCH NO_AFFINITY Haswell SINGLE_THREADED
        Core in use  :  Haswell
   Copyright (c) 2011-2014, The OpenBLAS Project


  ***********************************
  * Starting time: Sat Aug 30 16:20:55 2025
  * Host name:     chemlab03
  * Process ID:    82474
  * Working dir.:  /home/vivek/mm-project/vivek/xtb-goat/B97-D-opt/k/2
  ***********************************



***************************************
The coordinates will be read from file: /home/vivek/mm-project/vivek/xtb-goat/xtb-goat/k/K_CONF/2.xyz
***************************************


Your calculation utilizes empirical dispersion correction


Warning: RI is on but no J-basis has been assigned. Assigning Def2/J (nothing to worry about!)
================================================================================

----- Orbital basis set information -----
Your calculation utilizes the basis: 6-31G**
   H-He, Li-Ne : W. J. Hehre, R. Ditchfield and J.A. Pople, J. Chem. Phys. 56, 2257 (1972).
                 Note: He and Ne are unpublished basis sets taken from the Gaussian program.
                 Note: Li and B from J. D. Dill and J. A. Pople, J. Chem. Phys. 62, 2921 (1975).
   Na - Ar     : M. M. Francl, W. J. Pietro, W. J. Hehre, J. S. Binkley, M. S. Gordon, 
                 D. J. DeFrees and J. A. Pople, J. Chem. Phys. 77, 3654 (1982).
   K - Zn      : V. A. Rassolov, J. A. Pople, M. A. Ratner, and T. L. Windus, J. Chem. Phys. 109, 1223 (1998).

----- AuxJ basis set information -----
Your calculation utilizes the auxiliary basis: def2/J
   H-Rn: F. Weigend, Phys. Chem. Chem. Phys. 8, 1057 (2006).
   Fr-Lr: K. Eichkorn, F. Weigend, O. Treutler, R. Ahlrichs; Theor. Chem. Acc. 97, 119 (1997).

================================================================================
                                        WARNINGS
                       Please study these warnings very carefully!
================================================================================


WARNING: Geometry Optimization
  ===> : Switching off AutoStart
         For restart on a previous wavefunction, please use MOREAD

INFO   : The exchange functional is Grimme's B97(-D)
         As described in S. Grimme, J. Comput. Chem. 27, 1787 (2006).
         Note that this functional defaults to a pure GGA. 

INFO   : The correlation functional is Grimme's B97(-D)
         As described in S. Grimme, J. Comput. Chem. 27, 1787 (2006).

================================================================================
                                       INPUT FILE
================================================================================
NAME = 2.inp
|  1> ! B97-D 6-31G** opt
|  2> 
|  3> * xyzfile 0 1 /home/vivek/mm-project/vivek/xtb-goat/xtb-goat/k/K_CONF/2.xyz
|  4> 
|  5>                          ****END OF INPUT****
================================================================================

                       *****************************
                       * Geometry Optimization Run *
                       *****************************

Geometry optimization settings:
Update method            Update   .... BFGS
Choice of coordinates    CoordSys .... (2022) Redundant Internals
Initial Hessian          InHess   .... Almloef's Model
Max. no of cycles        MaxIter  .... 72

Convergence Tolerances:
Energy Change            TolE     ....  5.0000e-06 Eh
Max. Gradient            TolMAXG  ....  3.0000e-04 Eh/bohr
RMS Gradient             TolRMSG  ....  1.0000e-04 Eh/bohr
Max. Displacement        TolMAXD  ....  4.0000e-03 bohr
RMS Displacement         TolRMSD  ....  2.0000e-03 bohr
Strict Convergence                .... False

------------------------------------------------------------------------------
                        ORCA OPTIMIZATION COORDINATE SETUP
------------------------------------------------------------------------------

The optimization will be done in redundant internal coordinates (2022)
Making redundant internal coordinates   ...  (2022 redundants) done
Evaluating the initial hessian          ...  (Almloef) done
Evaluating the coordinates              ...  done
Calculating the B-matrix                .... done
Calculating the G-matrix                .... done
The number of degrees of freedom        ....  104

    -----------------------------------------------------------------
                    Redundant Internal Coordinates


    -----------------------------------------------------------------
         Definition                    Initial Value    Approx d2E/dq
    -----------------------------------------------------------------
      1. B(C   1,C   0)                  1.5356         0.365919   
      2. B(N   4,H   2)                  1.0150         0.424875   
      3. B(N   4,C   0)                  1.4517         0.446084   
      4. B(N   4,H   3)                  1.0151         0.424682   
      5. B(C   5,C   1)                  1.5253         0.380032   
      6. B(H   6,C   1)                  1.0923         0.357027   
      7. B(H   7,C   1)                  1.0944         0.354371   
      8. B(C   8,C   5)                  1.5281         0.376185   
      9. B(H   9,C   5)                  1.0922         0.357186   
     10. B(H  10,C   5)                  1.0902         0.359874   
     11. B(C  11,C   8)                  1.5390         0.361488   
     12. B(H  12,C   8)                  1.0913         0.358389   
     13. B(H  13,C   8)                  1.0927         0.356498   
     14. B(C  14,C  11)                  1.5232         0.383071   
     15. B(N  16,C  11)                  1.4483         0.451739   
     16. B(O  17,H  15)                  0.9709         0.499519   
     17. B(O  17,C  14)                  1.3381         0.677231   
     18. B(H  18,C   0)                  1.0933         0.355808   
     19. B(H  19,C   0)                  1.0938         0.355129   
     20. B(H  20,N  16)                  1.0159         0.423379   
     21. B(O  21,C  14)                  1.2030         1.112482   
     22. B(H  22,C  11)                  1.0948         0.353796   
     23. B(H  23,N  16)                  1.0146         0.425531   
     24. A(C   1,C   0,H  19)          109.5464         0.322483   
     25. A(C   1,C   0,N   4)          114.8259         0.370916   
     26. A(N   4,C   0,H  18)          107.5162         0.331285   
     27. A(C   1,C   0,H  18)          109.3742         0.322584   
     28. A(H  18,C   0,H  19)          107.9342         0.289660   
     29. A(N   4,C   0,H  19)          107.4151         0.331180   
     30. A(C   5,C   1,H   6)          109.8076         0.324776   
     31. A(C   5,C   1,H   7)          109.6250         0.324377   
     32. A(C   0,C   1,H   6)          108.6779         0.322765   
     33. A(C   0,C   1,C   5)          111.5971         0.363130   
     34. A(H   6,C   1,H   7)          107.9573         0.289718   
     35. A(C   0,C   1,H   7)          109.0963         0.322370   
     36. A(C   0,N   4,H   3)          110.1569         0.338247   
     37. A(C   0,N   4,H   2)          110.1230         0.338272   
     38. A(H   2,N   4,H   3)          107.5136         0.301471   
     39. A(C   8,C   5,H  10)          108.5662         0.324656   
     40. A(C   1,C   5,H  10)          109.4527         0.325200   
     41. A(C   8,C   5,H   9)          108.4001         0.324257   
     42. A(C   1,C   5,H   9)          108.7649         0.324799   
     43. A(C   1,C   5,C   8)          113.2608         0.364852   
     44. A(H   9,C   5,H  10)          108.2790         0.290440   
     45. A(H  12,C   8,H  13)          108.3519         0.290164   
     46. A(C  11,C   8,H  12)          108.7522         0.322322   
     47. A(C  11,C   8,H  13)          108.0850         0.322043   
     48. A(C   5,C   8,H  13)          109.0167         0.324154   
     49. A(C   5,C   8,H  12)          110.1843         0.324436   
     50. A(C   5,C   8,C  11)          112.3507         0.361746   
     51. A(C  14,C  11,N  16)          112.5418         0.374668   
     52. A(C   8,C  11,N  16)          110.1976         0.370943   
     53. A(C   8,C  11,C  14)          108.1410         0.362868   
     54. A(N  16,C  11,H  22)          108.7964         0.331665   
     55. A(C  14,C  11,H  22)          107.7915         0.324715   
     56. A(C   8,C  11,H  22)          109.3037         0.321642   
     57. A(C  11,C  14,O  17)          112.6741         0.402085   
     58. A(O  17,C  14,O  21)          122.8108         0.484250   
     59. A(C  11,C  14,O  21)          124.5145         0.439309   
     60. A(H  20,N  16,H  23)          106.9090         0.301397   
     61. A(C  11,N  16,H  23)          110.2917         0.339071   
     62. A(C  11,N  16,H  20)          109.3555         0.338785   
     63. A(C  14,O  17,H  15)          110.4737         0.373199   
     64. D(H   6,C   1,C   0,H  19)   -178.7167         0.010719   
     65. D(H   6,C   1,C   0,N   4)    -57.7744         0.010719   
     66. D(H   6,C   1,C   0,H  18)     63.1701         0.010719   
     67. D(C   5,C   1,C   0,N   4)   -179.0084         0.010719   
     68. D(C   5,C   1,C   0,H  18)    -58.0639         0.010719   
     69. D(C   5,C   1,C   0,H  19)     60.0493         0.010719   
     70. D(H   2,N   4,C   0,C   1)     59.6884         0.016972   
     71. D(H   3,N   4,C   0,H  18)    179.3124         0.016972   
     72. D(H   3,N   4,C   0,C   1)    -58.7299         0.016972   
     73. D(H   2,N   4,C   0,H  19)   -178.2079         0.016972   
     74. D(H   2,N   4,C   0,H  18)    -62.2694         0.016972   
     75. D(H   9,C   5,C   1,C   0)    -54.8419         0.011510   
     76. D(C   8,C   5,C   1,H   6)     63.9918         0.011510   
     77. D(C   8,C   5,C   1,C   0)   -175.4330         0.011510   
     78. D(C   8,C   5,C   1,H   7)    -54.4544         0.011510   
     79. D(H   9,C   5,C   1,H   7)     66.1367         0.011510   
     80. D(H   9,C   5,C   1,H   6)   -175.4171         0.011510   
     81. D(H  12,C   8,C   5,H   9)    -71.1505         0.011291   
     82. D(H  12,C   8,C   5,C   1)     49.6472         0.011291   
     83. D(C  11,C   8,C   5,H  10)     50.0033         0.011291   
     84. D(C  11,C   8,C   5,H   9)    167.4178         0.011291   
     85. D(H  12,C   8,C   5,H  10)    171.4351         0.011291   
     86. D(C  11,C   8,C   5,C   1)    -71.7845         0.011291   
     87. D(N  16,C  11,C   8,H  13)     61.9137         0.010478   
     88. D(N  16,C  11,C   8,H  12)    179.3426         0.010478   
     89. D(N  16,C  11,C   8,C   5)    -58.4104         0.010478   
     90. D(C  14,C  11,C   8,H  13)    -61.4790         0.010478   
     91. D(C  14,C  11,C   8,H  12)     55.9499         0.010478   
     92. D(C  14,C  11,C   8,C   5)    178.1969         0.010478   
     93. D(O  17,C  14,C  11,N  16)    167.3415         0.010939   
     94. D(O  17,C  14,C  11,C   8)    -70.6958         0.010939   
     95. D(O  21,C  14,C  11,N  16)    -12.9488         0.010939   
     96. D(O  21,C  14,C  11,C   8)    109.0138         0.010939   
     97. D(O  17,C  14,C  11,H  22)     47.3696         0.010939   
     98. D(H  23,N  16,C  11,C  14)    -60.4177         0.017410   
     99. D(H  23,N  16,C  11,C   8)    178.7922         0.017410   
    100. D(H  20,N  16,C  11,H  22)    176.2657         0.017410   
    101. D(H  20,N  16,C  11,C  14)     56.8766         0.017410   
    102. D(H  20,N  16,C  11,C   8)    -63.9136         0.017410   
    103. D(H  15,O  17,C  14,O  21)     -0.8944         0.034136   
    104. D(H  15,O  17,C  14,C  11)    178.8209         0.034136   
    -----------------------------------------------------------------

Number of atoms                         .... 24
Number of degrees of freedom            .... 104


         *************************************************************
         *                GEOMETRY OPTIMIZATION CYCLE   1            *
         *************************************************************
---------------------------------
CARTESIAN COORDINATES (ANGSTROEM)
---------------------------------
  C    -14.095102    6.331892    0.888261
  C    -12.570352    6.502627    0.952812
  H    -14.563467    8.028325   -0.138497
  H    -14.639555    8.202098    1.487756
  N    -14.840200    7.566662    0.722000
  C    -11.861011    5.160685    1.103395
  H    -12.234840    6.998171    0.038997
  H    -12.317955    7.148807    1.799206
  C    -10.349334    5.293930    1.282784
  H    -12.267527    4.644331    1.975776
  H    -12.053344    4.547526    0.222760
  C     -9.641760    5.724318   -0.014321
  H    -10.125589    6.023308    2.063088
  H     -9.940403    4.327548    1.587667
  C     -8.155005    5.870705    0.282608
  H     -6.932802    6.983862    1.236030
  N     -9.905718    4.767543   -1.069040
  O     -7.884645    6.931696    1.051773
  H    -14.351639    5.677482    0.050906
  H    -14.449411    5.857012    1.807672
  H     -9.504265    3.869031   -0.816787
  O     -7.303076    5.121383   -0.117187
  H    -10.019027    6.704180   -0.324392
  H     -9.456229    5.060256   -1.930199

----------------------------
CARTESIAN COORDINATES (A.U.)
----------------------------
  NO LB      ZA    FRAG     MASS         X           Y           Z
   0 C     6.0000    0    12.011  -26.635882   11.965542    1.678569
   1 C     6.0000    0    12.011  -23.754523   12.288184    1.800554
   2 H     1.0000    0     1.008  -27.520963   15.171335   -0.261722
   3 H     1.0000    0     1.008  -27.664749   15.499719    2.811451
   4 N     7.0000    0    14.007  -28.043914   14.298918    1.364382
   5 C     6.0000    0    12.011  -22.414063    9.752282    2.085114
   6 H     1.0000    0     1.008  -23.120496   13.224627    0.073694
   7 H     1.0000    0     1.008  -23.277561   13.509287    3.400007
   8 C     6.0000    0    12.011  -19.557406   10.004079    2.424111
   9 H     1.0000    0     1.008  -23.182266    8.776513    3.733676
  10 H     1.0000    0     1.008  -22.777519    8.593578    0.420956
  11 C     6.0000    0    12.011  -18.220286   10.817394   -0.027062
  12 H     1.0000    0     1.008  -19.134590   11.382403    3.898670
  13 H     1.0000    0     1.008  -18.784639    8.177880    3.000256
  14 C     6.0000    0    12.011  -15.410726   11.094024    0.534051
  15 H     1.0000    0     1.008  -13.101097   13.197587    2.335758
  16 N     7.0000    0    14.007  -18.719094    9.009351   -2.020193
  17 O     8.0000    0    15.999  -14.899819   13.099008    1.987564
  18 H     1.0000    0     1.008  -27.120668   10.728886    0.096199
  19 H     1.0000    0     1.008  -27.305429   11.068149    3.416005
  20 H     1.0000    0     1.008  -17.960459    7.311410   -1.543504
  21 O     8.0000    0    15.999  -13.800813    9.678011   -0.221451
  22 H     1.0000    0     1.008  -18.933218   12.669064   -0.613012
  23 H     1.0000    0     1.008  -17.869682    9.562498   -3.647548

--------------------------------
INTERNAL COORDINATES (ANGSTROEM)
--------------------------------
 C      0   0   0     0.000000000000     0.00000000     0.00000000
 C      1   0   0     1.535636391910     0.00000000     0.00000000
 H      1   2   0     2.037518540282    99.02431307     0.00000000
 H      3   1   2     1.637280211660    66.32918485   266.47819700
 N      3   1   2     1.014972660968    41.98973450   232.49816818
 C      2   1   3     1.525335174131   111.59712200   205.12433866
 H      2   1   3     1.092332693476   108.67788956   326.35830155
 H      2   1   3     1.094365410588   109.09634923    83.83817511
 C      6   2   1     1.528104780208   113.26077377   184.56699485
 H      6   2   1     1.092211914588   108.76492404   305.15807373
 H      6   2   1     1.090171250090   109.45274710    63.27676158
 C      9   6   2     1.538952474689   112.35066855   288.21547196
 H      9   6   2     1.091296269690   110.18425559    49.64722158
 H      9   6   2     1.092736923027   109.01668157   168.43177940
 C     12   9   6     1.523166807067   108.14098139   178.19691753
 H     15  12   9     1.908379767096   141.13090492   290.19969531
 N     12   9   6     1.448283420948   110.19763098   301.58962022
 O     16  15  12     0.970915213511    41.06098055   358.26613942
 H      1   2   3     1.093263743126   109.37423678    96.81176616
 H      1   2   3     1.093783816580   109.54639053   214.92495912
 H     17  12   9     1.015932750299   109.35553167   296.08644141
 O     15  12   9     1.202955486900   124.51448520   109.01378193
 H     12   9   6     1.094807773826   109.30366149    61.10286665
 H     17  12   9     1.014552619502   110.29174801   178.79215662

---------------------------
INTERNAL COORDINATES (A.U.)
---------------------------
 C      0   0   0     0.000000000000     0.00000000     0.00000000
 C      1   0   0     2.901932221993     0.00000000     0.00000000
 H      1   2   0     3.850352033920    99.02431307     0.00000000
 H      3   1   2     3.094011204526    66.32918485   266.47819700
 N      3   1   2     1.918020362646    41.98973450   232.49816818
 C      2   1   3     2.882465741544   111.59712200   205.12433866
 H      2   1   3     2.064209637798   108.67788956   326.35830155
 H      2   1   3     2.068050916447   109.09634923    83.83817511
 C      6   2   1     2.887699538529   113.26077377   184.56699485
 H      6   2   1     2.063981398777   108.76492404   305.15807373
 H      6   2   1     2.060125101745   109.45274710    63.27676158
 C      9   6   2     2.908198710282   112.35066855   288.21547196
 H      9   6   2     2.062251080685   110.18425559    49.64722158
 H      9   6   2     2.064973520944   109.01668157   168.43177940
 C     12   9   6     2.878368121637   108.14098139   178.19691753
 H     15  12   9     3.606315119328   141.13090492   290.19969531
 N     12   9   6     2.736859029889   110.19763098   301.58962022
 O     16  15  12     1.834763852794    41.06098055   358.26613942
 H      1   2   3     2.065969066653   109.37423678    96.81176616
 H      1   2   3     2.066951863052   109.54639053   214.92495912
 H     17  12   9     1.919834668546   109.35553167   296.08644141
 O     15  12   9     2.273256421539   124.51448520   109.01378193
 H     12   9   6     2.068886861819   109.30366149    61.10286665
 H     17  12   9     1.917226599311   110.29174801   178.79215662

---------------------
BASIS SET INFORMATION
---------------------
There are 4 groups of distinct atoms

 Group   1 Type C   : 10s4p1d contracted to 3s2p1d pattern {631/31/1}
 Group   2 Type H   : 4s1p contracted to 2s1p pattern {31/1}
 Group   3 Type N   : 10s4p1d contracted to 3s2p1d pattern {631/31/1}
 Group   4 Type O   : 10s4p1d contracted to 3s2p1d pattern {631/31/1}

Atom   0C    basis set group =>   1
Atom   1C    basis set group =>   1
Atom   2H    basis set group =>   2
Atom   3H    basis set group =>   2
Atom   4N    basis set group =>   3
Atom   5C    basis set group =>   1
Atom   6H    basis set group =>   2
Atom   7H    basis set group =>   2
Atom   8C    basis set group =>   1
Atom   9H    basis set group =>   2
Atom  10H    basis set group =>   2
Atom  11C    basis set group =>   1
Atom  12H    basis set group =>   2
Atom  13H    basis set group =>   2
Atom  14C    basis set group =>   1
Atom  15H    basis set group =>   2
Atom  16N    basis set group =>   3
Atom  17O    basis set group =>   4
Atom  18H    basis set group =>   2
Atom  19H    basis set group =>   2
Atom  20H    basis set group =>   2
Atom  21O    basis set group =>   4
Atom  22H    basis set group =>   2
Atom  23H    basis set group =>   2
---------------------------------
AUXILIARY/J BASIS SET INFORMATION
---------------------------------
There are 4 groups of distinct atoms

 Group   1 Type C   : 12s5p4d2f1g contracted to 6s4p3d1f1g pattern {711111/2111/211/2/1}
 Group   2 Type H   : 5s2p1d contracted to 3s1p1d pattern {311/2/1}
 Group   3 Type N   : 12s5p4d2f1g contracted to 6s4p3d1f1g pattern {711111/2111/211/2/1}
 Group   4 Type O   : 12s5p4d2f1g contracted to 6s4p3d1f1g pattern {711111/2111/211/2/1}

Atom   0C    basis set group =>   1
Atom   1C    basis set group =>   1
Atom   2H    basis set group =>   2
Atom   3H    basis set group =>   2
Atom   4N    basis set group =>   3
Atom   5C    basis set group =>   1
Atom   6H    basis set group =>   2
Atom   7H    basis set group =>   2
Atom   8C    basis set group =>   1
Atom   9H    basis set group =>   2
Atom  10H    basis set group =>   2
Atom  11C    basis set group =>   1
Atom  12H    basis set group =>   2
Atom  13H    basis set group =>   2
Atom  14C    basis set group =>   1
Atom  15H    basis set group =>   2
Atom  16N    basis set group =>   3
Atom  17O    basis set group =>   4
Atom  18H    basis set group =>   2
Atom  19H    basis set group =>   2
Atom  20H    basis set group =>   2
Atom  21O    basis set group =>   4
Atom  22H    basis set group =>   2
Atom  23H    basis set group =>   2
------------------------------------------------------------------------------
                             ORCA STARTUP CALCULATIONS
                           -- RI-GTO INTEGRALS CHOSEN --
------------------------------------------------------------------------------
------------------------------------------------------------------------------
                   ___                                                        
                  /   \      - P O W E R E D   B Y -                         
                 /     \                                                     
                 |  |  |   _    _      __       _____    __    __             
                 |  |  |  | |  | |    /  \     |  _  \  |  |  /  |          
                  \  \/   | |  | |   /    \    | | | |  |  | /  /          
                 / \  \   | |__| |  /  /\  \   | |_| |  |  |/  /          
                |  |  |   |  __  | /  /__\  \  |    /   |      \           
                |  |  |   | |  | | |   __   |  |    \   |  |\   \          
                \     /   | |  | | |  |  |  |  | |\  \  |  | \   \       
                 \___/    |_|  |_| |__|  |__|  |_| \__\ |__|  \__/        
                                                                              
                      - O R C A' S   B I G   F R I E N D -                    
                                      &                                       
                       - I N T E G R A L  F E E D E R -                       
                                                                              
 v1 FN, 2020, v2 2021, v3 2022-2024                                           
------------------------------------------------------------------------------


----------------------
SHARK INTEGRAL PACKAGE
----------------------

Number of atoms                             ...     24
Number of basis functions                   ...    210
Number of shells                            ...    102
Maximum angular momentum                    ...      2
Integral batch strategy                     ... SHARK/LIBINT Hybrid
RI-J (if used) integral strategy            ... SPLIT-RIJ (Revised 2003 algorithm where possible)
Printlevel                                  ...      1
Contraction scheme used                     ... SEGMENTED contraction
Prescreening option                         ... SCHWARTZ
   Thresh                                   ... 2.500e-11
   Tcut                                     ... 2.500e-12
   Tpresel                                  ... 2.500e-12 
Coulomb Range Separation                    ... NOT USED
Exchange Range Separation                   ... NOT USED
Multipole approximations                    ... NOT USED
Finite Nucleus Model                        ... NOT USED
CABS basis                                  ... NOT available
Auxiliary Coulomb fitting basis             ... AVAILABLE
   # of basis functions in Aux-J            ...    644
   # of shells in Aux-J                     ...    220
   Maximum angular momentum in Aux-J        ...      4
Auxiliary J/K fitting basis                 ... NOT available
Auxiliary Correlation fitting basis         ... NOT available
Auxiliary 'external' fitting basis          ... NOT available

Checking pre-screening integrals            ... done (  0.0 sec) Dimension = 102
   => SHARK Basis and OBASIS are compatible. Storing Pre-screening
Shell pair information
Shell pair cut-off parameter TPreSel        ...   2.5e-12
Total number of shell pairs                 ...      5253
Shell pairs after pre-screening             ...      4355
Total number of primitive shell pairs       ...     24562
Primitive shell pairs kept                  ...     13313
          la=0 lb=0:   1443 shell pairs
          la=1 lb=0:   1641 shell pairs
          la=1 lb=1:    489 shell pairs
          la=2 lb=0:    471 shell pairs
          la=2 lb=1:    267 shell pairs
          la=2 lb=2:     44 shell pairs

Checking whether 4 symmetric matrices of dimension 210 fit in memory
:Max Core in MB      =   4096.00
 MB in use           =      9.20
 MB left             =   4086.80
 MB needed           =      0.68
 Data fit in memory  = YES
Calculating RI/J V-Matrix + Cholesky decomp.... done (  0.0 sec)
Calculating Nuclear repulsion               ... done (  0.0 sec) ENN=    552.814330909703 Eh

Diagonalization of the overlap matrix:
Smallest eigenvalue                        ... 2.682e-03
Time for diagonalization                   ...    0.002 sec
Threshold for overlap eigenvalues          ... 1.000e-07
Number of eigenvalues below threshold      ... 0
Time for construction of square roots      ...    0.001 sec
Total time needed                          ...    0.003 sec

-------------------
DFT GRID GENERATION
-------------------

General Integration Accuracy     IntAcc      ... 4.388
Radial Grid Type                 RadialGrid  ... OptM3 with GC (2021)
Angular Grid (max. ang.)         AngularGrid ... 4 (Lebedev-302)
Angular grid pruning method      GridPruning ... 4 (adaptive)
Weight generation scheme         WeightScheme... mBecke (2022)
Basis function cutoff            BFCut       ... 1.0000e-11
Integration weight cutoff        WCut        ... 1.0000e-14
Partially contracted basis set               ... off
Rotationally invariant grid construction     ... off
Angular grids for H and He will be reduced by one unit

Total number of grid points                  ...   104905
Total number of batches                      ...     1650
Average number of points per batch           ...       63
Average number of grid points per atom       ...     4371
Grids setup in   0.4 sec
Initializing property integral containers    ... done (  0.0 sec)

SHARK setup successfully completed in   0.5 seconds

Maximum memory used throughout the entire STARTUP-calculation: 44.1 MB
-------------------------------------------------------------------------------
                                 ORCA GUESS
                   Start orbitals & Density for SCF / CASSCF
-------------------------------------------------------------------------------

------------
SCF SETTINGS
------------
Hamiltonian:
 Density Functional     Method          .... DFT(GTOs)
 Exchange Functional    Exchange        .... B97(D)
 Correlation Functional Correlation     .... B97(D)
 Gradients option       PostSCFGGA      .... off
 RI-approximation to the Coulomb term is turned on
   Number of AuxJ basis functions       .... 644


General Settings:
 Integral files         IntName         .... 2
 Hartree-Fock type      HFTyp           .... RHF
 Total Charge           Charge          ....    0
 Multiplicity           Mult            ....    1
 Number of Electrons    NEL             ....   80
 Basis Dimension        Dim             ....  210
 Nuclear Repulsion      ENuc            ....    552.8143309097 Eh

Convergence Acceleration:
 AO-DIIS                CNVDIIS         .... on
   Start iteration      DIISMaxIt       ....    12
   Startup error        DIISStart       ....  0.200000
   # of expansion vecs  DIISMaxEq       ....     5
   Bias factor          DIISBfac        ....   1.050
   Max. coefficient     DIISMaxC        ....  10.000
 MO-DIIS                CNVKDIIS        .... off
 Trust-Rad. Augm. Hess. CNVTRAH         .... auto
   Auto Start mean grad. ratio tolernc. ....  1.125000
   Auto Start start iteration           ....    50
   Auto Start num. interpolation iter.  ....    10
   Max. Number of Micro iterations      ....    24
   Max. Number of Macro iterations      .... Maxiter - #DIIS iter
   Number of Davidson start vectors     ....     2
   Converg. threshold    (grad. norm)   ....   1.000e-05
   Grad. Scal. Fac. for Micro threshold ....   0.100
   Minimum threshold for Micro iter.    ....   1.000e-02
   NR start threshold (gradient norm)   ....   1.000e-04
   Initial trust radius                 ....   0.400
   Minimum AH scaling param. (alpha)    ....   1.000
   Maximum AH scaling param. (alpha)    .... 1000.000
   Quad. conv. algorithm                .... NR
   White noise on init. David. guess    .... on
   Maximum white noise                  ....   0.010
   Pseudo random numbers                .... off
   Inactive MOs                         .... canonical
   Orbital update algorithm             .... Taylor
   Preconditioner                       .... Diag
   Full preconditioner red. dimension   ....   250
 SOSCF                 CNVSOSCF           .... on
   Start iteration     SOSCFMaxIt         ....   150
   Startup grad/error  SOSCFStart         ....  0.003300
   Hessian update      SOSCFHessUp        .... L-BFGS
   Autom. constraints  SOSCFAutoConstrain .... off
 Level Shifting         CNVShift        .... on
   Level shift para.    LevelShift      ....    0.2500
   Turn off err/grad.   ShiftErr        ....    0.0010
 Zerner damping         CNVZerner       .... off
 Static damping         CNVDamp         .... on
   Fraction old density DampFac         ....    0.7000
   Max. Damping (<1)    DampMax         ....    0.9800
   Min. Damping (>=0)   DampMin         ....    0.0000
   Turn off err/grad.   DampErr         ....    0.1000

SCF Procedure:
 Maximum # iterations   MaxIter         ....   125
 SCF integral mode      SCFMode         .... Direct
   Integral package                     .... SHARK and LIBINT hybrid scheme
 Reset frequency        DirectResetFreq ....    20
 Integral Threshold     Thresh          ....  2.500e-11 Eh
 Primitive CutOff       TCut            ....  2.500e-12 Eh

Convergence Tolerance:
 Convergence Check Mode ConvCheckMode   .... Total+1el-Energy
 Convergence forced     ConvForced      .... 0
 Energy Change          TolE            ....  1.000e-08 Eh
 1-El. energy change                    ....  1.000e-05 Eh
 Orbital Gradient       TolG            ....  1.000e-05
 Orbital Rotation angle TolX            ....  1.000e-05
 DIIS Error             TolErr          ....  5.000e-07

------------------------------
INITIAL GUESS: MODEL POTENTIAL
------------------------------
Loading Hartree-Fock densities                     ... done
Calculating cut-offs                               ... done
Initializing the effective Hamiltonian             ... done
Setting up the integral package (SHARK)            ... done
Starting the Coulomb interaction                   ... done (   0.1 sec)
Making the grid                                    ... done (   0.1 sec)
Mapping shells                                     ... done
Starting the XC term evaluation                    ... done (   0.1 sec)
  promolecular density results
     # of electrons  =     79.991757152
     EX              =    -63.612189027
     EC              =     -3.477668718
     EX+EC           =    -67.089857744
Transforming the Hamiltonian                       ... done (   0.0 sec)
Diagonalizing the Hamiltonian                      ... done (   0.0 sec)
Back transforming the eigenvectors                 ... done (   0.0 sec)
Now organizing SCF variables                       ... done
                      ------------------
                      INITIAL GUESS DONE (   0.3 sec)
                      ------------------
             **** ENERGY FILE WAS UPDATED (2.en.tmp) ****
Finished Guess after   0.3 sec
Maximum memory used throughout the entire GUESS-calculation: 14.6 MB

-------------------------------------------------------------------------------------------
                                      ORCA LEAN-SCF
                              memory conserving SCF solver
-------------------------------------------------------------------------------------------

----------------------------------------D-I-I-S--------------------------------------------
Iteration    Energy (Eh)           Delta-E    RMSDP     MaxDP     DIISErr   Damp  Time(sec)
-------------------------------------------------------------------------------------------
               ***  Starting incremental Fock matrix formation  ***
    1    -496.2766801893111506     0.00e+00  3.52e-03  1.02e-01  2.59e-01  0.700   0.6
    2    -496.4796802070637796    -2.03e-01  2.32e-03  5.32e-02  1.03e-01  0.700   0.6
                               ***Turning on AO-DIIS***
    3    -496.5429367661362221    -6.33e-02  8.86e-04  1.76e-02  3.32e-02  0.700   0.6
    4    -496.5835707269505974    -4.06e-02  1.17e-03  1.94e-02  1.12e-02  0.000   0.6
    5    -496.6777763536289285    -9.42e-02  3.96e-04  8.79e-03  1.17e-02  0.000   0.6
    6    -496.6787429594161267    -9.67e-04  1.49e-04  2.98e-03  3.50e-03  0.000   0.6
                              *** Initializing SOSCF ***
---------------------------------------S-O-S-C-F--------------------------------------
Iteration    Energy (Eh)           Delta-E    RMSDP     MaxDP     MaxGrad    Time(sec)
--------------------------------------------------------------------------------------
    7    -496.6788232980564999    -8.03e-05  5.50e-05  1.16e-03  1.78e-03     0.5
               *** Restarting incremental Fock matrix formation ***
    8    -496.6788346381996462    -1.13e-05  3.64e-05  7.11e-04  1.03e-04     0.6
    9    -496.6788346246866013     1.35e-08  1.64e-05  4.74e-04  3.21e-04     0.5
   10    -496.6788355321078825    -9.07e-07  1.70e-05  4.50e-04  2.37e-04     0.5
   11    -496.6788354930969263     3.90e-08  7.92e-06  2.32e-04  1.30e-04     0.5
   12    -496.6788358707352700    -3.78e-07  5.25e-06  1.01e-04  1.76e-05     0.5
   13    -496.6788358650200053     5.72e-09  2.06e-06  5.55e-05  2.67e-05     0.5
                 **** Energy Check signals convergence ****

               *****************************************************
               *                     SUCCESS                       *
               *           SCF CONVERGED AFTER  13 CYCLES          *
               *****************************************************

             **** ENERGY FILE WAS UPDATED (2.en.tmp) ****

----------------
TOTAL SCF ENERGY
----------------

Total Energy       :       -496.67883589539349 Eh          -13515.31823 eV

Components:
Nuclear Repulsion  :        552.81433090970279 Eh           15042.84271 eV
Electronic Energy  :      -1049.49316680509628 Eh          -28558.16094 eV
One Electron Energy:      -1772.24223587822007 Eh          -48225.16296 eV
Two Electron Energy:        722.74906907312368 Eh           19667.00202 eV

Virial components:
Potential Energy   :       -990.77550836080763 Eh          -26960.37222 eV
Kinetic Energy     :        494.09667246541409 Eh           13445.05399 eV
Virial Ratio       :          2.00522602877914

DFT components:
N(Alpha)           :       39.999927286776 electrons
N(Beta)            :       39.999927286776 electrons
N(Total)           :       79.999854573551 electrons
E(X)               :      -65.197863120956 Eh       
E(C)               :       -3.469716664530 Eh       
E(XC)              :      -68.667579785486 Eh       

---------------
SCF CONVERGENCE
---------------

  Last Energy change         ...   -5.7153e-09  Tolerance :   1.0000e-08
  Last MAX-Density change    ...    5.5524e-05  Tolerance :   1.0000e-07
  Last RMS-Density change    ...    2.0604e-06  Tolerance :   5.0000e-09
  Last DIIS Error            ...    1.7775e-03  Tolerance :   5.0000e-07
  Last Orbital Gradient      ...    2.6744e-05  Tolerance :   1.0000e-05
  Last Orbital Rotation      ...    3.0334e-05  Tolerance :   1.0000e-05


----------------
ORBITAL ENERGIES
----------------

  NO   OCC          E(Eh)            E(eV) 
   0   2.0000     -18.814310      -511.9634 
   1   2.0000     -18.753583      -510.3109 
   2   2.0000     -13.988315      -380.6414 
   3   2.0000     -13.975192      -380.2843 
   4   2.0000     -10.026903      -272.8459 
   5   2.0000      -9.947067      -270.6735 
   6   2.0000      -9.919217      -269.9156 
   7   2.0000      -9.908786      -269.6318 
   8   2.0000      -9.895302      -269.2649 
   9   2.0000      -9.894644      -269.2469 
  10   2.0000      -1.020702       -27.7747 
  11   2.0000      -0.931854       -25.3570 
  12   2.0000      -0.817439       -22.2436 
  13   2.0000      -0.797568       -21.7029 
  14   2.0000      -0.717742       -19.5307 
  15   2.0000      -0.666733       -18.1427 
  16   2.0000      -0.618089       -16.8190 
  17   2.0000      -0.559406       -15.2222 
  18   2.0000      -0.537782       -14.6338 
  19   2.0000      -0.510536       -13.8924 
  20   2.0000      -0.457515       -12.4496 
  21   2.0000      -0.449342       -12.2272 
  22   2.0000      -0.439083       -11.9481 
  23   2.0000      -0.419912       -11.4264 
  24   2.0000      -0.394882       -10.7453 
  25   2.0000      -0.391705       -10.6588 
  26   2.0000      -0.387734       -10.5508 
  27   2.0000      -0.377879       -10.2826 
  28   2.0000      -0.356058        -9.6888 
  29   2.0000      -0.337566        -9.1856 
  30   2.0000      -0.335409        -9.1270 
  31   2.0000      -0.321885        -8.7589 
  32   2.0000      -0.300799        -8.1852 
  33   2.0000      -0.297672        -8.1001 
  34   2.0000      -0.285366        -7.7652 
  35   2.0000      -0.277826        -7.5600 
  36   2.0000      -0.272798        -7.4232 
  37   2.0000      -0.224114        -6.0984 
  38   2.0000      -0.197550        -5.3756 
  39   2.0000      -0.176231        -4.7955 
  40   0.0000      -0.015682        -0.4267 
  41   0.0000       0.050737         1.3806 
  42   0.0000       0.063477         1.7273 
  43   0.0000       0.071163         1.9364 
  44   0.0000       0.089199         2.4272 
  45   0.0000       0.099773         2.7150 
  46   0.0000       0.108864         2.9623 
  47   0.0000       0.121290         3.3005 
  48   0.0000       0.140140         3.8134 
  49   0.0000       0.142844         3.8870 
  50   0.0000       0.155812         4.2399 
*Only the first 10 virtual orbitals were printed.

                    ********************************
                    * MULLIKEN POPULATION ANALYSIS *
                    ********************************

-----------------------
MULLIKEN ATOMIC CHARGES
-----------------------
   0 C :   -0.084167
   1 C :   -0.196018
   2 H :    0.231092
   3 H :    0.230362
   4 N :   -0.574181
   5 C :   -0.182671
   6 H :    0.093110
   7 H :    0.085515
   8 C :   -0.198653
   9 H :    0.091928
  10 H :    0.126126
  11 C :   -0.044372
  12 H :    0.116967
  13 H :    0.098305
  14 C :    0.484063
  15 H :    0.317538
  16 N :   -0.550509
  17 O :   -0.455548
  18 H :    0.108909
  19 H :    0.103825
  20 H :    0.245794
  21 O :   -0.418139
  22 H :    0.125937
  23 H :    0.244786
Sum of atomic charges:   -0.0000000

--------------------------------
MULLIKEN REDUCED ORBITAL CHARGES
--------------------------------
  0 C s       :     3.197101  s :     3.197101
      pz      :     1.061945  p :     2.834629
      px      :     0.894934
      py      :     0.877750
      dz2     :     0.007665  d :     0.052437
      dxz     :     0.006124
      dyz     :     0.011471
      dx2y2   :     0.014486
      dxy     :     0.012692

  1 C s       :     3.225382  s :     3.225382
      pz      :     1.019382  p :     2.934297
      px      :     0.942675
      py      :     0.972241
      dz2     :     0.005593  d :     0.036339
      dxz     :     0.005386
      dyz     :     0.010573
      dx2y2   :     0.007946
      dxy     :     0.006840

  2 H s       :     0.744953  s :     0.744953
      pz      :     0.009848  p :     0.023955
      px      :     0.008133
      py      :     0.005973

  3 H s       :     0.745685  s :     0.745685
      pz      :     0.008658  p :     0.023953
      px      :     0.008043
      py      :     0.007251

  4 N s       :     3.588598  s :     3.588598
      pz      :     1.132145  p :     3.956812
      px      :     1.726953
      py      :     1.097714
      dz2     :     0.002615  d :     0.028770
      dxz     :     0.004744
      dyz     :     0.010522
      dx2y2   :     0.003388
      dxy     :     0.007501

  5 C s       :     3.221047  s :     3.221047
      pz      :     1.032862  p :     2.924914
      px      :     0.915937
      py      :     0.976115
      dz2     :     0.005679  d :     0.036710
      dxz     :     0.005316
      dyz     :     0.010033
      dx2y2   :     0.008178
      dxy     :     0.007504

  6 H s       :     0.895307  s :     0.895307
      pz      :     0.005186  p :     0.011583
      px      :     0.003083
      py      :     0.003314

  7 H s       :     0.903054  s :     0.903054
      pz      :     0.004760  p :     0.011432
      px      :     0.002771
      py      :     0.003901

  8 C s       :     3.234998  s :     3.234998
      pz      :     0.949591  p :     2.927192
      px      :     0.959004
      py      :     1.018597
      dz2     :     0.005698  d :     0.036463
      dxz     :     0.007642
      dyz     :     0.008355
      dx2y2   :     0.007997
      dxy     :     0.006771

  9 H s       :     0.896472  s :     0.896472
      pz      :     0.004979  p :     0.011601
      px      :     0.003126
      py      :     0.003496

 10 H s       :     0.861848  s :     0.861848
      pz      :     0.005658  p :     0.012026
      px      :     0.002639
      py      :     0.003729

 11 C s       :     3.196024  s :     3.196024
      pz      :     0.903167  p :     2.790860
      px      :     0.918226
      py      :     0.969467
      dz2     :     0.011817  d :     0.057487
      dxz     :     0.011553
      dyz     :     0.012753
      dx2y2   :     0.013263
      dxy     :     0.008100

 12 H s       :     0.871467  s :     0.871467
      pz      :     0.004529  p :     0.011566
      px      :     0.002678
      py      :     0.004359

 13 H s       :     0.890154  s :     0.890154
      pz      :     0.002893  p :     0.011541
      px      :     0.003035
      py      :     0.005614

 14 C s       :     2.988150  s :     2.988150
      pz      :     0.764496  p :     2.403378
      px      :     0.908398
      py      :     0.730484
      dz2     :     0.018042  d :     0.124409
      dxz     :     0.016967
      dyz     :     0.024408
      dx2y2   :     0.040547
      dxy     :     0.024443

 15 H s       :     0.644552  s :     0.644552
      pz      :     0.009078  p :     0.037910
      px      :     0.021043
      py      :     0.007789

 16 N s       :     3.585675  s :     3.585675
      pz      :     1.114972  p :     3.936411
      px      :     1.701356
      py      :     1.120083
      dz2     :     0.005360  d :     0.028423
      dxz     :     0.007680
      dyz     :     0.004968
      dx2y2   :     0.003302
      dxy     :     0.007113

 17 O s       :     3.824391  s :     3.824391
      pz      :     1.635927  p :     4.608456
      px      :     1.404974
      py      :     1.567555
      dz2     :     0.004503  d :     0.022701
      dxz     :     0.001734
      dyz     :     0.005300
      dx2y2   :     0.008579
      dxy     :     0.002585

 18 H s       :     0.880303  s :     0.880303
      pz      :     0.004668  p :     0.010787
      px      :     0.002611
      py      :     0.003509

 19 H s       :     0.885399  s :     0.885399
      pz      :     0.005164  p :     0.010777
      px      :     0.002807
      py      :     0.002806

 20 H s       :     0.730274  s :     0.730274
      pz      :     0.004827  p :     0.023932
      px      :     0.008660
      py      :     0.010445

 21 O s       :     3.854974  s :     3.854974
      pz      :     1.491165  p :     4.535102
      px      :     1.546320
      py      :     1.497617
      dz2     :     0.004028  d :     0.028064
      dxz     :     0.005809
      dyz     :     0.004070
      dx2y2   :     0.007068
      dxy     :     0.007088

 22 H s       :     0.862919  s :     0.862919
      pz      :     0.002309  p :     0.011144
      px      :     0.003202
      py      :     0.005633

 23 H s       :     0.731292  s :     0.731292
      pz      :     0.010207  p :     0.023922
      px      :     0.008686
      py      :     0.005029



                     *******************************
                     * LOEWDIN POPULATION ANALYSIS *
                     *******************************

----------------------
LOEWDIN ATOMIC CHARGES
----------------------
   0 C :   -0.073176
   1 C :   -0.145099
   2 H :    0.118942
   3 H :    0.118676
   4 N :   -0.268836
   5 C :   -0.127221
   6 H :    0.060278
   7 H :    0.058138
   8 C :   -0.117488
   9 H :    0.065236
  10 H :    0.076634
  11 C :   -0.052084
  12 H :    0.074009
  13 H :    0.068473
  14 C :    0.100913
  15 H :    0.181510
  16 N :   -0.242298
  17 O :   -0.142046
  18 H :    0.067084
  19 H :    0.064611
  20 H :    0.127944
  21 O :   -0.223610
  22 H :    0.081149
  23 H :    0.128262

-------------------------------
LOEWDIN REDUCED ORBITAL CHARGES
-------------------------------
  0 C s       :     2.890976  s :     2.890976
      pz      :     1.087137  p :     3.066872
      px      :     1.004768
      py      :     0.974967
      dz2     :     0.017376  d :     0.115328
      dxz     :     0.011339
      dyz     :     0.023076
      dx2y2   :     0.035942
      dxy     :     0.027596

  1 C s       :     2.911696  s :     2.911696
      pz      :     1.072552  p :     3.151639
      px      :     1.032208
      py      :     1.046878
      dz2     :     0.013475  d :     0.081764
      dxz     :     0.010541
      dyz     :     0.021431
      dx2y2   :     0.020155
      dxy     :     0.016160

  2 H s       :     0.802439  s :     0.802439
      pz      :     0.034466  p :     0.078619
      px      :     0.026011
      py      :     0.018143

  3 H s       :     0.802745  s :     0.802745
      pz      :     0.029379  p :     0.078579
      px      :     0.025145
      py      :     0.024055

  4 N s       :     3.197885  s :     3.197885
      pz      :     1.161651  p :     4.012714
      px      :     1.693233
      py      :     1.157830
      dz2     :     0.008166  d :     0.058237
      dxz     :     0.006101
      dyz     :     0.023094
      dx2y2   :     0.006751
      dxy     :     0.014125

  5 C s       :     2.895788  s :     2.895788
      pz      :     1.084142  p :     3.149242
      px      :     1.011948
      py      :     1.053151
      dz2     :     0.013503  d :     0.082191
      dxz     :     0.010867
      dyz     :     0.019841
      dx2y2   :     0.020464
      dxy     :     0.017516

  6 H s       :     0.900183  s :     0.900183
      pz      :     0.019350  p :     0.039539
      px      :     0.009451
      py      :     0.010738

  7 H s       :     0.903025  s :     0.903025
      pz      :     0.017290  p :     0.038837
      px      :     0.008213
      py      :     0.013334

  8 C s       :     2.903633  s :     2.903633
      pz      :     1.028817  p :     3.132430
      px      :     1.029346
      py      :     1.074267
      dz2     :     0.013576  d :     0.081426
      dxz     :     0.017336
      dyz     :     0.017535
      dx2y2   :     0.019207
      dxy     :     0.013771

  9 H s       :     0.895588  s :     0.895588
      pz      :     0.018279  p :     0.039177
      px      :     0.009622
      py      :     0.011276

 10 H s       :     0.881845  s :     0.881845
      pz      :     0.020921  p :     0.041521
      px      :     0.007586
      py      :     0.013013

 11 C s       :     2.880056  s :     2.880056
      pz      :     0.999310  p :     3.041019
      px      :     1.015217
      py      :     1.026492
      dz2     :     0.026113  d :     0.131009
      dxz     :     0.026848
      dyz     :     0.029175
      dx2y2   :     0.031644
      dxy     :     0.017229

 12 H s       :     0.885950  s :     0.885950
      pz      :     0.016642  p :     0.040041
      px      :     0.007984
      py      :     0.015415

 13 H s       :     0.892037  s :     0.892037
      pz      :     0.008522  p :     0.039490
      px      :     0.009751
      py      :     0.021217

 14 C s       :     2.858174  s :     2.858174
      pz      :     0.826920  p :     2.743175
      px      :     1.035345
      py      :     0.880910
      dz2     :     0.041093  d :     0.297738
      dxz     :     0.037358
      dyz     :     0.062182
      dx2y2   :     0.099116
      dxy     :     0.057989

 15 H s       :     0.702735  s :     0.702735
      pz      :     0.025654  p :     0.115755
      px      :     0.068126
      py      :     0.021976

 16 N s       :     3.194308  s :     3.194308
      pz      :     1.155224  p :     3.990119
      px      :     1.674862
      py      :     1.160033
      dz2     :     0.013247  d :     0.057871
      dxz     :     0.012020
      dyz     :     0.014879
      dx2y2   :     0.006759
      dxy     :     0.010966

 17 O s       :     3.470464  s :     3.470464
      pz      :     1.628409  p :     4.620686
      px      :     1.413196
      py      :     1.579081
      dz2     :     0.007922  d :     0.050897
      dxz     :     0.004884
      dyz     :     0.013236
      dx2y2   :     0.018115
      dxy     :     0.006739

 18 H s       :     0.895086  s :     0.895086
      pz      :     0.017484  p :     0.037830
      px      :     0.007501
      py      :     0.012845

 19 H s       :     0.897720  s :     0.897720
      pz      :     0.019545  p :     0.037669
      px      :     0.008472
      py      :     0.009652

 20 H s       :     0.792921  s :     0.792921
      pz      :     0.013263  p :     0.079135
      px      :     0.027586
      py      :     0.038286

 21 O s       :     3.554373  s :     3.554373
      pz      :     1.488763  p :     4.611208
      px      :     1.596899
      py      :     1.525546
      dz2     :     0.007674  d :     0.058030
      dxz     :     0.010456
      dyz     :     0.008515
      dx2y2   :     0.013025
      dxy     :     0.018360

 22 H s       :     0.878767  s :     0.878767
      pz      :     0.007901  p :     0.040084
      px      :     0.010359
      py      :     0.021823

 23 H s       :     0.792875  s :     0.792875
      pz      :     0.036114  p :     0.078863
      px      :     0.028787
      py      :     0.013961



                      *****************************
                      * MAYER POPULATION ANALYSIS *
                      *****************************

  NA   - Mulliken gross atomic population
  ZA   - Total nuclear charge
  QA   - Mulliken gross atomic charge
  VA   - Mayer's total valence
  BVA  - Mayer's bonded valence
  FA   - Mayer's free valence

  ATOM       NA         ZA         QA         VA         BVA        FA
  0 C      6.0842     6.0000    -0.0842     3.9121     3.9121     0.0000
  1 C      6.1960     6.0000    -0.1960     3.8777     3.8777     0.0000
  2 H      0.7689     1.0000     0.2311     0.9238     0.9238     0.0000
  3 H      0.7696     1.0000     0.2304     0.9240     0.9240    -0.0000
  4 N      7.5742     7.0000    -0.5742     2.8876     2.8876     0.0000
  5 C      6.1827     6.0000    -0.1827     3.8759     3.8759    -0.0000
  6 H      0.9069     1.0000     0.0931     0.9589     0.9589     0.0000
  7 H      0.9145     1.0000     0.0855     0.9581     0.9581    -0.0000
  8 C      6.1987     6.0000    -0.1987     3.8786     3.8786     0.0000
  9 H      0.9081     1.0000     0.0919     0.9534     0.9534     0.0000
 10 H      0.8739     1.0000     0.1261     0.9654     0.9654    -0.0000
 11 C      6.0444     6.0000    -0.0444     3.8652     3.8652    -0.0000
 12 H      0.8830     1.0000     0.1170     0.9578     0.9578    -0.0000
 13 H      0.9017     1.0000     0.0983     0.9546     0.9546    -0.0000
 14 C      5.5159     6.0000     0.4841     3.9618     3.9618    -0.0000
 15 H      0.6825     1.0000     0.3175     0.9179     0.9179    -0.0000
 16 N      7.5505     7.0000    -0.5505     2.9197     2.9197     0.0000
 17 O      8.4555     8.0000    -0.4555     2.0289     2.0289    -0.0000
 18 H      0.8911     1.0000     0.1089     0.9507     0.9507    -0.0000
 19 H      0.8962     1.0000     0.1038     0.9514     0.9514    -0.0000
 20 H      0.7542     1.0000     0.2458     0.9289     0.9289     0.0000
 21 O      8.4181     8.0000    -0.4181     2.1178     2.1178    -0.0000
 22 H      0.8741     1.0000     0.1259     0.9526     0.9526    -0.0000
 23 H      0.7552     1.0000     0.2448     0.9217     0.9217     0.0000

  Mayer bond orders larger than 0.100000
B(  0-C ,  1-C ) :   0.9836 B(  0-C ,  4-N ) :   1.0277 B(  0-C , 18-H ) :   0.9504 
B(  0-C , 19-H ) :   0.9505 B(  1-C ,  5-C ) :   0.9995 B(  1-C ,  6-H ) :   0.9452 
B(  1-C ,  7-H ) :   0.9484 B(  2-H ,  4-N ) :   0.9151 B(  3-H ,  4-N ) :   0.9154 
B(  5-C ,  8-C ) :   0.9977 B(  5-C ,  9-H ) :   0.9458 B(  5-C , 10-H ) :   0.9330 
B(  8-C , 11-C ) :   0.9792 B(  8-C , 12-H ) :   0.9408 B(  8-C , 13-H ) :   0.9423 
B( 11-C , 14-C ) :   0.8994 B( 11-C , 16-N ) :   1.0525 B( 11-C , 22-H ) :   0.9179 
B( 14-C , 17-O ) :   1.0793 B( 14-C , 21-O ) :   1.9333 B( 15-H , 17-O ) :   0.8515 
B( 16-N , 20-H ) :   0.9004 B( 16-N , 23-H ) :   0.9075 

-------
TIMINGS
-------

Total SCF time: 0 days 0 hours 0 min 7 sec 

Total time                  ....       7.814 sec
Sum of individual times     ....       7.269 sec  ( 93.0%)

SCF preparation             ....       0.029 sec  (  0.4%)
Fock matrix formation       ....       7.145 sec  ( 91.4%)
  Startup                   ....       0.001 sec  (  0.0% of F)
  Split-RI-J                ....       2.638 sec  ( 36.9% of F)
  XC integration            ....       4.969 sec  ( 69.5% of F)
    Basis function eval.    ....       1.772 sec  ( 35.7% of XC)
    Density eval.           ....       1.086 sec  ( 21.9% of XC)
    XC-Functional eval.     ....       0.896 sec  ( 18.0% of XC)
    XC-Potential eval.      ....       1.083 sec  ( 21.8% of XC)
Diagonalization             ....       0.000 sec  (  0.0%)
Density matrix formation    ....       0.005 sec  (  0.1%)
Total Energy calculation    ....       0.001 sec  (  0.0%)
Population analysis         ....       0.020 sec  (  0.3%)
Orbital Transformation      ....       0.009 sec  (  0.1%)
Orbital Orthonormalization  ....       0.000 sec  (  0.0%)
DIIS solution               ....       0.039 sec  (  0.5%)
SOSCF solution              ....       0.020 sec  (  0.3%)
Finished LeanSCF after   7.8 sec

Maximum memory used throughout the entire LEANSCF-calculation: 23.2 MB



-------------------------------------------------------------------------------
                          DFT DISPERSION CORRECTION                            
-------------------------------------------------------------------------------
Active option DFTDOPT                   ...         2   
Final C6-coefficient scaling factor     ...     1.250
Final VDW-radii scaling factor          ...     1.100
Damping factor alpha                    ...    20.000
-------------------------   ----------------
Dispersion correction           -0.034598739
-------------------------   ----------------


-------------------------   --------------------
FINAL SINGLE POINT ENERGY      -496.713434634079
-------------------------   --------------------

------------------------------------------------------------------------------
                         ORCA SCF GRADIENT CALCULATION
------------------------------------------------------------------------------

Nuc. rep. gradient        (SHARK) ... done (  0.0 sec)
HCore & Overlap gradient  (SHARK) ... done (  0.2 sec)
Split-RIJ-J gradient      (SHARK) ... done (  0.7 sec)
XC gradient                       ... done (  3.0 sec)
Dispersion correction             ... done (  0.0 sec)

-------------------
DISPERSION GRADIENT
-------------------

   1   C   :    0.000161634    0.001176759   -0.000044544
   2   C   :   -0.001514318   -0.001306634    0.000402245
   3   H   :   -0.000657004    0.000730095    0.000068870
   4   H   :   -0.000623704    0.000682897   -0.000278942
   5   N   :   -0.000350983   -0.000571661    0.000048064
   6   C   :    0.000931099    0.000623530    0.000378716
   7   H   :   -0.000606588    0.000517885    0.000636491
   8   H   :   -0.000049374    0.000266371   -0.000468135
   9   C   :   -0.000466124   -0.000223360   -0.000384930
  10   H   :    0.000204685   -0.000511512   -0.000416020
  11   H   :   -0.000089998   -0.000496241    0.000744990
  12   C   :    0.001146305   -0.000816781    0.000414563
  13   H   :    0.000229668   -0.001017273    0.000338918
  14   H   :   -0.000055828    0.000451726    0.000900770
  15   C   :    0.000185667    0.000493431   -0.000161398
  16   H   :    0.000168588   -0.000293557   -0.000232024
  17   N   :    0.000617453    0.000432500    0.000094030
  18   O   :    0.000759703    0.000123644   -0.000133652
  19   H   :   -0.000774634    0.000075331    0.000601451
  20   H   :   -0.000713914   -0.000023348   -0.000663290
  21   H   :    0.000017392   -0.000450397   -0.001108726
  22   O   :    0.000591885    0.000687826    0.000366455
  23   H   :    0.001090266    0.000020616   -0.000448382
  24   H   :   -0.000201876   -0.000571845   -0.000655521

Difference to translation invariance:
           :    0.0000000000    0.0000000000    0.0000000000

Difference to rotation invariance:
           :    0.0000000000    0.0000000000   -0.0000000000

Norm of the Dispersion gradient    ...    0.0049893512
RMS gradient                       ...    0.0005880007
MAX gradient                       ...    0.0015143184

------------------
CARTESIAN GRADIENT
------------------

   1   C   :   -0.004398248   -0.005376937    0.000700130
   2   C   :    0.003425952    0.007318599   -0.000108430
   3   H   :   -0.002583927   -0.002754849    0.002112870
   4   H   :   -0.002419682   -0.003139884   -0.001697869
   5   N   :    0.013688351   -0.003560460    0.001021405
   6   C   :   -0.001894734   -0.002618613   -0.002423599
   7   H   :   -0.002186795   -0.004338693    0.004998084
   8   H   :   -0.001653775   -0.004948773   -0.004072841
   9   C   :    0.005081926   -0.000481178    0.002556578
  10   H   :    0.003083151    0.003874125   -0.004855676
  11   H   :    0.002029594    0.004343066    0.003872686
  12   C   :   -0.001822271    0.001106285   -0.000752570
  13   H   :   -0.001941614   -0.002520212   -0.004892895
  14   H   :   -0.004481728    0.005031036   -0.002424383
  15   C   :    0.007715180   -0.003842153    0.002384476
  16   H   :   -0.003704357    0.004626748    0.002450557
  17   N   :    0.010319506    0.000986972    0.004727210
  18   O   :    0.006841856   -0.023725886   -0.015314220
  19   H   :    0.000917493    0.005538428    0.002985655
  20   H   :    0.000954043    0.004932027   -0.003882486
  21   H   :   -0.003786337    0.001924352   -0.000395634
  22   O   :   -0.022034067    0.021496075    0.010618700
  23   H   :    0.002216376   -0.003799224    0.000319684
  24   H   :   -0.003365893   -0.000070852    0.002072570

Difference to translation invariance:
           :   -0.0000000000    0.0000000000   -0.0000000000

Difference to rotation invariance:
           :    0.0002087472    0.0002705086    0.0007660390

Norm of the Cartesian gradient     ...    0.0544043484
RMS gradient                       ...    0.0064116139
MAX gradient                       ...    0.0237258856

-------
TIMINGS
-------

Total SCF gradient time     ....        3.919 sec

Densities                   ....       0.000 sec  (  0.0%)
One electron gradient       ....       0.161 sec  (  4.1%)
RI-J Coulomb gradient       ....       0.726 sec  ( 18.5%)
XC gradient                 ....       3.031 sec  ( 77.3%)

Maximum memory used throughout the entire SCFGRAD-calculation: 29.4 MB
------------------------------------------------------------------------------
                         ORCA GEOMETRY RELAXATION STEP
------------------------------------------------------------------------------

Reading the OPT-File                    .... done
Getting information on internals        .... done
Copying old internal coords+grads       .... done
Making the new internal coordinates     .... (2022 redundants) done
Validating the new internal coordinates .... (2022 redundants) done
Calculating the B-matrix                .... done
Calculating the G,G- and P matrices     .... done
Transforming gradient to internals      .... done
Projecting the internal gradient        .... done
Number of atoms                         ....  24
Number of internal coordinates          .... 104
Current Energy                          ....  -496.713434634 Eh
Current gradient norm                   ....     0.054404348 Eh/bohr
Maximum allowed component of the step   ....  0.300
Current trust radius                    ....  0.300
Evaluating the initial hessian          ....  (Almloef) done
Projecting the Hessian                  .... done
Forming the augmented Hessian           .... done
Diagonalizing the augmented Hessian     .... done
Last element of RFO vector              ....  0.985211756
Lowest eigenvalues of augmented Hessian:
 -0.005695489  0.010497495  0.010719465  0.010957844  0.011433997
Length of the computed step             ....  0.173913038
The final length of the internal step   ....  0.173913038
Converting the step to Cartesian space:
 Initial RMS(Int)=    0.0170535764
Transforming coordinates:
 Iter   0:  RMS(Cart)=    0.0410415323 RMS(Int)=    0.0170801746
done
Storing new coordinates                 .... done

                                .--------------------.
          ----------------------|Geometry convergence|-------------------------
          Item                value                   Tolerance       Converged
          ---------------------------------------------------------------------
          RMS gradient        0.0052176192            0.0001000000      NO
          MAX gradient        0.0325196845            0.0003000000      NO
          RMS step            0.0170535764            0.0020000000      NO
          MAX step            0.0467968981            0.0040000000      NO
          -------------------------------------------------------------------------
          ........................................................
          Max(Bonds)      0.0170      Max(Angles)    1.58
          Max(Dihed)        2.68      Max(Improp)    0.00
          ---------------------------------------------------------------------

The optimization has not yet converged - more geometry cycles are needed


    ---------------------------------------------------------------------------
                         Redundant Internal Coordinates
                            (Angstroem and degrees)

        Definition                    Value    dE/dq     Step     New-Value
    ----------------------------------------------------------------------------
     1. B(C   1,C   0)                1.5356 -0.005698  0.0081    1.5438   
     2. B(N   4,H   2)                1.0150 -0.003740  0.0046    1.0196   
     3. B(N   4,C   0)                1.4517 -0.012649  0.0148    1.4665   
     4. B(N   4,H   3)                1.0151 -0.003722  0.0046    1.0197   
     5. B(C   5,C   1)                1.5253 -0.008400  0.0115    1.5369   
     6. B(H   6,C   1)                1.0923 -0.006818  0.0099    1.1023   
     7. B(H   7,C   1)                1.0944 -0.006452  0.0095    1.1038   
     8. B(C   8,C   5)                1.5281 -0.008654  0.0120    1.5401   
     9. B(H   9,C   5)                1.0922 -0.006857  0.0100    1.1022   
    10. B(H  10,C   5)                1.0902 -0.005930  0.0086    1.0988   
    11. B(C  11,C   8)                1.5390 -0.009051  0.0130    1.5520   
    12. B(H  12,C   8)                1.0913 -0.005581  0.0081    1.0994   
    13. B(H  13,C   8)                1.0927 -0.006802  0.0099    1.1027   
    14. B(C  14,C  11)                1.5232 -0.011025  0.0150    1.5382   
    15. B(N  16,C  11)                1.4483 -0.007112  0.0082    1.4565   
    16. B(O  17,H  15)                0.9709 -0.002916  0.0031    0.9740   
    17. B(O  17,C  14)                1.3381 -0.021915  0.0170    1.3550   
    18. B(H  18,C   0)                1.0933 -0.005819  0.0085    1.1018   
    19. B(H  19,C   0)                1.0938 -0.005719  0.0084    1.1022   
    20. B(H  20,N  16)                1.0159 -0.003292  0.0041    1.0200   
    21. B(O  21,C  14)                1.2030 -0.032520  0.0154    1.2183   
    22. B(H  22,C  11)                1.0948 -0.004259  0.0063    1.1011   
    23. B(H  23,N  16)                1.0146 -0.003275  0.0040    1.0186   
    24. A(C   1,C   0,H  19)          109.55  0.001735   -0.40    109.14   
    25. A(C   1,C   0,N   4)          114.83 -0.004493    0.94    115.76   
    26. A(N   4,C   0,H  18)          107.52  0.000038    0.25    107.76   
    27. A(C   1,C   0,H  18)          109.37  0.001798   -0.34    109.04   
    28. A(H  18,C   0,H  19)          107.93  0.001394   -0.82    107.11   
    29. A(N   4,C   0,H  19)          107.42 -0.000219    0.29    107.70   
    30. A(C   5,C   1,H   6)          109.81  0.000489   -0.00    109.81   
    31. A(C   5,C   1,H   7)          109.63 -0.000759    0.07    109.70   
    32. A(C   0,C   1,H   6)          108.68  0.001748   -0.23    108.45   
    33. A(C   0,C   1,C   5)          111.60 -0.004117    0.79    112.39   
    34. A(H   6,C   1,H   7)          107.96  0.001487   -0.58    107.37   
    35. A(C   0,C   1,H   7)          109.10  0.001359   -0.10    109.00   
    36. A(C   0,N   4,H   3)          110.16  0.000812   -0.36    109.80   
    37. A(C   0,N   4,H   2)          110.12  0.000767   -0.35    109.77   
    38. A(H   2,N   4,H   3)          107.51  0.001403   -0.76    106.75   
    39. A(C   8,C   5,H  10)          108.57 -0.000973    0.06    108.63   
    40. A(C   1,C   5,H  10)          109.45  0.000827   -0.18    109.28   
    41. A(C   8,C   5,H   9)          108.40 -0.000134    0.17    108.57   
    42. A(C   1,C   5,H   9)          108.76 -0.000068    0.15    108.92   
    43. A(C   1,C   5,C   8)          113.26 -0.000911    0.23    113.50   
    44. A(H   9,C   5,H  10)          108.28  0.001362   -0.47    107.81   
    45. A(H  12,C   8,H  13)          108.35  0.000799   -0.49    107.86   
    46. A(C  11,C   8,H  12)          108.75  0.001267   -0.33    108.42   
    47. A(C  11,C   8,H  13)          108.08  0.001472   -0.23    107.86   
    48. A(C   5,C   8,H  13)          109.02 -0.000891    0.47    109.49   
    49. A(C   5,C   8,H  12)          110.18  0.001254   -0.20    109.98   
    50. A(C   5,C   8,C  11)          112.35 -0.003751    0.74    113.09   
    51. A(C  14,C  11,N  16)          112.54 -0.000152    0.35    112.90   
    52. A(C   8,C  11,N  16)          110.20 -0.000609    0.39    110.59   
    53. A(C   8,C  11,C  14)          108.14 -0.001200    0.51    108.65   
[...]
      dz2     :     0.004733  d :     0.023081
      dxz     :     0.001576
      dyz     :     0.005619
      dx2y2   :     0.008422
      dxy     :     0.002732

 18 H s       :     0.879827  s :     0.879827
      pz      :     0.004104  p :     0.010654
      px      :     0.002619
      py      :     0.003931

 19 H s       :     0.885469  s :     0.885469
      pz      :     0.005493  p :     0.010645
      px      :     0.002696
      py      :     0.002457

 20 H s       :     0.730358  s :     0.730358
      pz      :     0.004568  p :     0.023628
      px      :     0.008641
      py      :     0.010420

 21 O s       :     3.869912  s :     3.869912
      pz      :     1.490071  p :     4.527279
      px      :     1.558585
      py      :     1.478623
      dz2     :     0.004225  d :     0.027331
      dxz     :     0.005508
      dyz     :     0.004143
      dx2y2   :     0.006705
      dxy     :     0.006750

 22 H s       :     0.860868  s :     0.860868
      pz      :     0.002026  p :     0.011025
      px      :     0.003093
      py      :     0.005907

 23 H s       :     0.733046  s :     0.733046
      pz      :     0.009637  p :     0.023601
      px      :     0.008371
      py      :     0.005594



                     *******************************
                     * LOEWDIN POPULATION ANALYSIS *
                     *******************************

----------------------
LOEWDIN ATOMIC CHARGES
----------------------
   0 C :   -0.072812
   1 C :   -0.147155
   2 H :    0.120778
   3 H :    0.120263
   4 N :   -0.274783
   5 C :   -0.125021
   6 H :    0.063803
   7 H :    0.058111
   8 C :   -0.118412
   9 H :    0.067108
  10 H :    0.076326
  11 C :   -0.051723
  12 H :    0.074839
  13 H :    0.069737
  14 C :    0.124065
  15 H :    0.183258
  16 N :   -0.250567
  17 O :   -0.160346
  18 H :    0.067633
  19 H :    0.064694
  20 H :    0.129950
  21 O :   -0.231472
  22 H :    0.082179
  23 H :    0.129550

-------------------------------
LOEWDIN REDUCED ORBITAL CHARGES
-------------------------------
  0 C s       :     2.900451  s :     2.900451
      pz      :     1.084123  p :     3.062564
      px      :     1.004628
      py      :     0.973812
      dz2     :     0.017637  d :     0.109797
      dxz     :     0.011448
      dyz     :     0.021306
      dx2y2   :     0.033652
      dxy     :     0.025754

  1 C s       :     2.919332  s :     2.919332
      pz      :     1.073223  p :     3.148436
      px      :     1.030824
      py      :     1.044388
      dz2     :     0.013963  d :     0.079388
      dxz     :     0.010656
      dyz     :     0.019102
      dx2y2   :     0.020196
      dxy     :     0.015470

  2 H s       :     0.802583  s :     0.802583
      pz      :     0.036372  p :     0.076639
      px      :     0.025208
      py      :     0.015059

  3 H s       :     0.803135  s :     0.803135
      pz      :     0.024841  p :     0.076602
      px      :     0.024986
      py      :     0.026775

  4 N s       :     3.226703  s :     3.226703
      pz      :     1.163462  p :     3.990948
      px      :     1.678492
      py      :     1.148994
      dz2     :     0.009099  d :     0.057132
      dxz     :     0.007796
      dyz     :     0.019040
      dx2y2   :     0.006528
      dxy     :     0.014669

  5 C s       :     2.904470  s :     2.904470
      pz      :     1.078561  p :     3.140900
      px      :     1.010414
      py      :     1.051925
      dz2     :     0.013453  d :     0.079651
      dxz     :     0.010705
      dyz     :     0.018927
      dx2y2   :     0.020205
      dxy     :     0.016360

  6 H s       :     0.897631  s :     0.897631
      pz      :     0.020906  p :     0.038566
      px      :     0.008841
      py      :     0.008819

  7 H s       :     0.904236  s :     0.904236
      pz      :     0.014690  p :     0.037653
      px      :     0.008153
      py      :     0.014810

  8 C s       :     2.912772  s :     2.912772
      pz      :     1.027875  p :     3.126904
      px      :     1.027177
      py      :     1.071852
      dz2     :     0.014049  d :     0.078736
      dxz     :     0.016126
      dyz     :     0.016174
      dx2y2   :     0.018354
      dxy     :     0.014033

  9 H s       :     0.894947  s :     0.894947
      pz      :     0.019365  p :     0.037945
      px      :     0.008998
      py      :     0.009583

 10 H s       :     0.884101  s :     0.884101
      pz      :     0.017892  p :     0.039573
      px      :     0.007423
      py      :     0.014258

 11 C s       :     2.890171  s :     2.890171
      pz      :     0.987496  p :     3.035892
      px      :     1.009036
      py      :     1.039360
      dz2     :     0.029006  d :     0.125660
      dxz     :     0.025926
      dyz     :     0.025290
      dx2y2   :     0.031082
      dxy     :     0.014356

 12 H s       :     0.886209  s :     0.886209
      pz      :     0.017491  p :     0.038953
      px      :     0.007871
      py      :     0.013591

 13 H s       :     0.891923  s :     0.891923
      pz      :     0.007525  p :     0.038340
      px      :     0.009472
      py      :     0.021344

 14 C s       :     2.874055  s :     2.874055
      pz      :     0.826702  p :     2.724272
      px      :     1.027706
      py      :     0.869864
      dz2     :     0.041096  d :     0.277608
      dxz     :     0.035716
      dyz     :     0.059124
      dx2y2   :     0.088164
      dxy     :     0.053509

 15 H s       :     0.702684  s :     0.702684
      pz      :     0.024114  p :     0.114058
      px      :     0.068089
      py      :     0.021854

 16 N s       :     3.218842  s :     3.218842
      pz      :     1.145319  p :     3.974276
      px      :     1.661449
      py      :     1.167507
      dz2     :     0.013612  d :     0.057449
      dxz     :     0.012256
      dyz     :     0.013918
      dx2y2   :     0.005129
      dxy     :     0.012533

 17 O s       :     3.497315  s :     3.497315
      pz      :     1.627999  p :     4.614511
      px      :     1.391081
      py      :     1.595431
      dz2     :     0.008053  d :     0.048520
      dxz     :     0.004243
      dyz     :     0.013123
      dx2y2   :     0.017045
      dxy     :     0.006056

 18 H s       :     0.895329  s :     0.895329
      pz      :     0.014772  p :     0.037039
      px      :     0.007551
      py      :     0.014715

 19 H s       :     0.898416  s :     0.898416
      pz      :     0.020883  p :     0.036891
      px      :     0.007920
      py      :     0.008088

 20 H s       :     0.792502  s :     0.792502
      pz      :     0.011715  p :     0.077548
      px      :     0.027911
      py      :     0.037922

 21 O s       :     3.568891  s :     3.568891
      pz      :     1.491862  p :     4.606912
      px      :     1.605161
      py      :     1.509889
      dz2     :     0.007512  d :     0.055670
      dxz     :     0.010296
      dyz     :     0.008822
      dx2y2   :     0.011805
      dxy     :     0.017235

 22 H s       :     0.878212  s :     0.878212
      pz      :     0.006716  p :     0.039609
      px      :     0.009879
      py      :     0.023014

 23 H s       :     0.793325  s :     0.793325
      pz      :     0.033607  p :     0.077125
      px      :     0.027530
      py      :     0.015989



                      *****************************
                      * MAYER POPULATION ANALYSIS *
                      *****************************

  NA   - Mulliken gross atomic population
  ZA   - Total nuclear charge
  QA   - Mulliken gross atomic charge
  VA   - Mayer's total valence
  BVA  - Mayer's bonded valence
  FA   - Mayer's free valence

  ATOM       NA         ZA         QA         VA         BVA        FA
  0 C      6.0890     6.0000    -0.0890     3.9039     3.9039     0.0000
  1 C      6.1997     6.0000    -0.1997     3.8724     3.8724     0.0000
  2 H      0.7696     1.0000     0.2304     0.9226     0.9226     0.0000
  3 H      0.7707     1.0000     0.2293     0.9229     0.9229     0.0000
  4 N      7.5701     7.0000    -0.5701     2.8835     2.8835     0.0000
  5 C      6.1784     6.0000    -0.1784     3.8776     3.8776     0.0000
  6 H      0.9001     1.0000     0.0999     0.9585     0.9585     0.0000
  7 H      0.9153     1.0000     0.0847     0.9576     0.9576     0.0000
  8 C      6.1993     6.0000    -0.1993     3.8750     3.8750    -0.0000
  9 H      0.9058     1.0000     0.0942     0.9536     0.9536     0.0000
 10 H      0.8771     1.0000     0.1229     0.9612     0.9612     0.0000
 11 C      6.0445     6.0000    -0.0445     3.8583     3.8583    -0.0000
 12 H      0.8827     1.0000     0.1173     0.9561     0.9561    -0.0000
 13 H      0.8994     1.0000     0.1006     0.9547     0.9547    -0.0000
 14 C      5.5104     6.0000     0.4896     3.9307     3.9307    -0.0000
 15 H      0.6808     1.0000     0.3192     0.9168     0.9168     0.0000
 16 N      7.5504     7.0000    -0.5504     2.9065     2.9065    -0.0000
 17 O      8.4632     8.0000    -0.4632     2.0251     2.0251     0.0000
 18 H      0.8905     1.0000     0.1095     0.9508     0.9508     0.0000
 19 H      0.8961     1.0000     0.1039     0.9514     0.9514    -0.0000
 20 H      0.7540     1.0000     0.2460     0.9281     0.9281    -0.0000
 21 O      8.4245     8.0000    -0.4245     2.1082     2.1082    -0.0000
 22 H      0.8719     1.0000     0.1281     0.9526     0.9526    -0.0000
 23 H      0.7566     1.0000     0.2434     0.9200     0.9200     0.0000

  Mayer bond orders larger than 0.100000
B(  0-C ,  1-C ) :   0.9800 B(  0-C ,  4-N ) :   1.0228 B(  0-C , 18-H ) :   0.9498 
B(  0-C , 19-H ) :   0.9499 B(  1-C ,  5-C ) :   0.9946 B(  1-C ,  6-H ) :   0.9415 
B(  1-C ,  7-H ) :   0.9469 B(  2-H ,  4-N ) :   0.9137 B(  3-H ,  4-N ) :   0.9142 
B(  5-C ,  8-C ) :   0.9952 B(  5-C ,  9-H ) :   0.9440 B(  5-C , 10-H ) :   0.9378 
B(  8-C , 11-C ) :   0.9755 B(  8-C , 12-H ) :   0.9405 B(  8-C , 13-H ) :   0.9419 
B( 11-C , 14-C ) :   0.9011 B( 11-C , 16-N ) :   1.0434 B( 11-C , 22-H ) :   0.9168 
B( 14-C , 17-O ) :   1.0654 B( 14-C , 21-O ) :   1.9106 B( 15-H , 17-O ) :   0.8522 
B( 16-N , 20-H ) :   0.8986 B( 16-N , 23-H ) :   0.9072 

-------
TIMINGS
-------

Total SCF time: 0 days 0 hours 0 min 3 sec 

Total time                  ....       3.695 sec
Sum of individual times     ....       3.191 sec  ( 86.4%)

SCF preparation             ....       0.033 sec  (  0.9%)
Fock matrix formation       ....       3.120 sec  ( 84.4%)
  Startup                   ....       0.001 sec  (  0.0% of F)
  Split-RI-J                ....       1.210 sec  ( 38.8% of F)
  XC integration            ....       2.339 sec  ( 75.0% of F)
    Basis function eval.    ....       0.876 sec  ( 37.4% of XC)
    Density eval.           ....       0.527 sec  ( 22.5% of XC)
    XC-Functional eval.     ....       0.448 sec  ( 19.2% of XC)
    XC-Potential eval.      ....       0.424 sec  ( 18.1% of XC)
Diagonalization             ....       0.000 sec  (  0.0%)
Density matrix formation    ....       0.002 sec  (  0.1%)
Total Energy calculation    ....       0.001 sec  (  0.0%)
Population analysis         ....       0.010 sec  (  0.3%)
Orbital Transformation      ....       0.004 sec  (  0.1%)
Orbital Orthonormalization  ....       0.000 sec  (  0.0%)
DIIS solution               ....       0.005 sec  (  0.1%)
SOSCF solution              ....       0.017 sec  (  0.5%)
Finished LeanSCF after   3.7 sec

Maximum memory used throughout the entire LEANSCF-calculation: 23.5 MB



-------------------------------------------------------------------------------
                          DFT DISPERSION CORRECTION                            
-------------------------------------------------------------------------------
Active option DFTDOPT                   ...         2   
Final C6-coefficient scaling factor     ...     1.250
Final VDW-radii scaling factor          ...     1.100
Damping factor alpha                    ...    20.000
-------------------------   ----------------
Dispersion correction           -0.034395229
-------------------------   ----------------


-------------------------   --------------------
FINAL SINGLE POINT ENERGY      -496.717661967577
-------------------------   --------------------

                                *** OPTIMIZATION RUN DONE ***


------------------------------------------------------------------------------
                              ORCA PROPERTY CALCULATIONS
------------------------------------------------------------------------------

GBWName                                 ... 2.gbw
Number of atoms                         ...     24
Number of basis functions               ...    210
Max core memory                         ...   4096 MB

Electric properties:
Dipole moment                           ... YES
Quadrupole moment                       ...  NO
Static polarizability (Dipole/Dipole)   ...  NO
Static polarizability (Dipole/Quad.)    ...  NO
Static polarizability (Quad./Quad.)     ...  NO
Static polarizability (Velocity)        ...  NO
Static hyperpolarizability              ...  NO

Atomic electric properties:
Dipole moment                           ...  NO
Quadrupole moment                       ...  NO
Static polarizability                   ...  NO

Choice of electric origin               ... Center of mass
Position of electric origin             ...   -20.102404    11.243722     0.946664

General magnetic properties:
Magnetizability                         ...  NO

EPR properties:
g-Tensor (aka g-matrix)                 ...  NO
Zero-Field splitting spin-orbit         ...  NO
Zero-field splitting spin-spin          ...  NO
Hyperfine couplings                     ...  NO (   0 nuclei)
Quadrupole couplings                    ...  NO (   0 nuclei)
Contact density                         ...  NO (   0 nuclei)

NMR properties:
Chemical shifts                         ...  NO (   0 nuclei)
Spin-rotation constants                 ...  NO (   0 nuclei)
Spin-spin couplings                     ...  NO (   0 nuclei,    0 pairs)

Choice of magnetic origin               ... GIAO
Position of magnetic origin             ...     0.000000     0.000000     0.000000

Properties with geometric perturbations:
SCF Hessian                             ...  NO
IR spectrum                             ...  NO
VCD spectrum                            ...  NO
X-ray spectroscopy properties:
SCF XES/XAS/RIXS spectra                ...  NO

SCF SOC stabilization energy            ...  NO
Diagonal Born-Oppenheimer correction    ...  NO

-------------
DIPOLE MOMENT
-------------

Method             : SCF
Type of density    : Electron Density
Multiplicity       :   1
Irrep              :   0
Energy             :  -496.6832667389671769 Eh
Basis              : AO
                                X                 Y                 Z
Electronic contribution:     13.624693409      -0.243299026      -1.654612075
Nuclear contribution   :    -12.946225287       0.705888152       1.887956112
                        -----------------------------------------
Total Dipole Moment    :      0.678468123       0.462589127       0.233344037
                        -----------------------------------------
Magnitude (a.u.)       :      0.853672732
Magnitude (Debye)      :      2.169863643



--------------------
Rotational spectrum 
--------------------
 
Rotational constants in cm-1:             0.093668             0.016197             0.015474 
Rotational constants in MHz :          2808.110521           485.572820           463.893258 

Dipole components along the rotational axes: 
x,y,z [a.u.] :    -0.563632     0.632657    -0.104027 
x,y,z [Debye]:    -1.432638     1.608086    -0.264417 

 

Dipole moment calculation done in   0.0 sec 

Maximum memory used throughout the entire PROP-calculation: 13.2 MB

--------------------------------
SUGGESTED CITATIONS FOR THIS RUN
--------------------------------

Below you find a list of papers that are relevant to this ORCA run
We neither can nor want to force you to cite these papers, but we appreciate if you do
You receive ORCA, which is the product of decades of hard work by many enthusiastic individuals, for free
The only thing we kindly ask in return is that you cite our papers,
We deeply appreciate it, if you show your appreciation for ORCA by not just citing the generic ORCA reference.

Please note that relegating all ORCA citations to the supporting information does *not* help us.
SI sections are not indexed - citations you put there will not count into any citation statistics
But we need these citations in order to attract the funding resources that allow us to do what we are doing

Therefore, if you are a happy ORCA user, please consider citing a few of the papers listed below in the main body of your paper

In addition to the list printed below, the program has created the file 2.bibtex that contains the list in bibtex format
You can import this file easily into all common literature databanks and citation aid programs


List of essential papers. We consider these as the minimum necessary citations

  1. Neese, F.
     Software update: the ORCA program system, version 6.0
     WIRES Comput. Molec. Sci. 2025 15(1), e70019
     doi.org/10.1002/wcms.7019

List of papers to cite with high priority. The work reported in these papers was absolutely
necessary for this run to complete.
Our perspective: the developers of density functionals and basis sets usually get cited in chemistry papers
Good! But without the algorithms to do something with them, the functionals or basis sets would not do anything.
Hence, in our opinion, the algorithm design and method developments papers are equally worthy of getting cited

  1. Neese, F.
     An improvement of the resolution of the identity approximation for the formation of the Coulomb matrix
     J. Comp. Chem. 2003 24(14), 1740-1747
     doi.org/10.1002/jcc.10318
  2. Grimme, S.
     Semiempirical GGA-type density functional constructed with a long-range dispersion correction
     J.Comput.Chem. 2006 27(15), 1787-1799
     doi.org/10.1002/jcc.20495
  3. Neese, F.
     The SHARK Integral Generation and Digestion System
     J. Comp. Chem. 2022 44(3), 381
     doi.org/10.1002/jcc.26942

List of suggested additional citations. These are papers that are important in the 'surrounding' of 
of this run, or papers that preceded the highly important papers. If you like your results we are grateful for a citation.

  1. Neese, F.
     The ORCA program system
     WIRES Comput. Molec. Sci. 2012 2(1), 73-78
     doi.org/10.1002/wcms.81
  2. Neese, F.
     Software update: the ORCA program system, version 4.0
     WIRES Comput. Molec. Sci. 2018 8(1), 1-6
     doi.org/10.1002/wcms.1327
  3. Neese, F.; Wennmohs, F.; Becker, U.; Riplinger, C.
     The ORCA quantum chemistry program package
     J. Chem. Phys. 2020 152(22), 224108
     doi.org/10.1063/5.0004608
  4. Neese, F.
     Software update: The ORCA program system—Version 5.0
     WIRES Comput. Molec. Sci. 2022 12(1), e1606
     doi.org/10.1002/wcms.1606

List of optional additional citations

  1. Neese, F.
     Approximate second-order SCF convergence for spin unrestricted wavefunctions
     Chem. Phys. Lett. 2000 325(1-3), 93-98
     doi.org/10.1016/s0009-2614(00)00662-x

Timings for individual modules:

Sum of individual times          ...       97.001 sec (=   1.617 min)
Startup calculation              ...        5.236 sec (=   0.087 min)   5.4 %
SCF iterations                   ...       56.259 sec (=   0.938 min)  58.0 %
Property calculations            ...        0.039 sec (=   0.001 min)   0.0 %
SCF Gradient evaluation          ...       35.448 sec (=   0.591 min)  36.5 %
Geometry relaxation              ...        0.019 sec (=   0.000 min)   0.0 %
                             ****ORCA TERMINATED NORMALLY****
TOTAL RUN TIME: 0 days 0 hours 1 minutes 37 seconds 272 msec
