
                                 *****************
                                 * O   R   C   A *
                                 *****************

                                            #,                                       
                                            ###                                      
                                            ####                                     
                                            #####                                    
                                            ######                                   
                                           ########,                                 
                                     ,,################,,,,,                         
                               ,,#################################,,                 
                          ,,##########################################,,             
                       ,#########################################, ''#####,          
                    ,#############################################,,   '####,        
                  ,##################################################,,,,####,       
                ,###########''''           ''''###############################       
              ,#####''   ,,,,##########,,,,          '''####'''          '####       
            ,##' ,,,,###########################,,,                        '##       
           ' ,,###''''                  '''############,,,                           
         ,,##''                                '''############,,,,        ,,,,,,###''
      ,#''                                            '''#######################'''  
     '                                                          ''''####''''         
             ,#######,   #######,   ,#######,      ##                                
            ,#'     '#,  ##    ##  ,#'     '#,    #''#        ,####,    ,#,          
            ##       ##  ##   ,#'  ##            #'  '#       #'       ,# #          
            ##       ##  #######   ##           ,######,      #####,      #          
            '#,     ,#'  ##    ##  '#,     ,#' ,#      #,     #,   #      #          
             '#######'   ##     ##  '#######'  #'      '#     '####' #    #          



                #########################################################
                #                        -***-                          #
                #          Department of theory and spectroscopy        #
                #                                                       #
                #                      Frank Neese                      #
                #                                                       #
                #     Directorship, Architecture, Infrastructure        #
                #                    SHARK, DRIVERS                     #
                #        Core code/Algorithms in most modules           #
                #                                                       #
                #        Max Planck Institute fuer Kohlenforschung      #
                #                Kaiser Wilhelm Platz 1                 #
                #                 D-45470 Muelheim/Ruhr                 #
                #                      Germany                          #
                #                                                       #
                #                  All rights reserved                  #
                #                        -***-                          #
                #########################################################


                         Program Version 6.1.0  -  RELEASE   -
                                (GIT: $679e74b$)
                          ($2025-06-10 18:02:51 +0200$)


 With contributions from (in alphabetic order):
[Max-Planck-Institut fuer Kohlenforschung]                               
  Daniel Aravena         : Magnetic Suceptibility                        
  Michael Atanasov       : Ab Initio Ligand Field Theory (pilot matlab implementation)
  Alexander A. Auer      : GIAO ZORA, VPT2 properties, NMR spectrum      
  Ute Becker             : All parallelization in ORCA, NUMFREQ, NUMCALC 
  Giovanni Bistoni       : ED, misc. LED, open-shell LED, HFLD           
  Dmytro Bykov           : pre 5.0 version of the SCF Hessian            
  Marcos Casanova-Páez   : Triplet and SCS-CIS(D). UHF-(DLPNO)-IP/EA/STEOM-CCSD. UHF-CVS-IP/STEOM-CCSD   
  Vijay G. Chilkuri      : MRCI spin determinant printing, contributions to CSF-ICE 
  Pauline Colinet        : FMM embedding                                 
  Dipayan Datta          : RHF DLPNO-CCSD density                        
  Achintya Kumar Dutta   : EOM-CC, STEOM-CC                              
  Nicolas Foglia         : Exact transition moments, OPA infrastructure, MCD improvements    
  Dmitry Ganyushin       : Spin-Orbit,Spin-Spin,Magnetic field MRCI      
  Miquel Garcia-Rates    : C-PCM and meta-GGA Hessian, CCSD/C-PCM, Gaussian charge scheme 
  Tiago L. C. Gouveia    : GS-ROHF, GS-ROCIS                             
  Yang Guo               : DLPNO-NEVPT2, F12-NEVPT2, CIM, IAO-localization        
  Andreas Hansen         : Spin unrestricted coupled pair/coupled cluster methods 
  Ingolf Harden          : AUTO-CI MPn and infrastructure                
  Benjamin Helmich-Paris : MC-RPA, TRAH-(SCF,CASSCF), AVAS, COSX integrals, SCF dyn. polar., MC-PDFT, srDFT 
  Lee Huntington         : MR-EOM, pCC                                   
  Robert Izsak           : Overlap fitted RIJCOSX, COSX-SCS-MP3, EOM     
  Riya Kayal             : Wick's Theorem for AUTO-CI, AUTO-CI UHF-CCSDT 
  Emily Kempfer          : AUTO-CI RHF CISDT and CCSDT, approximate NEVPT4
  Christian Kollmar      : KDIIS, OOCD, Brueckner-CCSD(T), CCSD density, CASPT2, CASPT2-K, improved NEVPT2 
  Axel Koslowski         : Symmetry handling                             
  Simone Kossmann        : meta-GGA functionals, TD-DFT gradient, OOMP2, (MP2 Hessian; deprecated post 5.0) 
  Lucas Lang             : DCDCAS, Hyperfine gauge corrections, ICE-SOC+SSC
  Marvin Lechner         : AUTO-CI (C++ implementation), FIC-MRCC        
  Spencer Leger          : CASSCF response                               
  Dagmar Lenk            : GEPOL surface, SMD, ORCA-2-JSON               
  Dimitrios Liakos       : Extrapolation schemes; Compound Job, Property file
  Dimitrios Manganas     : Further ROCIS development; embedding schemes. LFT, Crystal Embedding 
  Dimitrios Pantazis     : SARC Basis sets                               
  Anastasios Papadopoulos: AUTO-CI, single reference methods and gradients 
  Taras Petrenko         : pre 6.0 DFT Hessian and TD-DFT gradient,  ECA, NRVS 
  Petra Pikulova         : Analytic Raman intensities                    
  Peter Pinski           : DLPNO-MP2, DLPNO-MP2 Gradient                 
  Shashank Vittal Rao    : ES-AILFT, MagRelax                            
  Christoph Reimann      : Effective Core Potentials                     
  Marius Retegan         : Local ZFS, SOC                                
  Christoph Riplinger    : Optimizer, TS searches, QM/MM, DLPNO-CCSD(T), (RO)-DLPNO pert. Triples 
  Michael Roemelt        : Original ROCIS implementation, recursive CI coupling coefficients
  Masaaki Saitow         : Open-shell DLPNO-CCSD energy and density      
  Barbara Sandhoefer     : DKH picture change effects                    
  Yorick L. A. Schmerwitz: GMF and freeze-and-release deltaSCF, NEB S-IDPP initial path                    
  Kantharuban Sivalingam : CASSCF convergence/infrastructure, NEVPT2, NEVPT3, NEVPT4(SD), FIC-MRCI and CEPA variants
  Bernardo de Souza      : ESD, SOC TD-DFT                               
  Georgi L. Stoychev     : AutoAux, RI-MP2 NMR, DLPNO-MP2 response, X2C  
  Van Anh Tran           : RI-MP2 g-tensors                              
  Willem Van den Heuvel  : Paramagnetic NMR                              
  Zikuan Wang            : NOTCH, Electric field optimization            
  Frank Wennmohs         : Technical directorship and infrastructure     
  Hang Xu                : AUTO-CI-Response properties                   
                                                                         
[FACCTs GmbH]                                                            
  Markus Bursch, Nicolas Foglia, Miquel Garcia-Rates, Ingolf Harden, Hagen Neugebauer, Anastasios Papadopoulos, 
  Christoph Riplinger, Bernardo de Souza, Georgi L. Stoychev                                                    
                                                                 
  APM, various basis sets, CI-OPT, improved COSX, DLPNO-Multilevel,           
  DOCKER, DRACO, updates on ESD, Fragmentator, GOAT, IRC, LR-CPCM, L-BFGS, MBIS, meta-GGA TD-DFT gradient, ML-optimized integration grids, 
  MM, NACMEs, nearIR, NEB, NEB-TS, NL-DFT gradient (VV10), 2- and 3-layer-ONIOM, interface openCOSMO-RS, QMMM,   
  Crystal-QMMM, RESP, rigid body optimization, SF, symmetry and pop. for TD-DFT, various functionals, SOLVATOR                                   
                                                                         
[Other institutions]                                                     
  V. Asgeirsson          : NEB                                           
  Christoph Bannwarth    : sTDA-DFT, sTD-DFT, PBEh-3c, B97-3c, D3        
  Giovanni Bistoni       : ETS/NOCV, ADLD/ADEX, COVALED                  
  Martin Brehm           : Molecular dynamics                            
  Ronald Cardenas        : ETS/NOCV                                      
  Martina Colucci        : COVALED                                       
  Sebastian Ehlert       : rSCAN, r2SCAN, r2SCAN-3c, D4, dhf basis sets  
  Marvin Friede          : D4 for Fr, Ra, Ac-Lr                          
  Lars Goerigk           : TD-DFT with DH, B97 family of functionals     
  Stefan Grimme          : VdW corrections, initial TS optimization, DFT functionals, gCP, sTDA/sTD-DF 
  Waldemar Hujo          : DFT-NL                                        
  H. Jonsson             : NEB                                           
  Holger Kruse           : gCP                                           
  Marcel Mueller         : wB97X-3c, vDZP basis set                      
  Hagen Neugebauer       : wr2SCAN, Native XTB                           
  Gianluca Regni         : ADLD/ADEX                                     
  Tobias Risthaus        : pre 6.0 range-separated hybrid DFT and stability analysis
  Lukas Wittmann         : regularized MP2, r2SCAN double-hybrids, wr2SCAN        
                                                                         
We gratefully acknowledge several colleagues who have allowed us to      
interface, adapt or use parts of their codes:                            
  Ed Valeev, F. Pavosevic, A. Kumar             : LibInt (2-el integral package), F12 methods 
  Garnet Chan, S. Sharma, J. Yang, R. Olivares  : DMRG                   
  Ulf Ekstrom                                   : XCFun DFT Library      
  Mihaly Kallay                                 : mrcc  (arbitrary order and MRCC methods)
  Frank Weinhold                                : gennbo (NPA and NBO analysis)           
  Simon Mueller                                 : openCOSMO-RS                            
  Christopher J. Cramer and Donald G. Truhlar   : smd solvation model                     
  S Lehtola, MJT Oliveira, MAL Marques          : LibXC Library                           
  Liviu Ungur et al                             : ANISO software                          


 Your calculation uses the libint2 library for the computation of 2-el integrals
 For citations please refer to: http://libint.valeyev.net

 Your ORCA version has been built with support for libXC version: 7.0.0
 For citations please refer to: https://libxc.gitlab.io

 This ORCA versions uses:
   CBLAS   interface :  Fast vector & matrix operations
   LAPACKE interface :  Fast linear algebra routines
   SCALAPACK package :  Parallel linear algebra routines
   Shared memory     :  Shared parallel matrices
   BLAS/LAPACK       :  OpenBLAS 0.3.29  USE64BITINT DYNAMIC_ARCH NO_AFFINITY Haswell SINGLE_THREADED
        Core in use  :  Haswell
   Copyright (c) 2011-2014, The OpenBLAS Project


  ***********************************
  * Starting time: Sat Aug 30 14:29:18 2025
  * Host name:     chemlab03
  * Process ID:    73613
  * Working dir.:  /home/vivek/mm-project/vivek/xtb-goat/B97-D-opt/a/5
  ***********************************



***************************************
The coordinates will be read from file: /home/vivek/mm-project/vivek/xtb-goat/xtb-goat/a/A_CONF/5.xyz
***************************************


Your calculation utilizes empirical dispersion correction


Warning: RI is on but no J-basis has been assigned. Assigning Def2/J (nothing to worry about!)
================================================================================

----- Orbital basis set information -----
Your calculation utilizes the basis: 6-31G**
   H-He, Li-Ne : W. J. Hehre, R. Ditchfield and J.A. Pople, J. Chem. Phys. 56, 2257 (1972).
                 Note: He and Ne are unpublished basis sets taken from the Gaussian program.
                 Note: Li and B from J. D. Dill and J. A. Pople, J. Chem. Phys. 62, 2921 (1975).
   Na - Ar     : M. M. Francl, W. J. Pietro, W. J. Hehre, J. S. Binkley, M. S. Gordon, 
                 D. J. DeFrees and J. A. Pople, J. Chem. Phys. 77, 3654 (1982).
   K - Zn      : V. A. Rassolov, J. A. Pople, M. A. Ratner, and T. L. Windus, J. Chem. Phys. 109, 1223 (1998).

----- AuxJ basis set information -----
Your calculation utilizes the auxiliary basis: def2/J
   H-Rn: F. Weigend, Phys. Chem. Chem. Phys. 8, 1057 (2006).
   Fr-Lr: K. Eichkorn, F. Weigend, O. Treutler, R. Ahlrichs; Theor. Chem. Acc. 97, 119 (1997).

================================================================================
                                        WARNINGS
                       Please study these warnings very carefully!
================================================================================


WARNING: Geometry Optimization
  ===> : Switching off AutoStart
         For restart on a previous wavefunction, please use MOREAD

INFO   : The exchange functional is Grimme's B97(-D)
         As described in S. Grimme, J. Comput. Chem. 27, 1787 (2006).
         Note that this functional defaults to a pure GGA. 

INFO   : The correlation functional is Grimme's B97(-D)
         As described in S. Grimme, J. Comput. Chem. 27, 1787 (2006).

================================================================================
                                       INPUT FILE
================================================================================
NAME = 5.inp
|  1> ! B97-D 6-31G** opt
|  2> 
|  3> * xyzfile 0 1 /home/vivek/mm-project/vivek/xtb-goat/xtb-goat/a/A_CONF/5.xyz
|  4> 
|  5>                          ****END OF INPUT****
================================================================================

                       *****************************
                       * Geometry Optimization Run *
                       *****************************

Geometry optimization settings:
Update method            Update   .... BFGS
Choice of coordinates    CoordSys .... (2022) Redundant Internals
Initial Hessian          InHess   .... Almloef's Model
Max. no of cycles        MaxIter  .... 50

Convergence Tolerances:
Energy Change            TolE     ....  5.0000e-06 Eh
Max. Gradient            TolMAXG  ....  3.0000e-04 Eh/bohr
RMS Gradient             TolRMSG  ....  1.0000e-04 Eh/bohr
Max. Displacement        TolMAXD  ....  4.0000e-03 bohr
RMS Displacement         TolRMSD  ....  2.0000e-03 bohr
Strict Convergence                .... False

------------------------------------------------------------------------------
                        ORCA OPTIMIZATION COORDINATE SETUP
------------------------------------------------------------------------------

The optimization will be done in redundant internal coordinates (2022)
Making redundant internal coordinates   ...  (2022 redundants) done
Evaluating the initial hessian          ...  (Almloef) done
Evaluating the coordinates              ...  done
Calculating the B-matrix                .... done
Calculating the G-matrix                .... done
The number of degrees of freedom        ....   51

    -----------------------------------------------------------------
                    Redundant Internal Coordinates


    -----------------------------------------------------------------
         Definition                    Initial Value    Approx d2E/dq
    -----------------------------------------------------------------
      1. B(O   1,C   0)                  1.1971         1.136740   
      2. B(O   2,C   0)                  1.3291         0.699982   
      3. B(C   3,C   0)                  1.5428         0.356476   
      4. B(H   4,O   2)                  0.9830         0.477836   
      5. B(C   5,C   3)                  1.5275         0.377045   
      6. B(H   6,C   5)                  1.0860         0.365461   
      7. B(N   7,C   3)                  1.4616         0.430191   
      8. B(N   7,H   4)                  1.8898         0.017083   
      9. B(H   8,C   5)                  1.0889         0.361546   
     10. B(H   9,C   5)                  1.0882         0.362542   
     11. B(H  10,C   3)                  1.0974         0.350401   
     12. B(H  11,N   7)                  1.0129         0.428116   
     13. B(H  12,N   7)                  1.0164         0.422605   
     14. A(O   1,C   0,C   3)          123.3511         0.435337   
     15. A(O   2,C   0,C   3)          113.1844         0.399340   
     16. A(O   1,C   0,O   2)          123.4509         0.489166   
     17. A(C   0,O   2,H   4)          107.6399         0.372471   
     18. A(C   0,C   3,H  10)          105.5692         0.320402   
     19. A(C   0,C   3,N   7)          107.9167         0.366961   
     20. A(C   0,C   3,C   5)          110.5267         0.361026   
     21. A(C   5,C   3,N   7)          115.1824         0.370513   
     22. A(N   7,C   3,H  10)          107.7937         0.328472   
     23. A(C   5,C   3,H  10)          109.3841         0.323359   
     24. A(H   8,C   5,H   9)          108.9741         0.291332   
     25. A(H   6,C   5,H   9)          109.1989         0.291826   
     26. A(C   3,C   5,H   6)          109.3216         0.325602   
     27. A(C   3,C   5,H   9)          110.8588         0.325173   
     28. A(H   6,C   5,H   8)          108.2992         0.291699   
     29. A(C   3,C   5,H   8)          110.1408         0.325026   
     30. A(H  11,N   7,H  12)          107.4584         0.301600   
     31. A(C   3,N   7,H  12)          109.8415         0.335934   
     32. A(C   3,N   7,H  11)          111.2471         0.336659   
     33. D(H   4,O   2,C   0,O   1)   -178.5872         0.036692   
     34. D(H   4,O   2,C   0,C   3)      2.7201         0.036692   
     35. D(N   7,C   3,C   0,O   1)    163.8095         0.010000   
     36. D(N   7,C   3,C   0,O   2)    -17.4963         0.010000   
     37. D(C   5,C   3,C   0,O   2)   -144.2630         0.010000   
     38. D(H  10,C   3,C   0,O   1)    -81.1358         0.010000   
     39. D(C   5,C   3,C   0,O   1)     37.0427         0.010000   
     40. D(H   8,C   5,C   3,H  10)   -176.7936         0.011340   
     41. D(H   8,C   5,C   3,N   7)    -55.2322         0.011340   
     42. D(H   8,C   5,C   3,C   0)     67.3858         0.011340   
     43. D(H   6,C   5,C   3,H  10)     64.3261         0.011340   
     44. D(H   6,C   5,C   3,N   7)   -174.1126         0.011340   
     45. D(H   6,C   5,C   3,C   0)    -51.4946         0.011340   
     46. D(H  11,N   7,C   3,C   5)    -77.2369         0.016907   
     47. D(H  11,N   7,C   3,C   0)    158.7602         0.016907   
     48. D(H  12,N   7,C   3,H  10)    164.0303         0.016907   
     49. D(H  12,N   7,C   3,C   5)     41.6126         0.016907   
     50. D(H  12,N   7,C   3,C   0)    -82.3904         0.016907   
     51. D(H  11,N   7,C   3,H  10)     45.1808         0.016907   
    -----------------------------------------------------------------

Number of atoms                         .... 13
Number of degrees of freedom            .... 51


         *************************************************************
         *                GEOMETRY OPTIMIZATION CYCLE   1            *
         *************************************************************
---------------------------------
CARTESIAN COORDINATES (ANGSTROEM)
---------------------------------
  C     -4.756615    0.669171   -1.827477
  O     -4.966392    1.818114   -2.090026
  O     -3.587185    0.221083   -1.382421
  C     -5.827010   -0.435985   -1.941375
  H     -3.665923   -0.751744   -1.265421
  C     -6.724371   -0.189689   -3.152691
  H     -7.099768    0.828836   -3.120598
  N     -5.143094   -1.727602   -1.926420
  H     -6.155424   -0.315545   -4.072573
  H     -7.564857   -0.880800   -3.159157
  H     -6.425010   -0.362509   -1.024121
  H     -5.772167   -2.472904   -1.652982
  H     -4.797906   -1.945998   -2.857162

----------------------------
CARTESIAN COORDINATES (A.U.)
----------------------------
  NO LB      ZA    FRAG     MASS         X           Y           Z
   0 C     6.0000    0    12.011   -8.988699    1.264550   -3.453432
   1 O     8.0000    0    15.999   -9.385121    3.435738   -3.949577
   2 O     8.0000    0    15.999   -6.778797    0.417786   -2.612396
   3 C     6.0000    0    12.011  -11.011453   -0.823892   -3.668667
   4 H     1.0000    0     1.008   -6.927591   -1.420590   -2.391299
   5 C     6.0000    0    12.011  -12.707220   -0.358460   -5.957722
   6 H     1.0000    0     1.008  -13.416617    1.566274   -5.897075
   7 N     7.0000    0    14.007   -9.719039   -3.264695   -3.640406
   8 H     1.0000    0     1.008  -11.632066   -0.596294   -7.696047
   9 H     1.0000    0     1.008  -14.295508   -1.664471   -5.969942
  10 H     1.0000    0     1.008  -12.141509   -0.685043   -1.935308
  11 H     1.0000    0     1.008  -10.907815   -4.673111   -3.123684
  12 H     1.0000    0     1.008   -9.066729   -3.677403   -5.399254

--------------------------------
INTERNAL COORDINATES (ANGSTROEM)
--------------------------------
 C      0   0   0     0.000000000000     0.00000000     0.00000000
 O      1   0   0     1.197083627916     0.00000000     0.00000000
 O      1   2   0     1.329069050244   123.45085987     0.00000000
 C      1   2   3     1.542753687488   123.35105102   178.56137859
 H      3   1   2     0.982995466286   107.63994481   181.41280094
 C      4   1   2     1.527482968625   110.52666623    37.04273608
 H      6   4   1     1.085977340438   109.32156267   308.50542927
 N      4   1   2     1.461588111080   107.91668124   163.80949538
 H      6   4   1     1.088909204757   110.14084580    67.38575894
 H      6   4   1     1.088160146454   110.85883802   188.07341668
 H      4   1   2     1.097432069767   105.56916452   278.86416435
 H      8   4   1     1.012904464613   111.24705153   158.76016393
 H      8   4   1     1.016431105128   109.84154648   277.60964793

---------------------------
INTERNAL COORDINATES (A.U.)
---------------------------
 C      0   0   0     0.000000000000     0.00000000     0.00000000
 O      1   0   0     2.262160216162     0.00000000     0.00000000
 O      1   2   0     2.511576518032   123.45085987     0.00000000
 C      1   2   3     2.915381961450   123.35105102   178.56137859
 H      3   1   2     1.857592222167   107.63994481   181.41280094
 C      4   1   2     2.886524484930   110.52666623    37.04273608
 H      6   4   1     2.052199761072   109.32156267   308.50542927
 N      4   1   2     2.762001250536   107.91668124   163.80949538
 H      6   4   1     2.057740181696   110.14084580    67.38575894
 H      6   4   1     2.056324666645   110.85883802   188.07341668
 H      4   1   2     2.073846062442   105.56916452   278.86416435
 H      8   4   1     1.914112037944   111.24705153   158.76016393
 H      8   4   1     1.920776422691   109.84154648   277.60964793

---------------------
BASIS SET INFORMATION
---------------------
There are 4 groups of distinct atoms

 Group   1 Type C   : 10s4p1d contracted to 3s2p1d pattern {631/31/1}
 Group   2 Type O   : 10s4p1d contracted to 3s2p1d pattern {631/31/1}
 Group   3 Type H   : 4s1p contracted to 2s1p pattern {31/1}
 Group   4 Type N   : 10s4p1d contracted to 3s2p1d pattern {631/31/1}

Atom   0C    basis set group =>   1
Atom   1O    basis set group =>   2
Atom   2O    basis set group =>   2
Atom   3C    basis set group =>   1
Atom   4H    basis set group =>   3
Atom   5C    basis set group =>   1
Atom   6H    basis set group =>   3
Atom   7N    basis set group =>   4
Atom   8H    basis set group =>   3
Atom   9H    basis set group =>   3
Atom  10H    basis set group =>   3
Atom  11H    basis set group =>   3
Atom  12H    basis set group =>   3
---------------------------------
AUXILIARY/J BASIS SET INFORMATION
---------------------------------
There are 4 groups of distinct atoms

 Group   1 Type C   : 12s5p4d2f1g contracted to 6s4p3d1f1g pattern {711111/2111/211/2/1}
 Group   2 Type O   : 12s5p4d2f1g contracted to 6s4p3d1f1g pattern {711111/2111/211/2/1}
 Group   3 Type H   : 5s2p1d contracted to 3s1p1d pattern {311/2/1}
 Group   4 Type N   : 12s5p4d2f1g contracted to 6s4p3d1f1g pattern {711111/2111/211/2/1}

Atom   0C    basis set group =>   1
Atom   1O    basis set group =>   2
Atom   2O    basis set group =>   2
Atom   3C    basis set group =>   1
Atom   4H    basis set group =>   3
Atom   5C    basis set group =>   1
Atom   6H    basis set group =>   3
Atom   7N    basis set group =>   4
Atom   8H    basis set group =>   3
Atom   9H    basis set group =>   3
Atom  10H    basis set group =>   3
Atom  11H    basis set group =>   3
Atom  12H    basis set group =>   3
------------------------------------------------------------------------------
                             ORCA STARTUP CALCULATIONS
                           -- RI-GTO INTEGRALS CHOSEN --
------------------------------------------------------------------------------
------------------------------------------------------------------------------
                   ___                                                        
                  /   \      - P O W E R E D   B Y -                         
                 /     \                                                     
                 |  |  |   _    _      __       _____    __    __             
                 |  |  |  | |  | |    /  \     |  _  \  |  |  /  |          
                  \  \/   | |  | |   /    \    | | | |  |  | /  /          
                 / \  \   | |__| |  /  /\  \   | |_| |  |  |/  /          
                |  |  |   |  __  | /  /__\  \  |    /   |      \           
                |  |  |   | |  | | |   __   |  |    \   |  |\   \          
                \     /   | |  | | |  |  |  |  | |\  \  |  | \   \       
                 \___/    |_|  |_| |__|  |__|  |_| \__\ |__|  \__/        
                                                                              
                      - O R C A' S   B I G   F R I E N D -                    
                                      &                                       
                       - I N T E G R A L  F E E D E R -                       
                                                                              
 v1 FN, 2020, v2 2021, v3 2022-2024                                           
------------------------------------------------------------------------------


----------------------
SHARK INTEGRAL PACKAGE
----------------------

Number of atoms                             ...     13
Number of basis functions                   ...    119
Number of shells                            ...     57
Maximum angular momentum                    ...      2
Integral batch strategy                     ... SHARK/LIBINT Hybrid
RI-J (if used) integral strategy            ... SPLIT-RIJ (Revised 2003 algorithm where possible)
Printlevel                                  ...      1
Contraction scheme used                     ... SEGMENTED contraction
Prescreening option                         ... SCHWARTZ
   Thresh                                   ... 2.500e-11
   Tcut                                     ... 2.500e-12
   Tpresel                                  ... 2.500e-12 
Coulomb Range Separation                    ... NOT USED
Exchange Range Separation                   ... NOT USED
Multipole approximations                    ... NOT USED
Finite Nucleus Model                        ... NOT USED
CABS basis                                  ... NOT available
Auxiliary Coulomb fitting basis             ... AVAILABLE
   # of basis functions in Aux-J            ...    371
   # of shells in Aux-J                     ...    125
   Maximum angular momentum in Aux-J        ...      4
Auxiliary J/K fitting basis                 ... NOT available
Auxiliary Correlation fitting basis         ... NOT available
Auxiliary 'external' fitting basis          ... NOT available

Checking pre-screening integrals            ... done (  0.0 sec) Dimension = 57
   => SHARK Basis and OBASIS are compatible. Storing Pre-screening
Shell pair information
Shell pair cut-off parameter TPreSel        ...   2.5e-12
Total number of shell pairs                 ...      1653
Shell pairs after pre-screening             ...      1601
Total number of primitive shell pairs       ...      8022
Primitive shell pairs kept                  ...      5594
          la=0 lb=0:    507 shell pairs
          la=1 lb=0:    586 shell pairs
          la=1 lb=1:    186 shell pairs
          la=2 lb=0:    188 shell pairs
          la=2 lb=1:    113 shell pairs
          la=2 lb=2:     21 shell pairs

Checking whether 4 symmetric matrices of dimension 119 fit in memory
:Max Core in MB      =   4096.00
 MB in use           =      5.54
 MB left             =   4090.46
 MB needed           =      0.22
 Data fit in memory  = YES
Calculating RI/J V-Matrix + Cholesky decomp.... done (  0.0 sec)
Calculating Nuclear repulsion               ... done (  0.0 sec) ENN=    251.323939742135 Eh

Diagonalization of the overlap matrix:
Smallest eigenvalue                        ... 3.452e-03
Time for diagonalization                   ...    0.001 sec
Threshold for overlap eigenvalues          ... 1.000e-07
Number of eigenvalues below threshold      ... 0
Time for construction of square roots      ...    0.000 sec
Total time needed                          ...    0.001 sec

-------------------
DFT GRID GENERATION
-------------------

General Integration Accuracy     IntAcc      ... 4.388
Radial Grid Type                 RadialGrid  ... OptM3 with GC (2021)
Angular Grid (max. ang.)         AngularGrid ... 4 (Lebedev-302)
Angular grid pruning method      GridPruning ... 4 (adaptive)
Weight generation scheme         WeightScheme... mBecke (2022)
Basis function cutoff            BFCut       ... 1.0000e-11
Integration weight cutoff        WCut        ... 1.0000e-14
Partially contracted basis set               ... off
Rotationally invariant grid construction     ... off
Angular grids for H and He will be reduced by one unit

Total number of grid points                  ...    58878
Total number of batches                      ...      926
Average number of points per batch           ...       63
Average number of grid points per atom       ...     4529
Grids setup in   0.2 sec
Initializing property integral containers    ... done (  0.0 sec)

SHARK setup successfully completed in   0.2 seconds

Maximum memory used throughout the entire STARTUP-calculation: 24.8 MB
-------------------------------------------------------------------------------
                                 ORCA GUESS
                   Start orbitals & Density for SCF / CASSCF
-------------------------------------------------------------------------------

------------
SCF SETTINGS
------------
Hamiltonian:
 Density Functional     Method          .... DFT(GTOs)
 Exchange Functional    Exchange        .... B97(D)
 Correlation Functional Correlation     .... B97(D)
 Gradients option       PostSCFGGA      .... off
 RI-approximation to the Coulomb term is turned on
   Number of AuxJ basis functions       .... 371


General Settings:
 Integral files         IntName         .... 5
 Hartree-Fock type      HFTyp           .... RHF
 Total Charge           Charge          ....    0
 Multiplicity           Mult            ....    1
 Number of Electrons    NEL             ....   48
 Basis Dimension        Dim             ....  119
 Nuclear Repulsion      ENuc            ....    251.3239397421 Eh

Convergence Acceleration:
 AO-DIIS                CNVDIIS         .... on
   Start iteration      DIISMaxIt       ....    12
   Startup error        DIISStart       ....  0.200000
   # of expansion vecs  DIISMaxEq       ....     5
   Bias factor          DIISBfac        ....   1.050
   Max. coefficient     DIISMaxC        ....  10.000
 MO-DIIS                CNVKDIIS        .... off
 Trust-Rad. Augm. Hess. CNVTRAH         .... auto
   Auto Start mean grad. ratio tolernc. ....  1.125000
   Auto Start start iteration           ....    50
   Auto Start num. interpolation iter.  ....    10
   Max. Number of Micro iterations      ....    24
   Max. Number of Macro iterations      .... Maxiter - #DIIS iter
   Number of Davidson start vectors     ....     2
   Converg. threshold    (grad. norm)   ....   1.000e-05
   Grad. Scal. Fac. for Micro threshold ....   0.100
   Minimum threshold for Micro iter.    ....   1.000e-02
   NR start threshold (gradient norm)   ....   1.000e-04
   Initial trust radius                 ....   0.400
   Minimum AH scaling param. (alpha)    ....   1.000
   Maximum AH scaling param. (alpha)    .... 1000.000
   Quad. conv. algorithm                .... NR
   White noise on init. David. guess    .... on
   Maximum white noise                  ....   0.010
   Pseudo random numbers                .... off
   Inactive MOs                         .... canonical
   Orbital update algorithm             .... Taylor
   Preconditioner                       .... Diag
   Full preconditioner red. dimension   ....   250
 SOSCF                 CNVSOSCF           .... on
   Start iteration     SOSCFMaxIt         ....   150
   Startup grad/error  SOSCFStart         ....  0.003300
   Hessian update      SOSCFHessUp        .... L-BFGS
   Autom. constraints  SOSCFAutoConstrain .... off
 Level Shifting         CNVShift        .... on
   Level shift para.    LevelShift      ....    0.2500
   Turn off err/grad.   ShiftErr        ....    0.0010
 Zerner damping         CNVZerner       .... off
 Static damping         CNVDamp         .... on
   Fraction old density DampFac         ....    0.7000
   Max. Damping (<1)    DampMax         ....    0.9800
   Min. Damping (>=0)   DampMin         ....    0.0000
   Turn off err/grad.   DampErr         ....    0.1000

SCF Procedure:
 Maximum # iterations   MaxIter         ....   125
 SCF integral mode      SCFMode         .... Direct
   Integral package                     .... SHARK and LIBINT hybrid scheme
 Reset frequency        DirectResetFreq ....    20
 Integral Threshold     Thresh          ....  2.500e-11 Eh
 Primitive CutOff       TCut            ....  2.500e-12 Eh

Convergence Tolerance:
 Convergence Check Mode ConvCheckMode   .... Total+1el-Energy
 Convergence forced     ConvForced      .... 0
 Energy Change          TolE            ....  1.000e-08 Eh
 1-El. energy change                    ....  1.000e-05 Eh
 Orbital Gradient       TolG            ....  1.000e-05
 Orbital Rotation angle TolX            ....  1.000e-05
 DIIS Error             TolErr          ....  5.000e-07

------------------------------
INITIAL GUESS: MODEL POTENTIAL
------------------------------
Loading Hartree-Fock densities                     ... done
Calculating cut-offs                               ... done
Initializing the effective Hamiltonian             ... done
Setting up the integral package (SHARK)            ... done
Starting the Coulomb interaction                   ... done (   0.0 sec)
Making the grid                                    ... done (   0.0 sec)
Mapping shells                                     ... done
Starting the XC term evaluation                    ... done (   0.1 sec)
  promolecular density results
     # of electrons  =     47.996567519
     EX              =    -39.868813849
     EC              =     -2.124093987
     EX+EC           =    -41.992907837
Transforming the Hamiltonian                       ... done (   0.0 sec)
Diagonalizing the Hamiltonian                      ... done (   0.0 sec)
Back transforming the eigenvectors                 ... done (   0.0 sec)
Now organizing SCF variables                       ... done
                      ------------------
                      INITIAL GUESS DONE (   0.1 sec)
                      ------------------
             **** ENERGY FILE WAS UPDATED (5.en.tmp) ****
Finished Guess after   0.1 sec
Maximum memory used throughout the entire GUESS-calculation: 9.4 MB

-------------------------------------------------------------------------------------------
                                      ORCA LEAN-SCF
                              memory conserving SCF solver
-------------------------------------------------------------------------------------------

----------------------------------------D-I-I-S--------------------------------------------
Iteration    Energy (Eh)           Delta-E    RMSDP     MaxDP     DIISErr   Damp  Time(sec)
-------------------------------------------------------------------------------------------
               ***  Starting incremental Fock matrix formation  ***
    1    -323.2798564932398904     0.00e+00  4.97e-03  1.12e-01  2.65e-01  0.700   0.2
    2    -323.4072591083422594    -1.27e-01  3.05e-03  5.93e-02  9.68e-02  0.700   0.2
                               ***Turning on AO-DIIS***
    3    -323.4452045723661513    -3.79e-02  1.12e-03  1.70e-02  2.56e-02  0.700   0.2
    4    -323.4707031615216692    -2.55e-02  1.50e-03  1.96e-02  1.61e-02  0.000   0.2
    5    -323.5299027614947818    -5.92e-02  5.12e-04  9.38e-03  1.04e-02  0.000   0.2
                              *** Initializing SOSCF ***
---------------------------------------S-O-S-C-F--------------------------------------
Iteration    Energy (Eh)           Delta-E    RMSDP     MaxDP     MaxGrad    Time(sec)
--------------------------------------------------------------------------------------
    6    -323.5305119263209690    -6.09e-04  1.76e-04  2.78e-03  2.82e-03     0.2
               *** Restarting incremental Fock matrix formation ***
    7    -323.5305545580027911    -4.26e-05  1.55e-04  3.14e-03  6.54e-04     0.2
    8    -323.5305398225975750     1.47e-05  8.70e-05  2.39e-03  1.90e-03     0.2
    9    -323.5305604204867223    -2.06e-05  5.85e-05  1.05e-03  3.00e-04     0.2
   10    -323.5305586259877373     1.79e-06  3.34e-05  5.95e-04  2.78e-04     0.2
   11    -323.5305617707811052    -3.14e-06  1.18e-05  2.20e-04  4.12e-05     0.2
   12    -323.5305616996777189     7.11e-08  6.94e-06  1.48e-04  7.35e-05     0.2
   13    -323.5305618210342118    -1.21e-07  1.75e-06  3.24e-05  6.62e-06     0.2
   14    -323.5305618188076551     2.23e-09  1.07e-06  2.36e-05  9.05e-06     0.2
                 **** Energy Check signals convergence ****

               *****************************************************
               *                     SUCCESS                       *
               *           SCF CONVERGED AFTER  14 CYCLES          *
               *****************************************************

             **** ENERGY FILE WAS UPDATED (5.en.tmp) ****

----------------
TOTAL SCF ENERGY
----------------

Total Energy       :       -323.53056182311411 Eh           -8803.71416 eV

Components:
Nuclear Repulsion  :        251.32393974213485 Eh            6838.87208 eV
Electronic Energy  :       -574.85450156524894 Eh          -15642.58624 eV
One Electron Energy:       -938.97290296049687 Eh          -25550.75166 eV
Two Electron Energy:        364.11840139524787 Eh            9908.16542 eV

Virial components:
Potential Energy   :       -645.40829876383509 Eh          -17562.45267 eV
Kinetic Energy     :        321.87773694072092 Eh            8758.73851 eV
Virial Ratio       :          2.00513494626283

DFT components:
N(Alpha)           :       23.999984806950 electrons
N(Beta)            :       23.999984806950 electrons
N(Total)           :       47.999969613900 electrons
E(X)               :      -40.770712966589 Eh       
E(C)               :       -2.116856614223 Eh       
E(XC)              :      -42.887569580812 Eh       

---------------
SCF CONVERGENCE
---------------

  Last Energy change         ...   -2.2266e-09  Tolerance :   1.0000e-08
  Last MAX-Density change    ...    2.3644e-05  Tolerance :   1.0000e-07
  Last RMS-Density change    ...    1.0708e-06  Tolerance :   5.0000e-09
  Last DIIS Error            ...    2.8218e-03  Tolerance :   5.0000e-07
  Last Orbital Gradient      ...    9.0531e-06  Tolerance :   1.0000e-05
  Last Orbital Rotation      ...    7.6362e-06  Tolerance :   1.0000e-05


----------------
ORBITAL ENERGIES
----------------

  NO   OCC          E(Eh)            E(eV) 
   0   2.0000     -18.790625      -511.3189 
   1   2.0000     -18.736275      -509.8400 
   2   2.0000     -14.024479      -381.6255 
   3   2.0000     -10.016248      -272.5560 
   4   2.0000      -9.958880      -270.9949 
   5   2.0000      -9.908326      -269.6193 
   6   2.0000      -1.001578       -27.2543 
   7   2.0000      -0.922613       -25.1056 
   8   2.0000      -0.840253       -22.8644 
   9   2.0000      -0.686153       -18.6712 
  10   2.0000      -0.593078       -16.1385 
  11   2.0000      -0.533231       -14.5099 
  12   2.0000      -0.493911       -13.4400 
  13   2.0000      -0.441897       -12.0246 
  14   2.0000      -0.413712       -11.2577 
  15   2.0000      -0.395863       -10.7720 
  16   2.0000      -0.369579       -10.0568 
  17   2.0000      -0.361886        -9.8474 
  18   2.0000      -0.350646        -9.5416 
  19   2.0000      -0.324427        -8.8281 
  20   2.0000      -0.301289        -8.1985 
  21   2.0000      -0.255655        -6.9567 
  22   2.0000      -0.242035        -6.5861 
  23   2.0000      -0.202761        -5.5174 
  24   0.0000      -0.007801        -0.2123 
  25   0.0000       0.044647         1.2149 
  26   0.0000       0.085609         2.3295 
  27   0.0000       0.105566         2.8726 
  28   0.0000       0.116302         3.1647 
  29   0.0000       0.131148         3.5687 
  30   0.0000       0.144022         3.9190 
  31   0.0000       0.146350         3.9824 
  32   0.0000       0.182944         4.9782 
  33   0.0000       0.204059         5.5527 
  34   0.0000       0.226991         6.1767 
*Only the first 10 virtual orbitals were printed.

                    ********************************
                    * MULLIKEN POPULATION ANALYSIS *
                    ********************************

-----------------------
MULLIKEN ATOMIC CHARGES
-----------------------
   0 C :    0.538375
   1 O :   -0.409611
   2 O :   -0.456133
   3 C :   -0.088410
   4 H :    0.327160
   5 C :   -0.324968
   6 H :    0.149921
   7 N :   -0.613219
   8 H :    0.111119
   9 H :    0.103098
  10 H :    0.145391
  11 H :    0.259429
  12 H :    0.257848
Sum of atomic charges:    0.0000000

--------------------------------
MULLIKEN REDUCED ORBITAL CHARGES
--------------------------------
  0 C s       :     2.971184  s :     2.971184
      pz      :     0.789837  p :     2.363445
      px      :     0.763644
      py      :     0.809963
      dz2     :     0.011348  d :     0.126996
      dxz     :     0.015550
      dyz     :     0.020925
      dx2y2   :     0.033231
      dxy     :     0.045942

  1 O s       :     3.861166  s :     3.861166
      pz      :     1.426367  p :     4.520007
      px      :     1.719250
      py      :     1.374390
      dz2     :     0.003199  d :     0.028438
      dxz     :     0.000641
      dyz     :     0.009764
      dx2y2   :     0.007159
      dxy     :     0.007675

  2 O s       :     3.829403  s :     3.829403
      pz      :     1.693803  p :     4.602446
      px      :     1.508801
      py      :     1.399842
      dz2     :     0.003854  d :     0.024284
      dxz     :     0.005761
      dyz     :     0.000995
      dx2y2   :     0.009586
      dxy     :     0.004087

  3 C s       :     3.206928  s :     3.206928
      pz      :     1.026717  p :     2.826325
      px      :     0.975710
      py      :     0.823898
      dz2     :     0.010859  d :     0.055158
      dxz     :     0.010753
      dyz     :     0.007602
      dx2y2   :     0.009539
      dxy     :     0.016405

  4 H s       :     0.632146  s :     0.632146
      pz      :     0.008723  p :     0.040694
      px      :     0.007957
      py      :     0.024014

  5 C s       :     3.250349  s :     3.250349
      pz      :     0.967032  p :     3.045624
      px      :     1.002557
      py      :     1.076035
      dz2     :     0.008139  d :     0.028996
      dxz     :     0.007697
      dyz     :     0.001521
      dx2y2   :     0.004082
      dxy     :     0.007557

  6 H s       :     0.838225  s :     0.838225
      pz      :     0.002459  p :     0.011854
      px      :     0.002933
      py      :     0.006462

  7 N s       :     3.601684  s :     3.601684
      pz      :     1.390472  p :     3.984081
      px      :     1.473640
      py      :     1.119969
      dz2     :     0.008745  d :     0.027453
      dxz     :     0.002110
      dyz     :     0.003503
      dx2y2   :     0.002855
      dxy     :     0.010240

  8 H s       :     0.877293  s :     0.877293
      pz      :     0.005461  p :     0.011587
      px      :     0.003414
      py      :     0.002712

  9 H s       :     0.885332  s :     0.885332
      pz      :     0.002482  p :     0.011571
      px      :     0.004996
      py      :     0.004093

 10 H s       :     0.843469  s :     0.843469
      pz      :     0.005365  p :     0.011140
      px      :     0.003798
      py      :     0.001977

 11 H s       :     0.716697  s :     0.716697
      pz      :     0.006974  p :     0.023874
      px      :     0.008420
      py      :     0.008480

 12 H s       :     0.718736  s :     0.718736
      pz      :     0.011095  p :     0.023417
      px      :     0.007716
      py      :     0.004605



                     *******************************
                     * LOEWDIN POPULATION ANALYSIS *
                     *******************************

----------------------
LOEWDIN ATOMIC CHARGES
----------------------
   0 C :    0.102022
   1 O :   -0.203620
   2 O :   -0.136238
   3 C :   -0.065374
   4 H :    0.166793
   5 C :   -0.203376
   6 H :    0.091035
   7 N :   -0.246949
   8 H :    0.071976
   9 H :    0.068023
  10 H :    0.090335
  11 H :    0.133723
  12 H :    0.131651

-------------------------------
LOEWDIN REDUCED ORBITAL CHARGES
-------------------------------
  0 C s       :     2.852822  s :     2.852822
      pz      :     0.814162  p :     2.739915
      px      :     0.913751
      py      :     1.012001
      dz2     :     0.025761  d :     0.305242
      dxz     :     0.035268
      dyz     :     0.047177
      dx2y2   :     0.079815
      dxy     :     0.117222

  1 O s       :     3.547971  s :     3.547971
      pz      :     1.419384  p :     4.597394
      px      :     1.701514
      py      :     1.476496
      dz2     :     0.007337  d :     0.058255
      dxz     :     0.001270
      dyz     :     0.015635
      dx2y2   :     0.019949
      dxy     :     0.014063

  2 O s       :     3.472090  s :     3.472090
      pz      :     1.669991  p :     4.611399
      px      :     1.545719
      py      :     1.395690
      dz2     :     0.007257  d :     0.052748
      dxz     :     0.010648
      dyz     :     0.002368
      dx2y2   :     0.023342
      dxy     :     0.009133

  3 C s       :     2.891160  s :     2.891160
      pz      :     1.067653  p :     3.048536
      px      :     1.039454
      py      :     0.941430
      dz2     :     0.024633  d :     0.125678
      dxz     :     0.025060
      dyz     :     0.014984
      dx2y2   :     0.020769
      dxy     :     0.040232

  4 H s       :     0.704652  s :     0.704652
      pz      :     0.025298  p :     0.128555
      px      :     0.023088
      py      :     0.080169

  5 C s       :     2.922484  s :     2.922484
      pz      :     1.046741  p :     3.218015
      px      :     1.066695
      py      :     1.104580
      dz2     :     0.017053  d :     0.062876
      dxz     :     0.018456
      dyz     :     0.003398
      dx2y2   :     0.008489
      dxy     :     0.015481

  6 H s       :     0.867212  s :     0.867212
      pz      :     0.007029  p :     0.041753
      px      :     0.009173
      py      :     0.025551

  7 N s       :     3.194709  s :     3.194709
      pz      :     1.382577  p :     3.995292
      px      :     1.459438
      py      :     1.153277
      dz2     :     0.015144  d :     0.056948
      dxz     :     0.004725
      dyz     :     0.008216
      dx2y2   :     0.008262
      dxy     :     0.020600

  8 H s       :     0.888437  s :     0.888437
      pz      :     0.020457  p :     0.039587
      px      :     0.011643
      py      :     0.007487

  9 H s       :     0.892211  s :     0.892211
      pz      :     0.007043  p :     0.039766
      px      :     0.018277
      py      :     0.014446

 10 H s       :     0.870435  s :     0.870435
      pz      :     0.020089  p :     0.039230
      px      :     0.013022
      py      :     0.006119

 11 H s       :     0.786397  s :     0.786397
      pz      :     0.019655  p :     0.079880
      px      :     0.030052
      py      :     0.030172

 12 H s       :     0.789297  s :     0.789297
      pz      :     0.042564  p :     0.079052
      px      :     0.023374
      py      :     0.013114



                      *****************************
                      * MAYER POPULATION ANALYSIS *
                      *****************************

  NA   - Mulliken gross atomic population
  ZA   - Total nuclear charge
  QA   - Mulliken gross atomic charge
  VA   - Mayer's total valence
  BVA  - Mayer's bonded valence
  FA   - Mayer's free valence

  ATOM       NA         ZA         QA         VA         BVA        FA
  0 C      5.4616     6.0000     0.5384     3.9689     3.9689     0.0000
  1 O      8.4096     8.0000    -0.4096     2.1255     2.1255     0.0000
  2 O      8.4561     8.0000    -0.4561     2.0667     2.0667    -0.0000
  3 C      6.0884     6.0000    -0.0884     3.8286     3.8286    -0.0000
  4 H      0.6728     1.0000     0.3272     0.9334     0.9334    -0.0000
  5 C      6.3250     6.0000    -0.3250     3.8717     3.8717    -0.0000
  6 H      0.8501     1.0000     0.1499     0.9607     0.9607    -0.0000
  7 N      7.6132     7.0000    -0.6132     2.9208     2.9208     0.0000
  8 H      0.8889     1.0000     0.1111     0.9585     0.9585     0.0000
  9 H      0.8969     1.0000     0.1031     0.9554     0.9554     0.0000
 10 H      0.8546     1.0000     0.1454     0.9421     0.9421    -0.0000
 11 H      0.7406     1.0000     0.2594     0.9144     0.9144     0.0000
 12 H      0.7422     1.0000     0.2578     0.9147     0.9147    -0.0000

  Mayer bond orders larger than 0.100000
B(  0-C ,  1-O ) :   1.9265 B(  0-C ,  2-O ) :   1.1316 B(  0-C ,  3-C ) :   0.9047 
B(  1-O ,  2-O ) :   0.1024 B(  2-O ,  4-H ) :   0.7848 B(  3-C ,  5-C ) :   1.0019 
B(  3-C ,  7-N ) :   0.9675 B(  3-C , 10-H ) :   0.9304 B(  4-H ,  7-N ) :   0.1275 
B(  5-C ,  6-H ) :   0.9410 B(  5-C ,  8-H ) :   0.9590 B(  5-C ,  9-H ) :   0.9565 
B(  7-N , 11-H ) :   0.9018 B(  7-N , 12-H ) :   0.9007 

-------
TIMINGS
-------

Total SCF time: 0 days 0 hours 0 min 3 sec 

Total time                  ....       3.264 sec
Sum of individual times     ....       3.035 sec  ( 93.0%)

SCF preparation             ....       0.026 sec  (  0.8%)
Fock matrix formation       ....       2.987 sec  ( 91.5%)
  Startup                   ....       0.000 sec  (  0.0% of F)
  Split-RI-J                ....       0.773 sec  ( 25.9% of F)
  XC integration            ....       2.396 sec  ( 80.2% of F)
    Basis function eval.    ....       0.833 sec  ( 34.8% of XC)
    Density eval.           ....       0.458 sec  ( 19.1% of XC)
    XC-Functional eval.     ....       0.539 sec  ( 22.5% of XC)
    XC-Potential eval.      ....       0.503 sec  ( 21.0% of XC)
Diagonalization             ....       0.000 sec  (  0.0%)
Density matrix formation    ....       0.002 sec  (  0.1%)
Total Energy calculation    ....       0.000 sec  (  0.0%)
Population analysis         ....       0.001 sec  (  0.0%)
Orbital Transformation      ....       0.002 sec  (  0.1%)
Orbital Orthonormalization  ....       0.000 sec  (  0.0%)
DIIS solution               ....       0.009 sec  (  0.3%)
SOSCF solution              ....       0.007 sec  (  0.2%)
Finished LeanSCF after   3.3 sec

Maximum memory used throughout the entire LEANSCF-calculation: 12.9 MB



-------------------------------------------------------------------------------
                          DFT DISPERSION CORRECTION                            
-------------------------------------------------------------------------------
Active option DFTDOPT                   ...         2   
Final C6-coefficient scaling factor     ...     1.250
Final VDW-radii scaling factor          ...     1.100
Damping factor alpha                    ...    20.000
-------------------------   ----------------
Dispersion correction           -0.013118655
-------------------------   ----------------


-------------------------   --------------------
FINAL SINGLE POINT ENERGY      -323.543680478090
-------------------------   --------------------

------------------------------------------------------------------------------
                         ORCA SCF GRADIENT CALCULATION
------------------------------------------------------------------------------

Nuc. rep. gradient        (SHARK) ... done (  0.0 sec)
HCore & Overlap gradient  (SHARK) ... done (  0.0 sec)
Split-RIJ-J gradient      (SHARK) ... done (  0.3 sec)
XC gradient                       ... done (  1.1 sec)
Dispersion correction             ... done (  0.0 sec)

-------------------
DISPERSION GRADIENT
-------------------

   1   C   :   -0.000026730   -0.000107277    0.000606991
   2   O   :    0.000299256    0.000290219    0.000081876
   3   O   :   -0.000173968   -0.000062873   -0.000015024
   4   C   :    0.000521150    0.000023795   -0.000837434
   5   H   :   -0.000127690    0.000246808    0.000174775
   6   C   :    0.000340373    0.000340678    0.000671211
   7   H   :   -0.000324588   -0.001025655   -0.000687911
   8   N   :    0.000476152    0.000920397    0.000641449
   9   H   :   -0.001365858    0.000397506   -0.000004011
  10   H   :    0.000226768    0.000935490   -0.000629808
  11   H   :    0.000001976    0.000128561    0.000221536
  12   H   :    0.000287339   -0.000827616   -0.000081568
  13   H   :   -0.000134181   -0.001260031   -0.000142081

Difference to translation invariance:
           :    0.0000000000    0.0000000000   -0.0000000000

Difference to rotation invariance:
           :    0.0000000000   -0.0000000000   -0.0000000000

Norm of the Dispersion gradient    ...    0.0033596982
RMS gradient                       ...    0.0005379823
MAX gradient                       ...    0.0013658581

------------------
CARTESIAN GRADIENT
------------------

   1   C   :    0.006823109    0.023311835   -0.003208313
   2   O   :    0.005145050   -0.033105505    0.007111160
   3   O   :   -0.025215885   -0.005108140   -0.007461265
   4   C   :    0.002068656   -0.002920378    0.003403107
   5   H   :    0.006263823    0.005085655    0.000514998
   6   C   :    0.001060817   -0.000551256   -0.004145160
   7   H   :    0.002876959   -0.007020863    0.000960046
   8   N   :   -0.004832067    0.008322191   -0.004532610
   9   H   :   -0.003974996    0.000753665    0.006729130
  10   H   :    0.005580217    0.005263965    0.000455324
  11   H   :    0.001593613    0.000905322   -0.002775538
  12   H   :    0.002294671    0.003742820   -0.000811915
  13   H   :    0.000316033    0.001320688    0.003761035

Difference to translation invariance:
           :   -0.0000000000   -0.0000000000   -0.0000000000

Difference to rotation invariance:
           :   -0.0001307640   -0.0001079273    0.0000430555

Norm of the Cartesian gradient     ...    0.0542089323
RMS gradient                       ...    0.0086803763
MAX gradient                       ...    0.0331055048

-------
TIMINGS
-------

Total SCF gradient time     ....        1.419 sec

Densities                   ....       0.000 sec  (  0.0%)
One electron gradient       ....       0.041 sec  (  2.9%)
RI-J Coulomb gradient       ....       0.252 sec  ( 17.8%)
XC gradient                 ....       1.125 sec  ( 79.3%)

Maximum memory used throughout the entire SCFGRAD-calculation: 17.0 MB
------------------------------------------------------------------------------
                         ORCA GEOMETRY RELAXATION STEP
------------------------------------------------------------------------------

Reading the OPT-File                    .... done
Getting information on internals        .... done
Copying old internal coords+grads       .... done
Making the new internal coordinates     .... (2022 redundants) done
Validating the new internal coordinates .... (2022 redundants) done
Calculating the B-matrix                .... done
Calculating the G,G- and P matrices     .... done
Transforming gradient to internals      .... done
Projecting the internal gradient        .... done
Number of atoms                         ....  13
Number of internal coordinates          ....  51
Current Energy                          ....  -323.543680478 Eh
Current gradient norm                   ....     0.054208932 Eh/bohr
Maximum allowed component of the step   ....  0.300
Current trust radius                    ....  0.300
Evaluating the initial hessian          ....  (Almloef) done
Projecting the Hessian                  .... done
Forming the augmented Hessian           .... done
Diagonalizing the augmented Hessian     .... done
Last element of RFO vector              ....  0.990459334
Lowest eigenvalues of augmented Hessian:
 -0.003904991  0.010566240  0.011345936  0.016953596  0.017889112
Length of the computed step             ....  0.139132744
The final length of the internal step   ....  0.139132744
Converting the step to Cartesian space:
 Initial RMS(Int)=    0.0194824810
Transforming coordinates:
 Iter   0:  RMS(Cart)=    0.0344650968 RMS(Int)=    0.0196077459
done
Storing new coordinates                 .... done

                                .--------------------.
          ----------------------|Geometry convergence|-------------------------
          Item                value                   Tolerance       Converged
          ---------------------------------------------------------------------
          RMS gradient        0.0067082561            0.0001000000      NO
          MAX gradient        0.0342370512            0.0003000000      NO
          RMS step            0.0194824810            0.0020000000      NO
          MAX step            0.0560014366            0.0040000000      NO
          -------------------------------------------------------------------------
          ........................................................
          Max(Bonds)      0.0296      Max(Angles)    1.95
          Max(Dihed)        2.75      Max(Improp)    0.00
          ---------------------------------------------------------------------

The optimization has not yet converged - more geometry cycles are needed


    ---------------------------------------------------------------------------
                         Redundant Internal Coordinates
                            (Angstroem and degrees)

        Definition                    Value    dE/dq     Step     New-Value
    ----------------------------------------------------------------------------
     1. B(O   1,C   0)                1.1971 -0.034237  0.0159    1.2130   
     2. B(O   2,C   0)                1.3291 -0.017942  0.0137    1.3428   
     3. B(C   3,C   0)                1.5428 -0.010543  0.0162    1.5589   
     4. B(H   4,O   2)                0.9830 -0.006357  0.0067    0.9897   
     5. B(C   5,C   3)                1.5275 -0.006682  0.0093    1.5368   
     6. B(H   6,C   5)                1.0860 -0.007548  0.0108    1.0968   
     7. B(N   7,C   3)                1.4616 -0.012739  0.0156    1.4772   
     8. B(N   7,H   4)                1.8898 -0.001664  0.0296    1.9194   
     9. B(H   8,C   5)                1.0889 -0.007852  0.0114    1.1003   
    10. B(H   9,C   5)                1.0882 -0.007656  0.0111    1.0992   
    11. B(H  10,C   3)                1.0974 -0.003128  0.0047    1.1021   
    12. B(H  11,N   7)                1.0129 -0.004399  0.0054    1.0183   
    13. B(H  12,N   7)                1.0164 -0.003616  0.0045    1.0209   
    14. A(O   1,C   0,C   3)          123.35 -0.001354    0.09    123.44   
    15. A(O   2,C   0,C   3)          113.18  0.000539    0.06    113.25   
    16. A(O   1,C   0,O   2)          123.45  0.000827   -0.18    123.27   
    17. A(C   0,O   2,H   4)          107.64  0.013540   -1.95    105.69   
    18. A(C   0,C   3,H  10)          105.57  0.000827   -0.38    105.19   
    19. A(C   0,C   3,N   7)          107.92 -0.002081    0.92    108.84   
    20. A(C   0,C   3,C   5)          110.53 -0.000427    0.43    110.95   
    21. A(C   5,C   3,N   7)          115.18  0.000440    0.09    115.27   
    22. A(N   7,C   3,H  10)          107.79  0.001465   -0.74    107.05   
    23. A(C   5,C   3,H  10)          109.38 -0.000145   -0.37    109.01   
    24. A(H   8,C   5,H   9)          108.97  0.001101   -0.21    108.77   
    25. A(H   6,C   5,H   9)          109.20 -0.000494    0.10    109.30   
    26. A(C   3,C   5,H   6)          109.32 -0.002211    0.39    109.71   
    27. A(C   3,C   5,H   9)          110.86  0.000179   -0.02    110.84   
    28. A(H   6,C   5,H   8)          108.30  0.000833   -0.16    108.14   
    29. A(C   3,C   5,H   8)          110.14  0.000609   -0.10    110.04   
    30. A(H  11,N   7,H  12)          107.46  0.000704   -0.35    107.11   
    31. A(C   3,N   7,H  12)          109.84  0.000864   -0.25    109.60   
    32. A(C   3,N   7,H  11)          111.25 -0.000972    0.07    111.31   
    33. D(H   4,O   2,C   0,O   1)   -178.59  0.000678   -1.35   -179.94   
    34. D(H   4,O   2,C   0,C   3)      2.72  0.000143   -0.00      2.72   
    35. D(N   7,C   3,C   0,O   1)    163.81 -0.000661   -0.34    163.47   
    36. D(N   7,C   3,C   0,O   2)    -17.50 -0.000094   -1.69    -19.19   
    37. D(C   5,C   3,C   0,O   2)   -144.26  0.001115   -2.75   -147.01   
    38. D(H  10,C   3,C   0,O   1)    -81.14  0.000467   -0.95    -82.09   
    39. D(C   5,C   3,C   0,O   1)     37.04  0.000548   -1.39     35.65   
    40. D(H   8,C   5,C   3,H  10)   -176.79 -0.000342   -0.22   -177.01   
    41. D(H   8,C   5,C   3,N   7)    -55.23  0.001772   -1.42    -56.65   
    42. D(H   8,C   5,C   3,C   0)     67.39 -0.001015    0.22     67.61   
    43. D(H   6,C   5,C   3,H  10)     64.33 -0.000376   -0.19     64.13   
    44. D(H   6,C   5,C   3,N   7)   -174.11  0.001739   -1.39   -175.50   
    45. D(H   6,C   5,C   3,C   0)    -51.49 -0.001048    0.25    -51.25   
    46. D(H  11,N   7,C   3,C   5)    -77.24 -0.001037   -0.07    -77.31   
    47. D(H  11,N   7,C   3,C   0)    158.76  0.000847   -1.42    157.34   
    48. D(H  12,N   7,C   3,H  10)    164.03  0.001009   -1.62    162.41   
    49. D(H  12,N   7,C   3,C   5)     41.61 -0.000216   -0.62     40.99   
    50. D(H  12,N   7,C   3,C   0)    -82.39  0.001668   -1.97    -84.36   
    51. D(H  11,N   7,C   3,H  10)     45.18  0.000188   -1.06     44.12   
    ----------------------------------------------------------------------------

Geometry step timings:
Preparation and reading OPT file:      0.000 s ( 1.892 %)
Internal coordinates            :      0.000 s ( 1.456 %)
B/P matrices and projection     :      0.000 s (38.137 %)
Hessian update/contruction      :      0.000 s (10.771 %)
Making the step                 :      0.000 s (22.853 %)
Converting the step to Cartesian:      0.000 s ( 3.930 %)
Storing new data                :      0.000 s ( 1.892 %)
Checking convergence            :      0.000 s ( 1.601 %)
Final printing                  :      0.000 s (17.467 %)
Total time                      :      0.001 s

Time for energy+gradient        :      5.136 s
Time for complete geometry iter :      5.148 s

         *************************************************************
         *                GEOMETRY OPTIMIZATION CYCLE   2            *
         *************************************************************
---------------------------------
CARTESIAN COORDINATES (ANGSTROEM)
---------------------------------
  C     -4.736470    0.682740   -1.831944
  O     -4.949414    1.845970   -2.101830
  O     -3.565252    0.241893   -1.345196
  C     -5.813188   -0.438066   -1.952605
  H     -3.676801   -0.733793   -1.222223
  C     -6.735238   -0.186979   -3.156110
  H     -7.124058    0.837822   -3.116724
  N     -5.137626   -1.751634   -1.939347
  H     -6.171468   -0.303594   -4.093756
  H     -7.576206   -0.894822   -3.158712
  H     -6.405932   -0.370108   -1.025962
  H     -5.772813   -2.491540   -1.646097
  H     -4.821255   -1.983460   -2.881917

----------------------------
CARTESIAN COORDINATES (A.U.)
----------------------------
  NO LB      ZA    FRAG     MASS         X           Y           Z
   0 C     6.0000    0    12.011   -8.950631    1.290191   -3.461872
   1 O     8.0000    0    15.999   -9.353036    3.488378   -3.971883
   2 O     8.0000    0    15.999   -6.737349    0.457112   -2.542052
   3 C     6.0000    0    12.011  -10.985333   -0.827825   -3.689888
   4 H     1.0000    0     1.008   -6.948147   -1.386668   -2.309667
   5 C     6.0000    0    12.011  -12.727755   -0.353339   -5.964184
   6 H     1.0000    0     1.008  -13.462518    1.583255   -5.889755
   7 N     7.0000    0    14.007   -9.708706   -3.310108   -3.664834
   8 H     1.0000    0     1.008  -11.662385   -0.573710   -7.736078
   9 H     1.0000    0     1.008  -14.316955   -1.690969   -5.969101
  10 H     1.0000    0     1.008  -12.105458   -0.699403   -1.938787
  11 H     1.0000    0     1.008  -10.909036   -4.708329   -3.110672
  12 H     1.0000    0     1.008   -9.110851   -3.748196   -5.446035

--------------------------------
INTERNAL COORDINATES (ANGSTROEM)
--------------------------------
 C      0   0   0     0.000000000000     0.00000000     0.00000000
 O      1   0   0     1.212967153266     0.00000000     0.00000000
 O      1   2   0     1.342766333031   123.27329611     0.00000000
 C      1   2   3     1.558873154599   123.43731317   177.07606616
 H      3   1   2     0.989711827044   105.68749922   180.06179935
 C      4   1   2     1.536765214830   110.95055326    35.64683066
 H      6   4   1     1.096791016170   109.70891222   308.74991118
 N      4   1   2     1.477166140253   108.83100214   163.47820810
 H      6   4   1     1.100279435464   110.03770940    67.60550402
 H      6   4   1     1.099216326288   110.83470696   187.95194415
 H      4   1   2     1.102103340383   105.19274683   277.91389528
 H      8   4   1     1.018292847314   111.31220210   157.33671615
 H      8   4   1     1.020917756093   109.59467051   275.63559139

---------------------------
INTERNAL COORDINATES (A.U.)
---------------------------
 C      0   0   0     0.000000000000     0.00000000     0.00000000
 O      1   0   0     2.292175729115     0.00000000     0.00000000
 O      1   2   0     2.537460631277   123.27329611     0.00000000
 C      1   2   3     2.945843339714   123.43731317   177.07606616
 H      3   1   2     1.870284304616   105.68749922   180.06179935
 C      4   1   2     2.904065388165   110.95055326    35.64683066
 H      6   4   1     2.072634646707   109.70891222   308.74991118
 N      4   1   2     2.791439459380   108.83100214   163.47820810
 H      6   4   1     2.079226803813   110.03770940    67.60550402
 H      6   4   1     2.077217818620   110.83470696   187.95194415
 H      4   1   2     2.082673484603   105.19274683   277.91389528
 H      8   4   1     1.924294605555   111.31220210   157.33671615
 H      8   4   1     1.929254964273   109.59467051   275.63559139

------------------------------------------------------------------------------
                   ___                                                        
                  /   \      - P O W E R E D   B Y -                         
                 /     \                                                     
                 |  |  |   _    _      __       _____    __    __             
                 |  |  |  | |  | |    /  \     |  _  \  |  |  /  |          
                  \  \/   | |  | |   /    \    | | | |  |  | /  /          
                 / \  \   | |__| |  /  /\  \   | |_| |  |  |/  /          
                |  |  |   |  __  | /  /__\  \  |    /   |      \           
                |  |  |   | |  | | |   __   |  |    \   |  |\   \          
                \     /   | |  | | |  |  |  |  | |\  \  |  | \   \       
                 \___/    |_|  |_| |__|  |__|  |_| \__\ |__|  \__/        
                                                                              
                      - O R C A' S   B I G   F R I E N D -                    
                                      &                                       
                       - I N T E G R A L  F E E D E R -                       
                                                                              
 v1 FN, 2020, v2 2021, v3 2022-2024                                           
------------------------------------------------------------------------------


----------------------
SHARK INTEGRAL PACKAGE
----------------------

Number of atoms                             ...     13
Number of basis functions                   ...    119
Number of shells                            ...     57
Maximum angular momentum                    ...      2
Integral batch strategy                     ... SHARK/LIBINT Hybrid
RI-J (if used) integral strategy            ... SPLIT-RIJ (Revised 2003 algorithm where possible)
Printlevel                                  ...      1
Contraction scheme used                     ... SEGMENTED contraction
Prescreening option                         ... SCHWARTZ
   Thresh                                   ... 2.500e-11
   Tcut                                     ... 2.500e-12
   Tpresel                                  ... 2.500e-12 
Coulomb Range Separation                    ... NOT USED
Exchange Range Separation                   ... NOT USED
Multipole approximations                    ... NOT USED
Finite Nucleus Model                        ... NOT USED
CABS basis                                  ... NOT available
Auxiliary Coulomb fitting basis             ... AVAILABLE
   # of basis functions in Aux-J            ...    371
   # of shells in Aux-J                     ...    125
   Maximum angular momentum in Aux-J        ...      4
Auxiliary J/K fitting basis                 ... NOT available
Auxiliary Correlation fitting basis         ... NOT available
Auxiliary 'external' fitting basis          ... NOT available

Checking pre-screening integrals            ... done (  0.0 sec) Dimension = 57
   => SHARK Basis and OBASIS are compatible. Storing Pre-screening
Shell pair information
Shell pair cut-off parameter TPreSel        ...   2.5e-12
Total number of shell pairs                 ...      1653
Shell pairs after pre-screening             ...      1596
Total number of primitive shell pairs       ...      8022
Primitive shell pairs kept                  ...      5564
          la=0 lb=0:    505 shell pairs
          la=1 lb=0:    585 shell pairs
          la=1 lb=1:    185 shell pairs
          la=2 lb=0:    188 shell pairs
          la=2 lb=1:    112 shell pairs
          la=2 lb=2:     21 shell pairs

Checking whether 4 symmetric matrices of dimension 119 fit in memory
:Max Core in MB      =   4096.00
 MB in use           =      5.64
 MB left             =   4090.36
 MB needed           =      0.22
 Data fit in memory  = YES
Calculating RI/J V-Matrix + Cholesky decomp.... done (  0.0 sec)
Calculating Nuclear repulsion               ... done (  0.0 sec) ENN=    248.596423921684 Eh

Diagonalization of the overlap matrix:
Smallest eigenvalue                        ... 3.740e-03
Time for diagonalization                   ...    0.001 sec
Threshold for overlap eigenvalues          ... 1.000e-07
Number of eigenvalues below threshold      ... 0
Time for construction of square roots      ...    0.000 sec
Total time needed                          ...    0.001 sec

-------------------
DFT GRID GENERATION
-------------------

General Integration Accuracy     IntAcc      ... 4.388
Radial Grid Type                 RadialGrid  ... OptM3 with GC (2021)
Angular Grid (max. ang.)         AngularGrid ... 4 (Lebedev-302)
Angular grid pruning method      GridPruning ... 4 (adaptive)
Weight generation scheme         WeightScheme... mBecke (2022)
Basis function cutoff            BFCut       ... 1.0000e-11
Integration weight cutoff        WCut        ... 1.0000e-14
Partially contracted basis set               ... off
Rotationally invariant grid construction     ... off
Angular grids for H and He will be reduced by one unit

Total number of grid points                  ...    58915
Total number of batches                      ...      927
Average number of points per batch           ...       63
Average number of grid points per atom       ...     4532
Grids setup in   0.2 sec
Initializing property integral containers    ... done (  0.0 sec)

SHARK setup successfully completed in   0.2 seconds

Maximum memory used throughout the entire STARTUP-calculation: 24.9 MB
Occupation numbers will be reassigned to an Aufbau configuration
             **** ENERGY FILE WAS UPDATED (5.en.tmp) ****
Finished Guess after   0.0 sec
Maximum memory used throughout the entire GUESS-calculation: 9.2 MB
----------------------------------------D-I-I-S--------------------------------------------
Iteration    Energy (Eh)           Delta-E    RMSDP     MaxDP     DIISErr   Damp  Time(sec)
-------------------------------------------------------------------------------------------
               ***  Starting incremental Fock matrix formation  ***
    1    -323.5316068083352548     0.00e+00  2.05e-04  2.82e-03  1.04e-02  0.700   0.2
    2    -323.5319740300950571    -3.67e-04  1.91e-04  2.65e-03  8.11e-03  0.700   0.2
                               ***Turning on AO-DIIS***
    3    -323.5322437222234839    -2.70e-04  1.50e-04  1.94e-03  5.92e-03  0.700   0.2
    4    -323.5324314908715451    -1.88e-04  3.70e-04  4.84e-03  4.22e-03  0.000   0.2
                              *** Initializing SOSCF ***
---------------------------------------S-O-S-C-F--------------------------------------
Iteration    Energy (Eh)           Delta-E    RMSDP     MaxDP     MaxGrad    Time(sec)
--------------------------------------------------------------------------------------
    5    -323.5328719273155684    -4.40e-04  2.58e-05  4.63e-04  4.53e-04     0.2
               *** Restarting incremental Fock matrix formation ***
    6    -323.5328731242723279    -1.20e-06  1.97e-05  3.03e-04  9.79e-05     0.2
    7    -323.5328731426918694    -1.84e-08  8.80e-06  1.88e-04  6.68e-05     0.2
    8    -323.5328733420351455    -1.99e-07  4.82e-06  1.50e-04  2.53e-05     0.2
    9    -323.5328733232013292     1.88e-08  3.10e-06  9.70e-05  6.48e-05     0.2
   10    -323.5328733477281276    -2.45e-08  1.79e-06  3.09e-05  7.73e-06     0.2
   11    -323.5328733466535596     1.07e-09  1.05e-06  2.17e-05  1.09e-05     0.2
                 **** Energy Check signals convergence ****

               *****************************************************
               *                     SUCCESS                       *
               *           SCF CONVERGED AFTER  11 CYCLES          *
               *****************************************************

             **** ENERGY FILE WAS UPDATED (5.en.tmp) ****

----------------
TOTAL SCF ENERGY
----------------

Total Energy       :       -323.53287334911329 Eh           -8803.77706 eV

Components:
Nuclear Repulsion  :        248.59642392168439 Eh            6764.65260 eV
Electronic Energy  :       -572.12929727079768 Eh          -15568.42966 eV
One Electron Energy:       -933.57599500419667 Eh          -25403.89433 eV
Two Electron Energy:        361.44669773339899 Eh            9835.46467 eV

Virial components:
Potential Energy   :       -645.16523482936145 Eh          -17555.83856 eV
Kinetic Energy     :        321.63236148024811 Eh            8752.06150 eV
Virial Ratio       :          2.00590895723340

DFT components:
N(Alpha)           :       23.999991129658 electrons
N(Beta)            :       23.999991129658 electrons
N(Total)           :       47.999982259315 electrons
E(X)               :      -40.709142690315 Eh       
E(C)               :       -2.115606697278 Eh       
E(XC)              :      -42.824749387594 Eh       

---------------
SCF CONVERGENCE
---------------

  Last Energy change         ...   -1.0746e-09  Tolerance :   1.0000e-08
  Last MAX-Density change    ...    2.1661e-05  Tolerance :   1.0000e-07
  Last RMS-Density change    ...    1.0544e-06  Tolerance :   5.0000e-09
  Last DIIS Error            ...    4.5300e-04  Tolerance :   5.0000e-07
  Last Orbital Gradient      ...    1.0918e-05  Tolerance :   1.0000e-05
  Last Orbital Rotation      ...    8.4609e-06  Tolerance :   1.0000e-05


Total SCF time: 0 days 0 hours 0 min 2 sec 
Finished LeanSCF after   2.5 sec

Maximum memory used throughout the entire LEANSCF-calculation: 12.9 MB



-------------------------------------------------------------------------------
                          DFT DISPERSION CORRECTION                            
-------------------------------------------------------------------------------
-------------------------   ----------------
Dispersion correction           -0.013005899
-------------------------   ----------------


-------------------------   --------------------
FINAL SINGLE POINT ENERGY      -323.545879248218
-------------------------   --------------------

------------------------------------------------------------------------------
                         ORCA SCF GRADIENT CALCULATION
------------------------------------------------------------------------------

Nuc. rep. gradient        (SHARK) ... done (  0.0 sec)
HCore & Overlap gradient  (SHARK) ... done (  0.0 sec)
Split-RIJ-J gradient      (SHARK) ... done (  0.3 sec)
XC gradient                       ... done (  1.2 sec)
Dispersion correction             ... done (  0.0 sec)

-------------------
DISPERSION GRADIENT
-------------------

   1   C   :   -0.000060239   -0.000231256    0.000592654
   2   O   :    0.000386937    0.000276878    0.000144168
   3   O   :   -0.000273801   -0.000115435   -0.000087598
[...]
   8   2.0000      -0.837225       -22.7820 
   9   2.0000      -0.686128       -18.6705 
  10   2.0000      -0.591833       -16.1046 
  11   2.0000      -0.520364       -14.1598 
  12   2.0000      -0.489564       -13.3217 
  13   2.0000      -0.441912       -12.0250 
  14   2.0000      -0.417129       -11.3507 
  15   2.0000      -0.391652       -10.6574 
  16   2.0000      -0.367287        -9.9944 
  17   2.0000      -0.359608        -9.7854 
  18   2.0000      -0.350851        -9.5472 
  19   2.0000      -0.322336        -8.7712 
  20   2.0000      -0.303670        -8.2633 
  21   2.0000      -0.252944        -6.8830 
  22   2.0000      -0.247905        -6.7458 
  23   2.0000      -0.203068        -5.5258 
  24   0.0000      -0.014315        -0.3895 
  25   0.0000       0.039840         1.0841 
  26   0.0000       0.082223         2.2374 
  27   0.0000       0.098671         2.6850 
  28   0.0000       0.116774         3.1776 
  29   0.0000       0.129594         3.5264 
  30   0.0000       0.135870         3.6972 
  31   0.0000       0.138141         3.7590 
  32   0.0000       0.172556         4.6955 
  33   0.0000       0.197344         5.3700 
  34   0.0000       0.216001         5.8777 
*Only the first 10 virtual orbitals were printed.

                    ********************************
                    * MULLIKEN POPULATION ANALYSIS *
                    ********************************

-----------------------
MULLIKEN ATOMIC CHARGES
-----------------------
   0 C :    0.544091
   1 O :   -0.419895
   2 O :   -0.466717
   3 C :   -0.084232
   4 H :    0.331617
   5 C :   -0.327077
   6 H :    0.151787
   7 N :   -0.616154
   8 H :    0.113265
   9 H :    0.104485
  10 H :    0.146590
  11 H :    0.261948
  12 H :    0.260292
Sum of atomic charges:    0.0000000

--------------------------------
MULLIKEN REDUCED ORBITAL CHARGES
--------------------------------
  0 C s       :     2.989886  s :     2.989886
      pz      :     0.791587  p :     2.345791
      px      :     0.755780
      py      :     0.798424
      dz2     :     0.010341  d :     0.120232
      dxz     :     0.014297
      dyz     :     0.020028
      dx2y2   :     0.032181
      dxy     :     0.043385

  1 O s       :     3.875272  s :     3.875272
      pz      :     1.431410  p :     4.517126
      px      :     1.718588
      py      :     1.367128
      dz2     :     0.002954  d :     0.027498
      dxz     :     0.000572
      dyz     :     0.009413
      dx2y2   :     0.007064
      dxy     :     0.007495

  2 O s       :     3.848364  s :     3.848364
      pz      :     1.699090  p :     4.593736
      px      :     1.500038
      py      :     1.394608
      dz2     :     0.003924  d :     0.024616
      dxz     :     0.005807
      dyz     :     0.000907
      dx2y2   :     0.009454
      dxy     :     0.004525

  3 C s       :     3.218188  s :     3.218188
      pz      :     1.026074  p :     2.812947
      px      :     0.970234
      py      :     0.816640
      dz2     :     0.010575  d :     0.053097
      dxz     :     0.010318
      dyz     :     0.006899
      dx2y2   :     0.009392
      dxy     :     0.015912

  4 H s       :     0.628131  s :     0.628131
      pz      :     0.008367  p :     0.040252
      px      :     0.008197
      py      :     0.023688

  5 C s       :     3.261144  s :     3.261144
      pz      :     0.965090  p :     3.037506
      px      :     0.999952
      py      :     1.072463
      dz2     :     0.007980  d :     0.028427
      dxz     :     0.007674
      dyz     :     0.001440
      dx2y2   :     0.003808
      dxy     :     0.007525

  6 H s       :     0.836670  s :     0.836670
      pz      :     0.002348  p :     0.011544
      px      :     0.002857
      py      :     0.006339

  7 N s       :     3.613997  s :     3.613997
      pz      :     1.340330  p :     3.975602
      px      :     1.514344
      py      :     1.120929
      dz2     :     0.008278  d :     0.026555
      dxz     :     0.001731
      dyz     :     0.004217
      dx2y2   :     0.002570
      dxy     :     0.009759

  8 H s       :     0.875438  s :     0.875438
      pz      :     0.005392  p :     0.011297
      px      :     0.003325
      py      :     0.002580

  9 H s       :     0.884233  s :     0.884233
      pz      :     0.002378  p :     0.011282
      px      :     0.004834
      py      :     0.004070

 10 H s       :     0.842358  s :     0.842358
      pz      :     0.005330  p :     0.011052
      px      :     0.003765
      py      :     0.001957

 11 H s       :     0.714458  s :     0.714458
      pz      :     0.007053  p :     0.023594
      px      :     0.008423
      py      :     0.008118

 12 H s       :     0.716512  s :     0.716512
      pz      :     0.011161  p :     0.023196
      px      :     0.007312
      py      :     0.004723



                     *******************************
                     * LOEWDIN POPULATION ANALYSIS *
                     *******************************

----------------------
LOEWDIN ATOMIC CHARGES
----------------------
   0 C :    0.121068
   1 O :   -0.217154
   2 O :   -0.156040
   3 C :   -0.060878
   4 H :    0.170461
   5 C :   -0.204612
   6 H :    0.093411
   7 N :   -0.251420
   8 H :    0.073664
   9 H :    0.069751
  10 H :    0.091031
  11 H :    0.136587
  12 H :    0.134131

-------------------------------
LOEWDIN REDUCED ORBITAL CHARGES
-------------------------------
  0 C s       :     2.867541  s :     2.867541
      pz      :     0.813909  p :     2.725603
      px      :     0.906393
      py      :     1.005300
      dz2     :     0.023308  d :     0.285788
      dxz     :     0.032007
      dyz     :     0.044418
      dx2y2   :     0.076684
      dxy     :     0.109372

  1 O s       :     3.563764  s :     3.563764
      pz      :     1.424327  p :     4.597824
      px      :     1.704127
      py      :     1.469371
      dz2     :     0.007026  d :     0.055566
      dxz     :     0.001089
      dyz     :     0.014613
      dx2y2   :     0.019418
      dxy     :     0.013420

  2 O s       :     3.497188  s :     3.497188
      pz      :     1.677693  p :     4.607970
      px      :     1.539444
      py      :     1.390834
      dz2     :     0.007118  d :     0.050881
      dxz     :     0.010363
      dyz     :     0.001936
      dx2y2   :     0.022202
      dxy     :     0.009262

  3 C s       :     2.902171  s :     2.902171
      pz      :     1.068887  p :     3.039073
      px      :     1.036411
      py      :     0.933774
      dz2     :     0.023779  d :     0.119635
      dxz     :     0.023692
      dyz     :     0.013274
      dx2y2   :     0.020168
      dxy     :     0.038723

  4 H s       :     0.702989  s :     0.702989
      pz      :     0.023782  p :     0.126550
      px      :     0.023354
      py      :     0.079414

  5 C s       :     2.930997  s :     2.930997
      pz      :     1.044818  p :     3.212418
      px      :     1.064724
      py      :     1.102876
      dz2     :     0.016617  d :     0.061197
      dxz     :     0.018215
      dyz     :     0.003189
      dx2y2   :     0.007872
      dxy     :     0.015306

  6 H s       :     0.866177  s :     0.866177
      pz      :     0.006620  p :     0.040412
      px      :     0.008937
      py      :     0.024855

  7 N s       :     3.207866  s :     3.207866
      pz      :     1.334986  p :     3.989365
      px      :     1.501129
      py      :     1.153250
      dz2     :     0.014651  d :     0.054189
      dxz     :     0.003624
      dyz     :     0.009758
      dx2y2   :     0.007233
      dxy     :     0.018923

  8 H s       :     0.888124  s :     0.888124
      pz      :     0.019980  p :     0.038211
      px      :     0.011239
      py      :     0.006992

  9 H s       :     0.891790  s :     0.891790
      pz      :     0.006624  p :     0.038460
      px      :     0.017461
      py      :     0.014374

 10 H s       :     0.870163  s :     0.870163
      pz      :     0.019943  p :     0.038807
      px      :     0.012932
      py      :     0.005932

 11 H s       :     0.784744  s :     0.784744
      pz      :     0.020161  p :     0.078669
      px      :     0.029745
      py      :     0.028763

 12 H s       :     0.787933  s :     0.787933
      pz      :     0.042421  p :     0.077936
      px      :     0.021750
      py      :     0.013765



                      *****************************
                      * MAYER POPULATION ANALYSIS *
                      *****************************

  NA   - Mulliken gross atomic population
  ZA   - Total nuclear charge
  QA   - Mulliken gross atomic charge
  VA   - Mayer's total valence
  BVA  - Mayer's bonded valence
  FA   - Mayer's free valence

  ATOM       NA         ZA         QA         VA         BVA        FA
  0 C      5.4559     6.0000     0.5441     3.9339     3.9339    -0.0000
  1 O      8.4199     8.0000    -0.4199     2.1120     2.1120    -0.0000
  2 O      8.4667     8.0000    -0.4667     2.0591     2.0591     0.0000
  3 C      6.0842     6.0000    -0.0842     3.8187     3.8187    -0.0000
  4 H      0.6684     1.0000     0.3316     0.9283     0.9283    -0.0000
  5 C      6.3271     6.0000    -0.3271     3.8696     3.8696     0.0000
  6 H      0.8482     1.0000     0.1518     0.9600     0.9600     0.0000
  7 N      7.6162     7.0000    -0.6162     2.9214     2.9214     0.0000
  8 H      0.8867     1.0000     0.1133     0.9575     0.9575     0.0000
  9 H      0.8955     1.0000     0.1045     0.9558     0.9558     0.0000
 10 H      0.8534     1.0000     0.1466     0.9414     0.9414    -0.0000
 11 H      0.7381     1.0000     0.2619     0.9122     0.9122     0.0000
 12 H      0.7397     1.0000     0.2603     0.9137     0.9137     0.0000

  Mayer bond orders larger than 0.100000
B(  0-C ,  1-O ) :   1.9084 B(  0-C ,  2-O ) :   1.1222 B(  0-C ,  3-C ) :   0.8982 
B(  1-O ,  2-O ) :   0.1075 B(  2-O ,  4-H ) :   0.7754 B(  3-C ,  5-C ) :   0.9996 
B(  3-C ,  7-N ) :   0.9580 B(  3-C , 10-H ) :   0.9312 B(  4-H ,  7-N ) :   0.1352 
B(  5-C ,  6-H ) :   0.9405 B(  5-C ,  8-H ) :   0.9580 B(  5-C ,  9-H ) :   0.9553 
B(  7-N , 11-H ) :   0.9003 B(  7-N , 12-H ) :   0.9002 

-------
TIMINGS
-------

Total SCF time: 0 days 0 hours 0 min 1 sec 

Total time                  ....       1.495 sec
Sum of individual times     ....       1.273 sec  ( 85.2%)

SCF preparation             ....       0.029 sec  (  1.9%)
Fock matrix formation       ....       1.228 sec  ( 82.2%)
  Startup                   ....       0.000 sec  (  0.0% of F)
  Split-RI-J                ....       0.342 sec  ( 27.8% of F)
  XC integration            ....       1.067 sec  ( 86.9% of F)
    Basis function eval.    ....       0.386 sec  ( 36.2% of XC)
    Density eval.           ....       0.210 sec  ( 19.6% of XC)
    XC-Functional eval.     ....       0.252 sec  ( 23.6% of XC)
    XC-Potential eval.      ....       0.191 sec  ( 17.9% of XC)
Diagonalization             ....       0.000 sec  (  0.0%)
Density matrix formation    ....       0.001 sec  (  0.1%)
Total Energy calculation    ....       0.000 sec  (  0.0%)
Population analysis         ....       0.008 sec  (  0.5%)
Orbital Transformation      ....       0.001 sec  (  0.1%)
Orbital Orthonormalization  ....       0.000 sec  (  0.0%)
DIIS solution               ....       0.001 sec  (  0.1%)
SOSCF solution              ....       0.005 sec  (  0.3%)
Finished LeanSCF after   1.5 sec

Maximum memory used throughout the entire LEANSCF-calculation: 13.3 MB



-------------------------------------------------------------------------------
                          DFT DISPERSION CORRECTION                            
-------------------------------------------------------------------------------
Active option DFTDOPT                   ...         2   
Final C6-coefficient scaling factor     ...     1.250
Final VDW-radii scaling factor          ...     1.100
Damping factor alpha                    ...    20.000
-------------------------   ----------------
Dispersion correction           -0.012937353
-------------------------   ----------------


-------------------------   --------------------
FINAL SINGLE POINT ENERGY      -323.546200600400
-------------------------   --------------------

                                *** OPTIMIZATION RUN DONE ***


------------------------------------------------------------------------------
                              ORCA PROPERTY CALCULATIONS
------------------------------------------------------------------------------

GBWName                                 ... 5.gbw
Number of atoms                         ...     13
Number of basis functions               ...    119
Max core memory                         ...   4096 MB

Electric properties:
Dipole moment                           ... YES
Quadrupole moment                       ...  NO
Static polarizability (Dipole/Dipole)   ...  NO
Static polarizability (Dipole/Quad.)    ...  NO
Static polarizability (Quad./Quad.)     ...  NO
Static polarizability (Velocity)        ...  NO
Static hyperpolarizability              ...  NO

Atomic electric properties:
Dipole moment                           ...  NO
Quadrupole moment                       ...  NO
Static polarizability                   ...  NO

Choice of electric origin               ... Center of mass
Position of electric origin             ...    -9.707779     0.083829    -3.864031

General magnetic properties:
Magnetizability                         ...  NO

EPR properties:
g-Tensor (aka g-matrix)                 ...  NO
Zero-Field splitting spin-orbit         ...  NO
Zero-field splitting spin-spin          ...  NO
Hyperfine couplings                     ...  NO (   0 nuclei)
Quadrupole couplings                    ...  NO (   0 nuclei)
Contact density                         ...  NO (   0 nuclei)

NMR properties:
Chemical shifts                         ...  NO (   0 nuclei)
Spin-rotation constants                 ...  NO (   0 nuclei)
Spin-spin couplings                     ...  NO (   0 nuclei,    0 pairs)

Choice of magnetic origin               ... GIAO
Position of magnetic origin             ...     0.000000     0.000000     0.000000

Properties with geometric perturbations:
SCF Hessian                             ...  NO
IR spectrum                             ...  NO
VCD spectrum                            ...  NO
X-ray spectroscopy properties:
SCF XES/XAS/RIXS spectra                ...  NO

SCF SOC stabilization energy            ...  NO
Diagonal Born-Oppenheimer correction    ...  NO

-------------
DIPOLE MOMENT
-------------

Method             : SCF
Type of density    : Electron Density
Multiplicity       :   1
Irrep              :   0
Energy             :  -323.5332632475190735 Eh
Basis              : AO
                                X                 Y                 Z
Electronic contribution:      4.383845447       3.999081035       2.472833884
Nuclear contribution   :     -5.218298984      -5.871889559      -2.698159750
                        -----------------------------------------
Total Dipole Moment    :     -0.834453537      -1.872808524      -0.225325866
                        -----------------------------------------
Magnitude (a.u.)       :      2.062643018
Magnitude (Debye)      :      5.242821898



--------------------
Rotational spectrum 
--------------------
 
Rotational constants in cm-1:             0.159694             0.113575             0.070873 
Rotational constants in MHz :          4787.511567          3404.907241          2124.714595 

Dipole components along the rotational axes: 
x,y,z [a.u.] :     1.946273     0.677347     0.087842 
x,y,z [Debye]:     4.947034     1.721680     0.223277 

 

Dipole moment calculation done in   0.0 sec 

Maximum memory used throughout the entire PROP-calculation: 7.5 MB

--------------------------------
SUGGESTED CITATIONS FOR THIS RUN
--------------------------------

Below you find a list of papers that are relevant to this ORCA run
We neither can nor want to force you to cite these papers, but we appreciate if you do
You receive ORCA, which is the product of decades of hard work by many enthusiastic individuals, for free
The only thing we kindly ask in return is that you cite our papers,
We deeply appreciate it, if you show your appreciation for ORCA by not just citing the generic ORCA reference.

Please note that relegating all ORCA citations to the supporting information does *not* help us.
SI sections are not indexed - citations you put there will not count into any citation statistics
But we need these citations in order to attract the funding resources that allow us to do what we are doing

Therefore, if you are a happy ORCA user, please consider citing a few of the papers listed below in the main body of your paper

In addition to the list printed below, the program has created the file 5.bibtex that contains the list in bibtex format
You can import this file easily into all common literature databanks and citation aid programs


List of essential papers. We consider these as the minimum necessary citations

  1. Neese, F.
     Software update: the ORCA program system, version 6.0
     WIRES Comput. Molec. Sci. 2025 15(1), e70019
     doi.org/10.1002/wcms.7019

List of papers to cite with high priority. The work reported in these papers was absolutely
necessary for this run to complete.
Our perspective: the developers of density functionals and basis sets usually get cited in chemistry papers
Good! But without the algorithms to do something with them, the functionals or basis sets would not do anything.
Hence, in our opinion, the algorithm design and method developments papers are equally worthy of getting cited

  1. Neese, F.
     An improvement of the resolution of the identity approximation for the formation of the Coulomb matrix
     J. Comp. Chem. 2003 24(14), 1740-1747
     doi.org/10.1002/jcc.10318
  2. Grimme, S.
     Semiempirical GGA-type density functional constructed with a long-range dispersion correction
     J.Comput.Chem. 2006 27(15), 1787-1799
     doi.org/10.1002/jcc.20495
  3. Neese, F.
     The SHARK Integral Generation and Digestion System
     J. Comp. Chem. 2022 44(3), 381
     doi.org/10.1002/jcc.26942

List of suggested additional citations. These are papers that are important in the 'surrounding' of 
of this run, or papers that preceded the highly important papers. If you like your results we are grateful for a citation.

  1. Neese, F.
     The ORCA program system
     WIRES Comput. Molec. Sci. 2012 2(1), 73-78
     doi.org/10.1002/wcms.81
  2. Neese, F.
     Software update: the ORCA program system, version 4.0
     WIRES Comput. Molec. Sci. 2018 8(1), 1-6
     doi.org/10.1002/wcms.1327
  3. Neese, F.; Wennmohs, F.; Becker, U.; Riplinger, C.
     The ORCA quantum chemistry program package
     J. Chem. Phys. 2020 152(22), 224108
     doi.org/10.1063/5.0004608
  4. Neese, F.
     Software update: The ORCA program system—Version 5.0
     WIRES Comput. Molec. Sci. 2022 12(1), e1606
     doi.org/10.1002/wcms.1606

List of optional additional citations

  1. Neese, F.
     Approximate second-order SCF convergence for spin unrestricted wavefunctions
     Chem. Phys. Lett. 2000 325(1-3), 93-98
     doi.org/10.1016/s0009-2614(00)00662-x

Timings for individual modules:

Sum of individual times          ...       41.540 sec (=   0.692 min)
Startup calculation              ...        2.742 sec (=   0.046 min)   6.6 %
SCF iterations                   ...       24.514 sec (=   0.409 min)  59.0 %
Property calculations            ...        0.034 sec (=   0.001 min)   0.1 %
SCF Gradient evaluation          ...       14.238 sec (=   0.237 min)  34.3 %
Geometry relaxation              ...        0.011 sec (=   0.000 min)   0.0 %
                             ****ORCA TERMINATED NORMALLY****
TOTAL RUN TIME: 0 days 0 hours 0 minutes 41 seconds 764 msec
