
                                 *****************
                                 * O   R   C   A *
                                 *****************

                                            #,                                       
                                            ###                                      
                                            ####                                     
                                            #####                                    
                                            ######                                   
                                           ########,                                 
                                     ,,################,,,,,                         
                               ,,#################################,,                 
                          ,,##########################################,,             
                       ,#########################################, ''#####,          
                    ,#############################################,,   '####,        
                  ,##################################################,,,,####,       
                ,###########''''           ''''###############################       
              ,#####''   ,,,,##########,,,,          '''####'''          '####       
            ,##' ,,,,###########################,,,                        '##       
           ' ,,###''''                  '''############,,,                           
         ,,##''                                '''############,,,,        ,,,,,,###''
      ,#''                                            '''#######################'''  
     '                                                          ''''####''''         
             ,#######,   #######,   ,#######,      ##                                
            ,#'     '#,  ##    ##  ,#'     '#,    #''#        ,####,    ,#,          
            ##       ##  ##   ,#'  ##            #'  '#       #'       ,# #          
            ##       ##  #######   ##           ,######,      #####,      #          
            '#,     ,#'  ##    ##  '#,     ,#' ,#      #,     #,   #      #          
             '#######'   ##     ##  '#######'  #'      '#     '####' #    #          



                #########################################################
                #                        -***-                          #
                #          Department of theory and spectroscopy        #
                #                                                       #
                #                      Frank Neese                      #
                #                                                       #
                #     Directorship, Architecture, Infrastructure        #
                #                    SHARK, DRIVERS                     #
                #        Core code/Algorithms in most modules           #
                #                                                       #
                #        Max Planck Institute fuer Kohlenforschung      #
                #                Kaiser Wilhelm Platz 1                 #
                #                 D-45470 Muelheim/Ruhr                 #
                #                      Germany                          #
                #                                                       #
                #                  All rights reserved                  #
                #                        -***-                          #
                #########################################################


                         Program Version 6.1.0  -  RELEASE   -
                                (GIT: $679e74b$)
                          ($2025-06-10 18:02:51 +0200$)


 With contributions from (in alphabetic order):
[Max-Planck-Institut fuer Kohlenforschung]                               
  Daniel Aravena         : Magnetic Suceptibility                        
  Michael Atanasov       : Ab Initio Ligand Field Theory (pilot matlab implementation)
  Alexander A. Auer      : GIAO ZORA, VPT2 properties, NMR spectrum      
  Ute Becker             : All parallelization in ORCA, NUMFREQ, NUMCALC 
  Giovanni Bistoni       : ED, misc. LED, open-shell LED, HFLD           
  Dmytro Bykov           : pre 5.0 version of the SCF Hessian            
  Marcos Casanova-Páez   : Triplet and SCS-CIS(D). UHF-(DLPNO)-IP/EA/STEOM-CCSD. UHF-CVS-IP/STEOM-CCSD   
  Vijay G. Chilkuri      : MRCI spin determinant printing, contributions to CSF-ICE 
  Pauline Colinet        : FMM embedding                                 
  Dipayan Datta          : RHF DLPNO-CCSD density                        
  Achintya Kumar Dutta   : EOM-CC, STEOM-CC                              
  Nicolas Foglia         : Exact transition moments, OPA infrastructure, MCD improvements    
  Dmitry Ganyushin       : Spin-Orbit,Spin-Spin,Magnetic field MRCI      
  Miquel Garcia-Rates    : C-PCM and meta-GGA Hessian, CCSD/C-PCM, Gaussian charge scheme 
  Tiago L. C. Gouveia    : GS-ROHF, GS-ROCIS                             
  Yang Guo               : DLPNO-NEVPT2, F12-NEVPT2, CIM, IAO-localization        
  Andreas Hansen         : Spin unrestricted coupled pair/coupled cluster methods 
  Ingolf Harden          : AUTO-CI MPn and infrastructure                
  Benjamin Helmich-Paris : MC-RPA, TRAH-(SCF,CASSCF), AVAS, COSX integrals, SCF dyn. polar., MC-PDFT, srDFT 
  Lee Huntington         : MR-EOM, pCC                                   
  Robert Izsak           : Overlap fitted RIJCOSX, COSX-SCS-MP3, EOM     
  Riya Kayal             : Wick's Theorem for AUTO-CI, AUTO-CI UHF-CCSDT 
  Emily Kempfer          : AUTO-CI RHF CISDT and CCSDT, approximate NEVPT4
  Christian Kollmar      : KDIIS, OOCD, Brueckner-CCSD(T), CCSD density, CASPT2, CASPT2-K, improved NEVPT2 
  Axel Koslowski         : Symmetry handling                             
  Simone Kossmann        : meta-GGA functionals, TD-DFT gradient, OOMP2, (MP2 Hessian; deprecated post 5.0) 
  Lucas Lang             : DCDCAS, Hyperfine gauge corrections, ICE-SOC+SSC
  Marvin Lechner         : AUTO-CI (C++ implementation), FIC-MRCC        
  Spencer Leger          : CASSCF response                               
  Dagmar Lenk            : GEPOL surface, SMD, ORCA-2-JSON               
  Dimitrios Liakos       : Extrapolation schemes; Compound Job, Property file
  Dimitrios Manganas     : Further ROCIS development; embedding schemes. LFT, Crystal Embedding 
  Dimitrios Pantazis     : SARC Basis sets                               
  Anastasios Papadopoulos: AUTO-CI, single reference methods and gradients 
  Taras Petrenko         : pre 6.0 DFT Hessian and TD-DFT gradient,  ECA, NRVS 
  Petra Pikulova         : Analytic Raman intensities                    
  Peter Pinski           : DLPNO-MP2, DLPNO-MP2 Gradient                 
  Shashank Vittal Rao    : ES-AILFT, MagRelax                            
  Christoph Reimann      : Effective Core Potentials                     
  Marius Retegan         : Local ZFS, SOC                                
  Christoph Riplinger    : Optimizer, TS searches, QM/MM, DLPNO-CCSD(T), (RO)-DLPNO pert. Triples 
  Michael Roemelt        : Original ROCIS implementation, recursive CI coupling coefficients
  Masaaki Saitow         : Open-shell DLPNO-CCSD energy and density      
  Barbara Sandhoefer     : DKH picture change effects                    
  Yorick L. A. Schmerwitz: GMF and freeze-and-release deltaSCF, NEB S-IDPP initial path                    
  Kantharuban Sivalingam : CASSCF convergence/infrastructure, NEVPT2, NEVPT3, NEVPT4(SD), FIC-MRCI and CEPA variants
  Bernardo de Souza      : ESD, SOC TD-DFT                               
  Georgi L. Stoychev     : AutoAux, RI-MP2 NMR, DLPNO-MP2 response, X2C  
  Van Anh Tran           : RI-MP2 g-tensors                              
  Willem Van den Heuvel  : Paramagnetic NMR                              
  Zikuan Wang            : NOTCH, Electric field optimization            
  Frank Wennmohs         : Technical directorship and infrastructure     
  Hang Xu                : AUTO-CI-Response properties                   
                                                                         
[FACCTs GmbH]                                                            
  Markus Bursch, Nicolas Foglia, Miquel Garcia-Rates, Ingolf Harden, Hagen Neugebauer, Anastasios Papadopoulos, 
  Christoph Riplinger, Bernardo de Souza, Georgi L. Stoychev                                                    
                                                                 
  APM, various basis sets, CI-OPT, improved COSX, DLPNO-Multilevel,           
  DOCKER, DRACO, updates on ESD, Fragmentator, GOAT, IRC, LR-CPCM, L-BFGS, MBIS, meta-GGA TD-DFT gradient, ML-optimized integration grids, 
  MM, NACMEs, nearIR, NEB, NEB-TS, NL-DFT gradient (VV10), 2- and 3-layer-ONIOM, interface openCOSMO-RS, QMMM,   
  Crystal-QMMM, RESP, rigid body optimization, SF, symmetry and pop. for TD-DFT, various functionals, SOLVATOR                                   
                                                                         
[Other institutions]                                                     
  V. Asgeirsson          : NEB                                           
  Christoph Bannwarth    : sTDA-DFT, sTD-DFT, PBEh-3c, B97-3c, D3        
  Giovanni Bistoni       : ETS/NOCV, ADLD/ADEX, COVALED                  
  Martin Brehm           : Molecular dynamics                            
  Ronald Cardenas        : ETS/NOCV                                      
  Martina Colucci        : COVALED                                       
  Sebastian Ehlert       : rSCAN, r2SCAN, r2SCAN-3c, D4, dhf basis sets  
  Marvin Friede          : D4 for Fr, Ra, Ac-Lr                          
  Lars Goerigk           : TD-DFT with DH, B97 family of functionals     
  Stefan Grimme          : VdW corrections, initial TS optimization, DFT functionals, gCP, sTDA/sTD-DF 
  Waldemar Hujo          : DFT-NL                                        
  H. Jonsson             : NEB                                           
  Holger Kruse           : gCP                                           
  Marcel Mueller         : wB97X-3c, vDZP basis set                      
  Hagen Neugebauer       : wr2SCAN, Native XTB                           
  Gianluca Regni         : ADLD/ADEX                                     
  Tobias Risthaus        : pre 6.0 range-separated hybrid DFT and stability analysis
  Lukas Wittmann         : regularized MP2, r2SCAN double-hybrids, wr2SCAN        
                                                                         
We gratefully acknowledge several colleagues who have allowed us to      
interface, adapt or use parts of their codes:                            
  Ed Valeev, F. Pavosevic, A. Kumar             : LibInt (2-el integral package), F12 methods 
  Garnet Chan, S. Sharma, J. Yang, R. Olivares  : DMRG                   
  Ulf Ekstrom                                   : XCFun DFT Library      
  Mihaly Kallay                                 : mrcc  (arbitrary order and MRCC methods)
  Frank Weinhold                                : gennbo (NPA and NBO analysis)           
  Simon Mueller                                 : openCOSMO-RS                            
  Christopher J. Cramer and Donald G. Truhlar   : smd solvation model                     
  S Lehtola, MJT Oliveira, MAL Marques          : LibXC Library                           
  Liviu Ungur et al                             : ANISO software                          


 Your calculation uses the libint2 library for the computation of 2-el integrals
 For citations please refer to: http://libint.valeyev.net

 Your ORCA version has been built with support for libXC version: 7.0.0
 For citations please refer to: https://libxc.gitlab.io

 This ORCA versions uses:
   CBLAS   interface :  Fast vector & matrix operations
   LAPACKE interface :  Fast linear algebra routines
   SCALAPACK package :  Parallel linear algebra routines
   Shared memory     :  Shared parallel matrices
   BLAS/LAPACK       :  OpenBLAS 0.3.29  USE64BITINT DYNAMIC_ARCH NO_AFFINITY Haswell SINGLE_THREADED
        Core in use  :  Haswell
   Copyright (c) 2011-2014, The OpenBLAS Project


  ***********************************
  * Starting time: Sun Aug 31 14:40:18 2025
  * Host name:     chemlab03
  * Process ID:    93516
  * Working dir.:  /home/vivek/mm-project/vivek/xtb-goat/MP2-opt/e/1
  ***********************************



***************************************
The coordinates will be read from file: /home/vivek/mm-project/vivek/xtb-goat/xtb-goat/e/E_CONF/1.xyz
***************************************


================================================================================

----- Orbital basis set information -----
Your calculation utilizes the basis: 6-31G**
   H-He, Li-Ne : W. J. Hehre, R. Ditchfield and J.A. Pople, J. Chem. Phys. 56, 2257 (1972).
                 Note: He and Ne are unpublished basis sets taken from the Gaussian program.
                 Note: Li and B from J. D. Dill and J. A. Pople, J. Chem. Phys. 62, 2921 (1975).
   Na - Ar     : M. M. Francl, W. J. Pietro, W. J. Hehre, J. S. Binkley, M. S. Gordon, 
                 D. J. DeFrees and J. A. Pople, J. Chem. Phys. 77, 3654 (1982).
   K - Zn      : V. A. Rassolov, J. A. Pople, M. A. Ratner, and T. L. Windus, J. Chem. Phys. 109, 1223 (1998).

================================================================================
                                        WARNINGS
                       Please study these warnings very carefully!
================================================================================


WARNING: The frozen-core approximation for MP2-gradient calculations is turned on by default.

WARNING: Geometry Optimization
  ===> : Switching off AutoStart
         For restart on a previous wavefunction, please use MOREAD

WARNING: Post HF methods need fully converged wavefunctions
  ===> : Setting SCFConvForced true
         You can overwrite this default with %scf ConvForced false 


================================================================================
                                       INPUT FILE
================================================================================
NAME = 1.inp
|  1> ! MP2 6-31G** opt
|  2> 
|  3> * xyzfile 0 1 /home/vivek/mm-project/vivek/xtb-goat/xtb-goat/e/E_CONF/1.xyz
|  4> 
|  5>                          ****END OF INPUT****
================================================================================

                       *****************************
                       * Geometry Optimization Run *
                       *****************************

Geometry optimization settings:
Update method            Update   .... BFGS
Choice of coordinates    CoordSys .... (2022) Redundant Internals
Initial Hessian          InHess   .... Almloef's Model
Max. no of cycles        MaxIter  .... 57

Convergence Tolerances:
Energy Change            TolE     ....  5.0000e-06 Eh
Max. Gradient            TolMAXG  ....  3.0000e-04 Eh/bohr
RMS Gradient             TolRMSG  ....  1.0000e-04 Eh/bohr
Max. Displacement        TolMAXD  ....  4.0000e-03 bohr
RMS Displacement         TolRMSD  ....  2.0000e-03 bohr
Strict Convergence                .... False

------------------------------------------------------------------------------
                        ORCA OPTIMIZATION COORDINATE SETUP
------------------------------------------------------------------------------

The optimization will be done in redundant internal coordinates (2022)
Making redundant internal coordinates   ...  (2022 redundants) done
Evaluating the initial hessian          ...  (Almloef) done
Evaluating the coordinates              ...  done
Calculating the B-matrix                .... done
Calculating the G-matrix                .... done
The number of degrees of freedom        ....   79

    -----------------------------------------------------------------
                    Redundant Internal Coordinates


    -----------------------------------------------------------------
         Definition                    Initial Value    Approx d2E/dq
    -----------------------------------------------------------------
      1. B(C   1,C   0)                  1.5059         0.408214   
      2. B(O   4,C   0)                  1.3293         0.699513   
      3. B(C   5,C   1)                  1.5363         0.364969   
      4. B(H   6,C   1)                  1.0891         0.361286   
      5. B(H   7,C   1)                  1.0896         0.360628   
      6. B(C   8,C   5)                  1.5367         0.364483   
      7. B(H   9,C   5)                  1.0910         0.358816   
      8. B(H  10,C   5)                  1.0893         0.360985   
      9. B(C  11,C   8)                  1.5314         0.371663   
     10. B(O  12,C  11)                  1.2036         1.109733   
     11. B(N  13,C   8)                  1.4503         0.448487   
     12. B(N  13,H   3)                  1.0138         0.426697   
     13. B(N  13,H   2)                  1.0164         0.422678   
     14. B(H  14,O   4)                  0.9703         0.500671   
     15. B(O  15,C  11)                  1.3341         0.687157   
     16. B(H  16,C   8)                  1.0997         0.347450   
     17. B(O  17,H   2)                  2.3660         0.010000   
     18. B(O  17,C   0)                  1.2062         1.099111   
     19. B(H  18,O  15)                  0.9696         0.501930   
     20. A(O   4,C   0,O  17)          122.8669         0.486068   
     21. A(C   1,C   0,O  17)          124.8286         0.443414   
     22. A(C   1,C   0,O   4)          112.2966         0.408958   
     23. A(C   0,C   1,H   6)          109.0140         0.329268   
     24. A(C   0,C   1,H   7)          109.3071         0.329169   
     25. A(C   5,C   1,H   7)          109.2586         0.323158   
     26. A(H   6,C   1,H   7)          110.1703         0.291057   
     27. A(C   0,C   1,C   5)          109.9257         0.367441   
     28. A(C   5,C   1,H   6)          109.1540         0.323255   
     29. A(C   0,O   4,H  14)          111.1527         0.375439   
     30. A(C   8,C   5,H  10)          108.6921         0.323140   
     31. A(C   1,C   5,H  10)          108.1497         0.323211   
     32. A(C   8,C   5,H   9)          108.0682         0.322821   
     33. A(H   9,C   5,H  10)          109.1451         0.290788   
     34. A(C   1,C   5,H   9)          109.5127         0.322892   
     35. A(C   1,C   5,C   8)          113.2104         0.360390   
     36. A(C   5,C   8,C  11)          110.2841         0.361509   
     37. A(N  13,C   8,H  16)          107.8342         0.330278   
     38. A(C  11,C   8,H  16)          105.3411         0.322151   
     39. A(C   5,C   8,H  16)          107.5574         0.321124   
     40. A(C  11,C   8,N  13)          113.8702         0.372256   
     41. A(C   5,C   8,N  13)          111.5424         0.371008   
     42. A(C   8,C  11,O  12)          125.2785         0.436725   
     43. A(O  12,C  11,O  15)          122.8160         0.485332   
     44. A(C   8,C  11,O  15)          111.8745         0.400976   
     45. A(H   3,N  13,C   8)          110.0561         0.338818   
     46. A(H   2,N  13,C   8)          109.1348         0.338283   
     47. A(H   2,N  13,H   3)          106.8429         0.301449   
     48. A(C  11,O  15,H  18)          110.5607         0.374448   
     49. D(C   5,C   1,C   0,O  17)     83.6250         0.012346   
     50. D(H   6,C   1,C   0,O  17)   -156.7672         0.012346   
     51. D(H   6,C   1,C   0,O   4)     24.2324         0.012346   
     52. D(H   7,C   1,C   0,O   4)    144.7079         0.012346   
     53. D(C   5,C   1,C   0,O   4)    -95.3754         0.012346   
     54. D(H  14,O   4,C   0,O  17)     -4.9372         0.036638   
     55. D(H  14,O   4,C   0,C   1)    174.0859         0.036638   
     56. D(H   9,C   5,C   1,H   7)   -175.3424         0.010667   
     57. D(H   9,C   5,C   1,H   6)    -54.8110         0.010667   
     58. D(H   9,C   5,C   1,C   0)     64.7115         0.010667   
     59. D(C   8,C   5,C   1,H   7)     63.9949         0.010667   
     60. D(C   8,C   5,C   1,H   6)   -175.4737         0.010667   
     61. D(C   8,C   5,C   1,C   0)    -55.9512         0.010667   
     62. D(C  11,C   8,C   5,H   9)    -43.7009         0.010640   
     63. D(C  11,C   8,C   5,C   1)     77.7775         0.010640   
     64. D(N  13,C   8,C   5,H  10)     70.3990         0.010640   
     65. D(N  13,C   8,C   5,H   9)   -171.2705         0.010640   
     66. D(N  13,C   8,C   5,C   1)    -49.7921         0.010640   
     67. D(C  11,C   8,C   5,H  10)   -162.0314         0.010640   
     68. D(O  15,C  11,C   8,N  13)    -29.7831         0.010338   
     69. D(O  15,C  11,C   8,C   5)   -156.0562         0.010338   
     70. D(O  12,C  11,C   8,H  16)    -89.8487         0.010338   
     71. D(O  12,C  11,C   8,N  13)    152.2023         0.010338   
     72. D(O  12,C  11,C   8,C   5)     25.9291         0.010338   
     73. D(H   3,N  13,C   8,C  11)     65.6094         0.017157   
     74. D(H   3,N  13,C   8,C   5)   -168.7808         0.017157   
     75. D(H   2,N  13,C   8,H  16)   -167.8429         0.017157   
     76. D(H   2,N  13,C   8,C  11)    -51.3374         0.017157   
     77. D(H   2,N  13,C   8,C   5)     74.2725         0.017157   
     78. D(H  18,O  15,C  11,O  12)     -4.0613         0.035237   
     79. D(H  18,O  15,C  11,C   8)    177.8672         0.035237   
    -----------------------------------------------------------------

Number of atoms                         .... 19
Number of degrees of freedom            .... 79


         *************************************************************
         *                GEOMETRY OPTIMIZATION CYCLE   1            *
         *************************************************************
---------------------------------
CARTESIAN COORDINATES (ANGSTROEM)
---------------------------------
  C     -2.758308   -0.061986    0.104918
  C     -2.529999    1.042627   -0.892742
  H     -1.624997    2.176110    1.378403
  H     -0.142186    2.796424    1.651263
  O     -3.021475   -1.225230   -0.482037
  C     -1.025543    1.206069   -1.157794
  H     -3.031523    0.787746   -1.825297
  H     -2.928233    1.975501   -0.494764
  C     -0.209512    1.458973    0.119547
  H     -0.639065    0.303287   -1.633021
  H     -0.889568    2.050876   -1.831927
  C     -0.003918    0.149334    0.886198
  O     -0.003677   -0.950168    0.396485
  N     -0.787231    2.522353    0.918728
  H     -3.074147   -1.942215    0.169591
  O      0.222339    0.363055    2.183488
  H      0.797292    1.777444   -0.187597
  O     -2.695594    0.067560    1.302548
  H      0.316368   -0.478438    2.655908

----------------------------
CARTESIAN COORDINATES (A.U.)
----------------------------
  NO LB      ZA    FRAG     MASS         X           Y           Z
   0 C     6.0000    0    12.011   -5.212447   -0.117136    0.198266
   1 C     6.0000    0    12.011   -4.781004    1.970280   -1.687038
   2 H     1.0000    0     1.008   -3.070799    4.112252    2.604804
   3 H     1.0000    0     1.008   -0.268693    5.284475    3.120435
   4 O     8.0000    0    15.999   -5.709760   -2.315349   -0.910917
   5 C     6.0000    0    12.011   -1.937995    2.279140   -2.187914
   6 H     1.0000    0     1.008   -5.728748    1.488625   -3.449312
   7 H     1.0000    0     1.008   -5.533558    3.733156   -0.934968
   8 C     6.0000    0    12.011   -0.395920    2.757059    0.225912
   9 H     1.0000    0     1.008   -1.207657    0.573129   -3.085963
  10 H     1.0000    0     1.008   -1.681040    3.875594   -3.461840
  11 C     6.0000    0    12.011   -0.007403    0.282200    1.674671
  12 O     8.0000    0    15.999   -0.006949   -1.795558    0.749248
  13 N     7.0000    0    14.007   -1.487651    4.766555    1.736144
  14 H     1.0000    0     1.008   -5.809297   -3.670254    0.320480
  15 O     8.0000    0    15.999    0.420159    0.686075    4.126194
  16 H     1.0000    0     1.008    1.506664    3.358883   -0.354507
  17 O     8.0000    0    15.999   -5.093934    0.127669    2.461458
  18 H     1.0000    0     1.008    0.597849   -0.904116    5.018939

--------------------------------
INTERNAL COORDINATES (ANGSTROEM)
--------------------------------
 C      0   0   0     0.000000000000     0.00000000     0.00000000
 C      1   0   0     1.505862214383     0.00000000     0.00000000
 H      2   1   0     2.694793461817    78.52712045     0.00000000
 H      3   2   1     1.630327712677   127.33966802   123.20997928
 O      1   2   3     1.329251712777   112.29663412   193.36400403
 C      2   1   3     1.536344214208   109.92574732    71.26055564
 H      2   1   3     1.089105083876   109.01402918   190.86841424
 H      2   1   3     1.089601306755   109.30710308   311.34390047
 C      6   2   1     1.536706816477   113.21040190   304.04878069
 H      6   2   1     1.090972593497   109.51270532    64.71147470
 H      6   2   1     1.089331809685   108.14970681   183.54906592
 C      9   6   2     1.531396902246   110.28405696    77.77748912
 O     12   9   6     1.203629015640   125.27847223    25.92914430
 N      4   3   2     1.013807851935    36.63248124    18.59892844
 H      5   1   2     0.970288421023   111.15265604   174.08589526
 O     12   9   6     1.334102816369   111.87452983   203.94376557
 H      9   6   2     1.099734417283   107.55739139   192.15697971
 O      1   2   3     1.206246993252   124.82856897    12.36442823
 H     16  12   9     0.969604519975   110.56074600   177.86723627

---------------------------
INTERNAL COORDINATES (A.U.)
---------------------------
 C      0   0   0     0.000000000000     0.00000000     0.00000000
 C      1   0   0     2.845667180604     0.00000000     0.00000000
 H      2   1   0     5.092421630315    78.52712045     0.00000000
 H      3   2   1     3.080872885502   127.33966802   123.20997928
 O      1   2   3     2.511921700194   112.29663412   193.36400403
 C      2   1   3     2.903269812287   109.92574732    71.26055564
 H      2   1   3     2.058110339586   109.01402918   190.86841424
 H      2   1   3     2.059048064930   109.30710308   311.34390047
 C      6   2   1     2.903955031271   113.21040190   304.04878069
 H      6   2   1     2.061639421323   109.51270532    64.71147470
 H      6   2   1     2.058538789273   108.14970681   183.54906592
 C      9   6   2     2.893920747580   110.28405696    77.77748912
 O     12   9   6     2.274529206400   125.27847223    25.92914430
 N      4   3   2     1.915819192576    36.63248124    18.59892844
 H      5   1   2     1.833579386648   111.15265604   174.08589526
 O     12   9   6     2.521088957430   111.87452983   203.94376557
 H      9   6   2     2.078196868713   107.55739139   192.15697971
 O      1   2   3     2.279476467112   124.82856897    12.36442823
 H     16  12   9     1.832287000965   110.56074600   177.86723627

---------------------
BASIS SET INFORMATION
---------------------
There are 4 groups of distinct atoms

 Group   1 Type C   : 10s4p1d contracted to 3s2p1d pattern {631/31/1}
 Group   2 Type H   : 4s1p contracted to 2s1p pattern {31/1}
 Group   3 Type O   : 10s4p1d contracted to 3s2p1d pattern {631/31/1}
 Group   4 Type N   : 10s4p1d contracted to 3s2p1d pattern {631/31/1}

Atom   0C    basis set group =>   1
Atom   1C    basis set group =>   1
Atom   2H    basis set group =>   2
Atom   3H    basis set group =>   2
Atom   4O    basis set group =>   3
Atom   5C    basis set group =>   1
Atom   6H    basis set group =>   2
Atom   7H    basis set group =>   2
Atom   8C    basis set group =>   1
Atom   9H    basis set group =>   2
Atom  10H    basis set group =>   2
Atom  11C    basis set group =>   1
Atom  12O    basis set group =>   3
Atom  13N    basis set group =>   4
Atom  14H    basis set group =>   2
Atom  15O    basis set group =>   3
Atom  16H    basis set group =>   2
Atom  17O    basis set group =>   3
Atom  18H    basis set group =>   2
------------------------------------------------------------------------------
                             ORCA STARTUP CALCULATIONS
------------------------------------------------------------------------------
------------------------------------------------------------------------------
                   ___                                                        
                  /   \      - P O W E R E D   B Y -                         
                 /     \                                                     
                 |  |  |   _    _      __       _____    __    __             
                 |  |  |  | |  | |    /  \     |  _  \  |  |  /  |          
                  \  \/   | |  | |   /    \    | | | |  |  | /  /          
                 / \  \   | |__| |  /  /\  \   | |_| |  |  |/  /          
                |  |  |   |  __  | /  /__\  \  |    /   |      \           
                |  |  |   | |  | | |   __   |  |    \   |  |\   \          
                \     /   | |  | | |  |  |  |  | |\  \  |  | \   \       
                 \___/    |_|  |_| |__|  |__|  |_| \__\ |__|  \__/        
                                                                              
                      - O R C A' S   B I G   F R I E N D -                    
                                      &                                       
                       - I N T E G R A L  F E E D E R -                       
                                                                              
 v1 FN, 2020, v2 2021, v3 2022-2024                                           
------------------------------------------------------------------------------


----------------------
SHARK INTEGRAL PACKAGE
----------------------

Number of atoms                             ...     19
Number of basis functions                   ...    185
Number of shells                            ...     87
Maximum angular momentum                    ...      2
Integral batch strategy                     ... SHARK/LIBINT Hybrid
RI-J (if used) integral strategy            ... SPLIT-RIJ (Revised 2003 algorithm where possible)
Printlevel                                  ...      1
Contraction scheme used                     ... SEGMENTED contraction
Prescreening option                         ... SCHWARTZ
   Thresh                                   ... 2.500e-11
   Tcut                                     ... 2.500e-12
   Tpresel                                  ... 2.500e-12 
Coulomb Range Separation                    ... NOT USED
Exchange Range Separation                   ... NOT USED
Multipole approximations                    ... NOT USED
Finite Nucleus Model                        ... NOT USED
CABS basis                                  ... NOT available
Auxiliary Coulomb fitting basis             ... NOT available
Auxiliary J/K fitting basis                 ... NOT available
Auxiliary Correlation fitting basis         ... NOT available
Auxiliary 'external' fitting basis          ... NOT available

Checking pre-screening integrals            ... done (  0.0 sec) Dimension = 87
   => SHARK Basis and OBASIS are compatible. Storing Pre-screening
Shell pair information
Shell pair cut-off parameter TPreSel        ...   2.5e-12
Total number of shell pairs                 ...      3828
Shell pairs after pre-screening             ...      3535
Total number of primitive shell pairs       ...     19347
Primitive shell pairs kept                  ...     11705
          la=0 lb=0:   1066 shell pairs
          la=1 lb=0:   1276 shell pairs
          la=1 lb=1:    405 shell pairs
          la=2 lb=0:    456 shell pairs
          la=2 lb=1:    277 shell pairs
          la=2 lb=2:     55 shell pairs

Checking whether 4 symmetric matrices of dimension 185 fit in memory
:Max Core in MB      =   4096.00
 MB in use           =      6.07
 MB left             =   4089.93
 MB needed           =      0.53
 Data fit in memory  = YES
Calculating Nuclear repulsion               ... done (  0.0 sec) ENN=    592.511699526391 Eh

Diagonalization of the overlap matrix:
Smallest eigenvalue                        ... 3.026e-03
Time for diagonalization                   ...    0.002 sec
Threshold for overlap eigenvalues          ... 1.000e-07
Number of eigenvalues below threshold      ... 0
Time for construction of square roots      ...    0.001 sec
Total time needed                          ...    0.003 sec

-------------------
DFT GRID GENERATION
-------------------

General Integration Accuracy     IntAcc      ... 4.388
Radial Grid Type                 RadialGrid  ... OptM3 with GC (2021)
Angular Grid (max. ang.)         AngularGrid ... 4 (Lebedev-302)
Angular grid pruning method      GridPruning ... 4 (adaptive)
Weight generation scheme         WeightScheme... mBecke (2022)
Basis function cutoff            BFCut       ... 1.0000e-11
Integration weight cutoff        WCut        ... 1.0000e-14
Partially contracted basis set               ... off
Rotationally invariant grid construction     ... off
Angular grids for H and He will be reduced by one unit

Total number of grid points                  ...    89006
Total number of batches                      ...     1401
Average number of points per batch           ...       63
Average number of grid points per atom       ...     4685
Grids setup in   0.4 sec
Initializing property integral containers    ... done (  0.0 sec)

SHARK setup successfully completed in   0.4 seconds

Maximum memory used throughout the entire STARTUP-calculation: 35.7 MB
-------------------------------------------------------------------------------
                                 ORCA GUESS
                   Start orbitals & Density for SCF / CASSCF
-------------------------------------------------------------------------------

------------
SCF SETTINGS
------------
Hamiltonian:
 Ab initio Hamiltonian  Method          .... Hartree-Fock(GTOs)


General Settings:
 Integral files         IntName         .... 1
 Hartree-Fock type      HFTyp           .... RHF
 Total Charge           Charge          ....    0
 Multiplicity           Mult            ....    1
 Number of Electrons    NEL             ....   78
 Basis Dimension        Dim             ....  185
 Nuclear Repulsion      ENuc            ....    592.5116995264 Eh

Convergence Acceleration:
 AO-DIIS                CNVDIIS         .... on
   Start iteration      DIISMaxIt       ....    12
   Startup error        DIISStart       ....  0.200000
   # of expansion vecs  DIISMaxEq       ....     5
   Bias factor          DIISBfac        ....   1.050
   Max. coefficient     DIISMaxC        ....  10.000
 MO-DIIS                CNVKDIIS        .... off
 Trust-Rad. Augm. Hess. CNVTRAH         .... auto
   Auto Start mean grad. ratio tolernc. ....  1.125000
   Auto Start start iteration           ....    50
   Auto Start num. interpolation iter.  ....    10
   Max. Number of Micro iterations      ....    24
   Max. Number of Macro iterations      .... Maxiter - #DIIS iter
   Number of Davidson start vectors     ....     2
   Converg. threshold    (grad. norm)   ....   1.000e-05
   Grad. Scal. Fac. for Micro threshold ....   0.100
   Minimum threshold for Micro iter.    ....   1.000e-02
   NR start threshold (gradient norm)   ....   1.000e-04
   Initial trust radius                 ....   0.400
   Minimum AH scaling param. (alpha)    ....   1.000
   Maximum AH scaling param. (alpha)    .... 1000.000
   Quad. conv. algorithm                .... NR
   White noise on init. David. guess    .... on
   Maximum white noise                  ....   0.010
   Pseudo random numbers                .... off
   Inactive MOs                         .... canonical
   Orbital update algorithm             .... Taylor
   Preconditioner                       .... Diag
   Full preconditioner red. dimension   ....   250
 SOSCF                 CNVSOSCF           .... on
   Start iteration     SOSCFMaxIt         ....   150
   Startup grad/error  SOSCFStart         ....  0.003300
   Hessian update      SOSCFHessUp        .... L-BFGS
   Autom. constraints  SOSCFAutoConstrain .... off
 Level Shifting         CNVShift        .... on
   Level shift para.    LevelShift      ....    0.2500
   Turn off err/grad.   ShiftErr        ....    0.0010
 Zerner damping         CNVZerner       .... off
 Static damping         CNVDamp         .... on
   Fraction old density DampFac         ....    0.7000
   Max. Damping (<1)    DampMax         ....    0.9800
   Min. Damping (>=0)   DampMin         ....    0.0000
   Turn off err/grad.   DampErr         ....    0.1000

SCF Procedure:
 Maximum # iterations   MaxIter         ....   125
 SCF integral mode      SCFMode         .... Direct
   Integral package                     .... SHARK and LIBINT hybrid scheme
 Reset frequency        DirectResetFreq ....    20
 Integral Threshold     Thresh          ....  2.500e-11 Eh
 Primitive CutOff       TCut            ....  2.500e-12 Eh

Convergence Tolerance:
 Convergence Check Mode ConvCheckMode   .... Total+1el-Energy
 Convergence forced     ConvForced      .... 1
 Energy Change          TolE            ....  1.000e-08 Eh
 1-El. energy change                    ....  1.000e-05 Eh
 Orbital Gradient       TolG            ....  1.000e-05
 Orbital Rotation angle TolX            ....  1.000e-05
 DIIS Error             TolErr          ....  5.000e-07

------------------------------
INITIAL GUESS: MODEL POTENTIAL
------------------------------
Loading Hartree-Fock densities                     ... done
Calculating cut-offs                               ... done
Initializing the effective Hamiltonian             ... done
Setting up the integral package (SHARK)            ... done
Starting the Coulomb interaction                   ... done (   0.1 sec)
Making the grid                                    ... done (   0.1 sec)
Mapping shells                                     ... done
Starting the XC term evaluation                    ... done (   0.1 sec)
Transforming the Hamiltonian                       ... done (   0.0 sec)
Diagonalizing the Hamiltonian                      ... done (   0.0 sec)
Back transforming the eigenvectors                 ... done (   0.0 sec)
Now organizing SCF variables                       ... done
                      ------------------
                      INITIAL GUESS DONE (   0.2 sec)
                      ------------------
             **** ENERGY FILE WAS UPDATED (1.en.tmp) ****
Finished Guess after   0.2 sec
Maximum memory used throughout the entire GUESS-calculation: 11.6 MB

-------------------------------------------------------------------------------------------
                                      ORCA LEAN-SCF
                              memory conserving SCF solver
-------------------------------------------------------------------------------------------

----------------------------------------D-I-I-S--------------------------------------------
Iteration    Energy (Eh)           Delta-E    RMSDP     MaxDP     DIISErr   Damp  Time(sec)
-------------------------------------------------------------------------------------------
               ***  Starting incremental Fock matrix formation  ***
    1    -548.1195105196285340     0.00e+00  2.52e-03  6.23e-02  2.53e-01  0.700   2.1
    2    -548.2704410782706645    -1.51e-01  1.85e-03  4.49e-02  1.56e-01  0.700   1.9
                               ***Turning on AO-DIIS***
    3    -548.3578384832741222    -8.74e-02  1.00e-03  2.05e-02  8.91e-02  0.700   1.9
    4    -548.4129705166591293    -5.51e-02  2.32e-03  4.75e-02  6.31e-02  0.000   1.9
    5    -548.5362525095910087    -1.23e-01  2.97e-04  6.27e-03  6.16e-03  0.000   2.0
    6    -548.5368422659465750    -5.90e-04  1.43e-04  2.50e-03  3.76e-03  0.000   1.8
                              *** Initializing SOSCF ***
---------------------------------------S-O-S-C-F--------------------------------------
Iteration    Energy (Eh)           Delta-E    RMSDP     MaxDP     MaxGrad    Time(sec)
--------------------------------------------------------------------------------------
    7    -548.5369773455228142    -1.35e-04  8.69e-05  2.19e-03  2.02e-03     1.8
               *** Restarting incremental Fock matrix formation ***
    8    -548.5370203389135213    -4.30e-05  4.14e-05  7.31e-04  6.10e-04     2.1
    9    -548.5370300688183534    -9.73e-06  4.49e-05  1.24e-03  3.55e-04     1.6
   10    -548.5370337125860942    -3.64e-06  7.67e-06  2.38e-04  9.24e-05     1.6
   11    -548.5370339373656634    -2.25e-07  2.72e-06  7.75e-05  4.61e-05     1.5
   12    -548.5370339841380201    -4.68e-08  8.07e-07  2.50e-05  1.24e-05     1.4
   13    -548.5370339866375389    -2.50e-09  4.23e-07  1.26e-05  1.98e-06     1.2
                 **** Energy Check signals convergence ****

               *****************************************************
               *                     SUCCESS                       *
               *           SCF CONVERGED AFTER  13 CYCLES          *
               *****************************************************

             **** ENERGY FILE WAS UPDATED (1.en.tmp) ****

----------------
TOTAL SCF ENERGY
----------------

Total Energy       :       -548.53703398685150 Eh          -14926.45154 eV

Components:
Nuclear Repulsion  :        592.51169952639077 Eh           16123.06302 eV
Electronic Energy  :      -1141.04873351324227 Eh          -31049.51457 eV
One Electron Energy:      -1928.72913314338598 Eh          -52483.38792 eV
Two Electron Energy:        787.68039963014371 Eh           21433.87335 eV

Virial components:
Potential Energy   :      -1096.35613927532359 Eh          -29833.36725 eV
Kinetic Energy     :        547.81910528847197 Eh           14906.91571 eV
Virial Ratio       :          2.00131052146858

---------------
SCF CONVERGENCE
---------------

  Last Energy change         ...    2.4995e-09  Tolerance :   1.0000e-08
  Last MAX-Density change    ...    1.2604e-05  Tolerance :   1.0000e-07
  Last RMS-Density change    ...    4.2257e-07  Tolerance :   5.0000e-09
  Last DIIS Error            ...    2.0181e-03  Tolerance :   5.0000e-07
  Last Orbital Gradient      ...    1.9812e-06  Tolerance :   1.0000e-05
  Last Orbital Rotation      ...    6.6104e-06  Tolerance :   1.0000e-05


----------------
ORBITAL ENERGIES
----------------

  NO   OCC          E(Eh)            E(eV) 
   0   2.0000     -20.615777      -560.9838 
   1   2.0000     -20.612770      -560.9020 
   2   2.0000     -20.554298      -559.3109 
   3   2.0000     -20.548818      -559.1618 
   4   2.0000     -15.544028      -422.9745 
   5   2.0000     -11.390209      -309.9434 
   6   2.0000     -11.382295      -309.7280 
   7   2.0000     -11.277145      -306.8667 
   8   2.0000     -11.244341      -305.9741 
   9   2.0000     -11.239589      -305.8448 
  10   2.0000      -1.471901       -40.0525 
  11   2.0000      -1.464585       -39.8534 
  12   2.0000      -1.364217       -37.1222 
  13   2.0000      -1.359180       -36.9852 
  14   2.0000      -1.198687       -32.6179 
  15   2.0000      -1.074830       -29.2476 
  16   2.0000      -0.977963       -26.6117 
  17   2.0000      -0.896908       -24.4061 
  18   2.0000      -0.829046       -22.5595 
  19   2.0000      -0.781049       -21.2534 
  20   2.0000      -0.716364       -19.4932 
  21   2.0000      -0.706504       -19.2250 
  22   2.0000      -0.699215       -19.0266 
  23   2.0000      -0.684767       -18.6334 
  24   2.0000      -0.671335       -18.2680 
  25   2.0000      -0.647671       -17.6240 
  26   2.0000      -0.612511       -16.6673 
  27   2.0000      -0.601744       -16.3743 
  28   2.0000      -0.585271       -15.9260 
  29   2.0000      -0.578872       -15.7519 
  30   2.0000      -0.563143       -15.3239 
  31   2.0000      -0.529285       -14.4026 
  32   2.0000      -0.509983       -13.8773 
  33   2.0000      -0.496548       -13.5118 
  34   2.0000      -0.482807       -13.1379 
  35   2.0000      -0.472122       -12.8471 
  36   2.0000      -0.464233       -12.6324 
  37   2.0000      -0.445172       -12.1137 
  38   2.0000      -0.388982       -10.5847 
  39   0.0000       0.179362         4.8807 
  40   0.0000       0.188491         5.1291 
  41   0.0000       0.217436         5.9167 
  42   0.0000       0.231879         6.3098 
  43   0.0000       0.253621         6.9014 
  44   0.0000       0.271980         7.4009 
  45   0.0000       0.293666         7.9910 
  46   0.0000       0.299277         8.1437 
  47   0.0000       0.323343         8.7986 
  48   0.0000       0.344179         9.3656 
  49   0.0000       0.351045         9.5524 
*Only the first 10 virtual orbitals were printed.

                    ********************************
                    * MULLIKEN POPULATION ANALYSIS *
                    ********************************

-----------------------
MULLIKEN ATOMIC CHARGES
-----------------------
   0 C :    0.807954
   1 C :   -0.313581
   2 H :    0.299982
   3 H :    0.283666
   4 O :   -0.624209
   5 C :   -0.224063
   6 H :    0.163259
   7 H :    0.173164
   8 C :   -0.058650
   9 H :    0.167001
  10 H :    0.145893
  11 C :    0.829358
  12 O :   -0.607172
  13 N :   -0.698879
  14 H :    0.373975
  15 O :   -0.640617
  16 H :    0.164380
  17 O :   -0.613745
  18 H :    0.372284
Sum of atomic charges:    0.0000000

--------------------------------
MULLIKEN REDUCED ORBITAL CHARGES
--------------------------------
  0 C s       :     2.957637  s :     2.957637
      pz      :     0.761600  p :     2.084730
      px      :     0.610547
      py      :     0.712583
      dz2     :     0.033848  d :     0.149680
      dxz     :     0.028673
      dyz     :     0.058872
      dx2y2   :     0.014135
      dxy     :     0.014152

  1 C s       :     3.262199  s :     3.262199
      pz      :     1.017481  p :     3.005540
      px      :     0.995766
      py      :     0.992293
      dz2     :     0.006652  d :     0.045841
      dxz     :     0.008318
      dyz     :     0.013602
      dx2y2   :     0.010796
      dxy     :     0.006473

  2 H s       :     0.673429  s :     0.673429
      pz      :     0.006861  p :     0.026589
      px      :     0.013147
      py      :     0.006581

  3 H s       :     0.690235  s :     0.690235
      pz      :     0.010465  p :     0.026099
      px      :     0.008419
      py      :     0.007215

  4 O s       :     3.835891  s :     3.835891
      pz      :     1.657513  p :     4.762590
      px      :     1.823770
      py      :     1.281307
      dz2     :     0.003437  d :     0.025728
      dxz     :     0.003163
      dyz     :     0.013527
      dx2y2   :     0.003065
      dxy     :     0.002537

  5 C s       :     3.241981  s :     3.241981
      pz      :     0.961048  p :     2.934174
      px      :     0.876721
      py      :     1.096405
      dz2     :     0.006985  d :     0.047907
      dxz     :     0.009921
      dyz     :     0.012285
      dx2y2   :     0.012643
      dxy     :     0.006072

  6 H s       :     0.823982  s :     0.823982
      pz      :     0.007384  p :     0.012759
      px      :     0.003352
      py      :     0.002023

  7 H s       :     0.813984  s :     0.813984
      pz      :     0.002599  p :     0.012852
      px      :     0.002639
      py      :     0.007614

  8 C s       :     3.217958  s :     3.217958
      pz      :     0.907125  p :     2.770468
      px      :     1.053450
      py      :     0.809893
      dz2     :     0.011819  d :     0.070224
      dxz     :     0.011960
      dyz     :     0.019857
      dx2y2   :     0.017083
      dxy     :     0.009505

  9 H s       :     0.820177  s :     0.820177
      pz      :     0.002891  p :     0.012822
      px      :     0.002578
      py      :     0.007352

 10 H s       :     0.841524  s :     0.841524
      pz      :     0.004497  p :     0.012583
      px      :     0.001770
      py      :     0.006316

 11 C s       :     2.942254  s :     2.942254
      pz      :     0.644669  p :     2.081290
      px      :     0.611388
      py      :     0.825233
      dz2     :     0.043251  d :     0.147098
      dxz     :     0.020257
      dyz     :     0.042796
      dx2y2   :     0.018935
      dxy     :     0.021858

 12 O s       :     3.879418  s :     3.879418
      pz      :     1.753351  p :     4.695247
      px      :     1.507640
      py      :     1.434257
      dz2     :     0.003776  d :     0.032507
      dxz     :     0.002125
      dyz     :     0.008810
      dx2y2   :     0.006878
      dxy     :     0.010918

 13 N s       :     3.605056  s :     3.605056
      pz      :     1.349589  p :     4.059457
      px      :     1.220224
      py      :     1.489644
      dz2     :     0.003203  d :     0.034365
      dxz     :     0.012988
      dyz     :     0.005954
      dx2y2   :     0.005084
      dxy     :     0.007137

 14 H s       :     0.584382  s :     0.584382
      pz      :     0.015212  p :     0.041643
      px      :     0.008714
      py      :     0.017716

 15 O s       :     3.839879  s :     3.839879
      pz      :     1.351536  p :     4.775159
      px      :     1.832550
      py      :     1.591073
      dz2     :     0.008383  d :     0.025579
      dxz     :     0.003809
      dyz     :     0.006920
      dx2y2   :     0.004760
      dxy     :     0.001707

 16 H s       :     0.823277  s :     0.823277
      pz      :     0.002231  p :     0.012343
      px      :     0.007883
      py      :     0.002230

 17 O s       :     3.879719  s :     3.879719
      pz      :     1.361219  p :     4.701959
      px      :     1.513739
      py      :     1.827000
      dz2     :     0.011958  d :     0.032067
      dxz     :     0.012660
      dyz     :     0.007084
      dx2y2   :     0.000182
      dxy     :     0.000184

 18 H s       :     0.586014  s :     0.586014
      pz      :     0.011208  p :     0.041702
      px      :     0.008986
      py      :     0.021508



                     *******************************
                     * LOEWDIN POPULATION ANALYSIS *
                     *******************************

----------------------
LOEWDIN ATOMIC CHARGES
----------------------
   0 C :    0.248542
   1 C :   -0.132226
   2 H :    0.135304
   3 H :    0.133657
   4 O :   -0.190827
   5 C :   -0.094961
   6 H :    0.087256
   7 H :    0.090325
   8 C :   -0.027702
   9 H :    0.083471
  10 H :    0.077306
  11 C :    0.230083
  12 O :   -0.322767
  13 N :   -0.283309
  14 H :    0.203505
  15 O :   -0.201129
  16 H :    0.088950
  17 O :   -0.327129
  18 H :    0.201651

-------------------------------
LOEWDIN REDUCED ORBITAL CHARGES
-------------------------------
  0 C s       :     2.840136  s :     2.840136
      pz      :     1.027377  p :     2.589584
      px      :     0.655079
      py      :     0.907128
      dz2     :     0.074538  d :     0.321737
      dxz     :     0.056253
      dyz     :     0.132808
      dx2y2   :     0.029336
      dxy     :     0.028802

  1 C s       :     2.895063  s :     2.895063
      pz      :     1.051161  p :     3.150614
      px      :     1.054670
      py      :     1.044783
      dz2     :     0.012415  d :     0.086549
      dxz     :     0.015501
      dyz     :     0.025736
      dx2y2   :     0.020613
      dxy     :     0.012284

  2 H s       :     0.780272  s :     0.780272
      pz      :     0.022196  p :     0.084424
      px      :     0.039990
      py      :     0.022238

  3 H s       :     0.784089  s :     0.784089
      pz      :     0.033126  p :     0.082254
      px      :     0.025943
      py      :     0.023185

  4 O s       :     3.452941  s :     3.452941
      pz      :     1.634762  p :     4.689177
      px      :     1.770941
      py      :     1.283474
      dz2     :     0.005981  d :     0.048709
      dxz     :     0.003091
      dyz     :     0.024204
      dx2y2   :     0.010110
      dxy     :     0.005324

  5 C s       :     2.890639  s :     2.890639
      pz      :     1.034633  p :     3.113924
      px      :     0.991464
      py      :     1.087826
      dz2     :     0.014221  d :     0.090399
      dxz     :     0.020495
      dyz     :     0.020651
      dx2y2   :     0.023763
      dxy     :     0.011269

  6 H s       :     0.871567  s :     0.871567
      pz      :     0.022624  p :     0.041177
      px      :     0.011422
      py      :     0.007131

  7 H s       :     0.868048  s :     0.868048
      pz      :     0.008841  p :     0.041627
      px      :     0.009764
      py      :     0.023023

  8 C s       :     2.871369  s :     2.871369
      pz      :     1.001215  p :     3.016051
      px      :     1.051968
      py      :     0.962868
      dz2     :     0.024284  d :     0.140281
      dxz     :     0.023361
      dyz     :     0.040636
      dx2y2   :     0.033514
      dxy     :     0.018486

  9 H s       :     0.874672  s :     0.874672
      pz      :     0.010657  p :     0.041856
      px      :     0.009046
      py      :     0.022153

 10 H s       :     0.882323  s :     0.882323
      pz      :     0.014620  p :     0.040371
      px      :     0.006563
      py      :     0.019188

 11 C s       :     2.851221  s :     2.851221
      pz      :     0.886594  p :     2.599889
      px      :     0.661291
      py      :     1.052003
      dz2     :     0.097156  d :     0.318807
      dxz     :     0.041614
      dyz     :     0.097238
      dx2y2   :     0.040860
      dxy     :     0.041940

 12 O s       :     3.546149  s :     3.546149
      pz      :     1.729159  p :     4.719610
      px      :     1.476163
      py      :     1.514288
      dz2     :     0.008068  d :     0.057008
      dxz     :     0.002480
      dyz     :     0.017872
      dx2y2   :     0.016807
      dxy     :     0.011782

 13 N s       :     3.184776  s :     3.184776
      pz      :     1.339684  p :     4.037937
      px      :     1.207322
      py      :     1.490932
      dz2     :     0.005830  d :     0.060596
      dxz     :     0.020760
      dyz     :     0.011404
      dx2y2   :     0.010418
      dxy     :     0.012184

 14 H s       :     0.676267  s :     0.676267
      pz      :     0.045674  p :     0.120228
      px      :     0.026869
      py      :     0.047685

 15 O s       :     3.453471  s :     3.453471
      pz      :     1.359475  p :     4.699250
      px      :     1.779500
      py      :     1.560275
      dz2     :     0.018416  d :     0.048408
      dxz     :     0.006549
      dyz     :     0.015744
      dx2y2   :     0.006201
      dxy     :     0.001498

 16 H s       :     0.872005  s :     0.872005
      pz      :     0.008360  p :     0.039045
      px      :     0.023253
      py      :     0.007432

 17 O s       :     3.547301  s :     3.547301
      pz      :     1.462792  p :     4.723460
      px      :     1.478695
      py      :     1.781973
      dz2     :     0.028532  d :     0.056368
      dxz     :     0.013837
      dyz     :     0.013227
      dx2y2   :     0.000430
      dxy     :     0.000341

 18 H s       :     0.677644  s :     0.677644
      pz      :     0.031334  p :     0.120705
      px      :     0.027626
      py      :     0.061745



                      *****************************
                      * MAYER POPULATION ANALYSIS *
                      *****************************

  NA   - Mulliken gross atomic population
  ZA   - Total nuclear charge
  QA   - Mulliken gross atomic charge
  VA   - Mayer's total valence
  BVA  - Mayer's bonded valence
  FA   - Mayer's free valence

  ATOM       NA         ZA         QA         VA         BVA        FA
  0 C      5.1920     6.0000     0.8080     3.6896     3.6896    -0.0000
  1 C      6.3136     6.0000    -0.3136     3.7553     3.7553     0.0000
  2 H      0.7000     1.0000     0.3000     0.9031     0.9031     0.0000
  3 H      0.7163     1.0000     0.2837     0.9037     0.9037    -0.0000
  4 O      8.6242     8.0000    -0.6242     1.8593     1.8593    -0.0000
  5 C      6.2241     6.0000    -0.2241     3.7800     3.7800     0.0000
  6 H      0.8367     1.0000     0.1633     0.9449     0.9449     0.0000
  7 H      0.8268     1.0000     0.1732     0.9427     0.9427    -0.0000
  8 C      6.0586     6.0000    -0.0586     3.7648     3.7648     0.0000
  9 H      0.8330     1.0000     0.1670     0.9442     0.9442     0.0000
 10 H      0.8541     1.0000     0.1459     0.9472     0.9472     0.0000
 11 C      5.1706     6.0000     0.8294     3.6621     3.6621     0.0000
 12 O      8.6072     8.0000    -0.6072     1.8527     1.8527     0.0000
 13 N      7.6989     7.0000    -0.6989     2.7413     2.7413    -0.0000
 14 H      0.6260     1.0000     0.3740     0.8707     0.8707    -0.0000
 15 O      8.6406     8.0000    -0.6406     1.8416     1.8416    -0.0000
 16 H      0.8356     1.0000     0.1644     0.9393     0.9393    -0.0000
 17 O      8.6137     8.0000    -0.6137     1.8474     1.8474     0.0000
 18 H      0.6277     1.0000     0.3723     0.8725     0.8725     0.0000

  Mayer bond orders larger than 0.100000
B(  0-C ,  1-C ) :   0.9375 B(  0-C ,  4-O ) :   1.0067 B(  0-C , 17-O ) :   1.7491 
B(  1-C ,  5-C ) :   0.9589 B(  1-C ,  6-H ) :   0.9619 B(  1-C ,  7-H ) :   0.9591 
B(  2-H , 13-N ) :   0.8824 B(  3-H , 13-N ) :   0.9038 B(  4-O , 14-H ) :   0.8397 
B(  5-C ,  8-C ) :   0.9582 B(  5-C ,  9-H ) :   0.9555 B(  5-C , 10-H ) :   0.9704 
B(  8-C , 11-C ) :   0.9181 B(  8-C , 13-N ) :   0.9752 B(  8-C , 16-H ) :   0.9597 
B( 11-C , 12-O ) :   1.7654 B( 11-C , 15-O ) :   0.9816 B( 15-O , 18-H ) :   0.8410 


-------
TIMINGS
-------

Total SCF time: 0 days 0 hours 0 min 24 sec 

Total time                  ....      24.060 sec
Sum of individual times     ....      22.897 sec  ( 95.2%)

SCF preparation             ....       0.017 sec  (  0.1%)
Fock matrix formation       ....      22.824 sec  ( 94.9%)
  Startup                   ....       0.001 sec  (  0.0% of F)
  Coulomb+Exchange Fock     ....      23.971 sec  (105.0% of F)
Diagonalization             ....       0.000 sec  (  0.0%)
Density matrix formation    ....       0.005 sec  (  0.0%)
Total Energy calculation    ....       0.001 sec  (  0.0%)
Population analysis         ....       0.002 sec  (  0.0%)
Orbital Transformation      ....       0.005 sec  (  0.0%)
Orbital Orthonormalization  ....       0.000 sec  (  0.0%)
DIIS solution               ....       0.028 sec  (  0.1%)
SOSCF solution              ....       0.013 sec  (  0.1%)
Finished LeanSCF after  24.1 sec

Maximum memory used throughout the entire LEANSCF-calculation: 15.2 MB

------------------------------------------------------------------------------
                                ORCA  MP2 
------------------------------------------------------------------------------

Freezing NCore=20 chemical core electrons
MP2 will be done in the AO integral direct mode
The Q1-step will be done using symmetric double matrices
Dimension of the basis                    ...  185
Memory devoted for MP2                    ... 4096 MB   
Memory needed for all in one shot         ...  705 MB
Number of MOs that can be treated together...  167      
MP2 density construction                  ... relaxed
The MP2 gradient is requested => amplitudes will be stored on disk
Total number of MOs              ...   29
Number of MOs treated per batch  ...   29 
Number of batches necessary      ...    1 
OPERATORS   0/  0 PASS   0
-----------------------------------------------
 MP2 CORRELATION ENERGY   :     -1.548335677 Eh
-----------------------------------------------


---------------------
MP2 DENSITY FORMATION
---------------------

Completing the external part of the density      ... done
Storing the unrelaxed density                    ... done

Calculating G(D)                                 ... done
Completing the Lagrangian                        ... done
Solving the Z-vector equations                   ... 
-------------------
SHARK CP-SCF DRIVER
-------------------

Dimension of the orbital basis          ...    185
Dimension of the CPSCF-problem          ...   5694
Number of operators                     ...      1
Max. number of iterations               ...    128
Convergence Tolerance                   ... 1.0e-04
Number of perturbations                 ...      1
Perturbation type                       ... REAL

----------------------------
POPLE LINEAR EQUATION SOLVER
----------------------------

  ITERATION   0:   ||err||_max =   1.6242e-01 (   2.6 sec)
  ITERATION   1:   ||err||_max =   4.1262e-02 (   2.6 sec)
  ITERATION   2:   ||err||_max =   1.6304e-02 (   2.7 sec)
  ITERATION   3:   ||err||_max =   4.8666e-03 (   2.6 sec)
  ITERATION   4:   ||err||_max =   1.5476e-03 (   2.7 sec)
  ITERATION   5:   ||err||_max =   4.6839e-04 (   2.6 sec)
  ITERATION   6:   ||err||_max =   1.6858e-04 (   2.7 sec)
  ITERATION   7:   ||err||_max =   6.4586e-05 (   2.7 sec)
                                                 ... done
Finalizing the relaxed density                   ... done
Transforming P to the AO basis                   ... done
Storing the relaxed density                      ... done

------------------------------------
ENERGY WEIGHTED DENSITY FINALIZATION
------------------------------------

Gathering the parts of the W-matrix              ...                                                      done
Forming the Z-density                            ... done
Transforming Z to the AO basis                   ... done
Calculating G(Z)                                 ... done
Finalizing the W-matrix                          ...                                                      done
Transforming W to the AO basis and storing       ... done

                *********************************************
                * UNRELAXED MP2 DENSITY POPULATION ANALYSIS *
                *********************************************

------------------------------------------------------------------------------
                           ORCA POPULATION ANALYSIS
------------------------------------------------------------------------------
Input electron density              ... 1.pmp2ur
BaseName (.gbw .S,...)              ... 1

                    ********************************
                    * MULLIKEN POPULATION ANALYSIS *
                    ********************************

-----------------------
MULLIKEN ATOMIC CHARGES
-----------------------
   0 C :    0.774238
   1 C :   -0.313788
   2 H :    0.297726
   3 H :    0.282300
   4 O :   -0.610246
   5 C :   -0.226202
   6 H :    0.163822
   7 H :    0.173588
   8 C :   -0.064028
   9 H :    0.167261
  10 H :    0.146706
  11 C :    0.795093
  12 O :   -0.583736
  13 N :   -0.690779
  14 H :    0.370838
  15 O :   -0.626683
  16 H :    0.165060
  17 O :   -0.590282
  18 H :    0.369112
Sum of atomic charges:    0.0000000

--------------------------------
MULLIKEN REDUCED ORBITAL CHARGES
--------------------------------
  0 C s       :     2.959260  s :     2.959260
      pz      :     0.761896  p :     2.106420
      px      :     0.627578
      py      :     0.716946
      dz2     :     0.035976  d :     0.160083
      dxz     :     0.030590
      dyz     :     0.060957
      dx2y2   :     0.016065
      dxy     :     0.016496
  1 C s       :     3.258745  s :     3.258745
      pz      :     1.013565  p :     2.992527
      px      :     0.990262
      py      :     0.988700
      dz2     :     0.010041  d :     0.062515
      dxz     :     0.011905
      dyz     :     0.016439
      dx2y2   :     0.013982
      dxy     :     0.010148
  2 H s       :     0.673671  s :     0.673671
      pz      :     0.007634  p :     0.028603
      px      :     0.013525
      py      :     0.007443
  3 H s       :     0.689587  s :     0.689587
      pz      :     0.011058  p :     0.028112
      px      :     0.009024
      py      :     0.008030
  4 O s       :     3.831662  s :     3.831662
      pz      :     1.646713  p :     4.729943
      px      :     1.809769
      py      :     1.273461
      dz2     :     0.007939  d :     0.048641
      dxz     :     0.007680
      dyz     :     0.017908
      dx2y2   :     0.007736
      dxy     :     0.007379
  5 C s       :     3.238841  s :     3.238841
      pz      :     0.957865  p :     2.923289
      px      :     0.873849
      py      :     1.091576
      dz2     :     0.010264  d :     0.064073
      dxz     :     0.013135
      dyz     :     0.015478
      dx2y2   :     0.015634
      dxy     :     0.009562
  6 H s       :     0.820754  s :     0.820754
      pz      :     0.008092  p :     0.015424
      px      :     0.004305
      py      :     0.003027
  7 H s       :     0.810900  s :     0.810900
      pz      :     0.003571  p :     0.015512
      px      :     0.003638
      py      :     0.008303
  8 C s       :     3.214922  s :     3.214922
      pz      :     0.904808  p :     2.763341
      px      :     1.048832
      py      :     0.809702
      dz2     :     0.015238  d :     0.085765
      dxz     :     0.015079
      dyz     :     0.022535
      dx2y2   :     0.020057
      dxy     :     0.012856
  9 H s       :     0.817208  s :     0.817208
      pz      :     0.003878  p :     0.015531
      px      :     0.003584
      py      :     0.008069
 10 H s       :     0.837989  s :     0.837989
      pz      :     0.005402  p :     0.015305
      px      :     0.002813
      py      :     0.007090
 11 C s       :     2.944214  s :     2.944214
      pz      :     0.650627  p :     2.103083
      px      :     0.628283
      py      :     0.824172
      dz2     :     0.045219  d :     0.157610
      dxz     :     0.022373
      dyz     :     0.045013
      dx2y2   :     0.021004
      dxy     :     0.024001
 12 O s       :     3.874815  s :     3.874815
      pz      :     1.739231  p :     4.654497
      px      :     1.490754
      py      :     1.424511
      dz2     :     0.008378  d :     0.054424
      dxz     :     0.006583
      dyz     :     0.013238
      dx2y2   :     0.011011
      dxy     :     0.015214
 13 N s       :     3.600382  s :     3.600382
      pz      :     1.341035  p :     4.033904
      px      :     1.213747
      py      :     1.479122
      dz2     :     0.007877  d :     0.056493
      dxz     :     0.017153
      dyz     :     0.010441
      dx2y2   :     0.009551
      dxy     :     0.011470
 14 H s       :     0.586398  s :     0.586398
      pz      :     0.015578  p :     0.042764
      px      :     0.009342
      py      :     0.017844
 15 O s       :     3.835608  s :     3.835608
      pz      :     1.342747  p :     4.742425
      px      :     1.818627
      py      :     1.581051
      dz2     :     0.012823  d :     0.048650
      dxz     :     0.008675
      dyz     :     0.011606
      dx2y2   :     0.009278
      dxy     :     0.006268
 16 H s       :     0.819907  s :     0.819907
      pz      :     0.003218  p :     0.015033
      px      :     0.008600
      py      :     0.003216
 17 O s       :     3.875103  s :     3.875103
      pz      :     1.352489  p :     4.661031
      px      :     1.496677
      py      :     1.811865
      dz2     :     0.015897  d :     0.054148
      dxz     :     0.016960
      dyz     :     0.011885
      dx2y2   :     0.004680
      dxy     :     0.004726
 18 H s       :     0.588045  s :     0.588045
      pz      :     0.011586  p :     0.042843
      px      :     0.009615
      py      :     0.021642


                     *******************************
                     * LOEWDIN POPULATION ANALYSIS *
                     *******************************

----------------------
LOEWDIN ATOMIC CHARGES
----------------------
   0 C :    0.224091
   1 C :   -0.132303
   2 H :    0.134018
   3 H :    0.132896
   4 O :   -0.181905
   5 C :   -0.095887
   6 H :    0.087336
   7 H :    0.090332
   8 C :   -0.031195
   9 H :    0.083460
  10 H :    0.077572
  11 C :    0.205554
  12 O :   -0.303998
  13 N :   -0.278813
  14 H :    0.201201
  15 O :   -0.192392
  16 H :    0.089035
  17 O :   -0.308326
  18 H :    0.199323

-------------------------------
LOEWDIN REDUCED ORBITAL CHARGES
-------------------------------
  0 C s       :     2.840918  s :     2.840918
      pz      :     1.024363  p :     2.601943
      px      :     0.670000
      py      :     0.907581
      dz2     :     0.077935  d :     0.333047
      dxz     :     0.057766
      dyz     :     0.134183
      dx2y2   :     0.031924
      dxy     :     0.031239
  1 C s       :     2.894703  s :     2.894703
      pz      :     1.045411  p :     3.131748
      px      :     1.047314
      py      :     1.039023
      dz2     :     0.016318  d :     0.105852
      dxz     :     0.019511
      dyz     :     0.029205
      dx2y2   :     0.024519
      dxy     :     0.016298
  2 H s       :     0.777873  s :     0.777873
      pz      :     0.023390  p :     0.088109
      px      :     0.041356
      py      :     0.023363
  3 H s       :     0.781153  s :     0.781153
      pz      :     0.034582  p :     0.085951
      px      :     0.027243
      py      :     0.024125
  4 O s       :     3.451005  s :     3.451005
      pz      :     1.624442  p :     4.657759
      px      :     1.757503
      py      :     1.275814
      dz2     :     0.010468  d :     0.073140
      dxz     :     0.007632
      dyz     :     0.029467
      dx2y2   :     0.015298
      dxy     :     0.010275
  5 C s       :     2.890435  s :     2.890435
      pz      :     1.028856  p :     3.096423
      px      :     0.985921
      py      :     1.081647
      dz2     :     0.017893  d :     0.109029
      dxz     :     0.024165
      dyz     :     0.024499
      dx2y2   :     0.027423
      dxy     :     0.015049
  6 H s       :     0.866904  s :     0.866904
      pz      :     0.024417  p :     0.045760
      px      :     0.012882
      py      :     0.008461
  7 H s       :     0.863480  s :     0.863480
      pz      :     0.010214  p :     0.046189
      px      :     0.011182
      py      :     0.024793
  8 C s       :     2.871716  s :     2.871716
      pz      :     0.996192  p :     3.001240
      px      :     1.045826
      py      :     0.959222
      dz2     :     0.027938  d :     0.158239
      dxz     :     0.027085
      dyz     :     0.043879
      dx2y2   :     0.036999
      dxy     :     0.022339
  9 H s       :     0.870012  s :     0.870012
      pz      :     0.012140  p :     0.046528
      px      :     0.010458
      py      :     0.023931
 10 H s       :     0.877358  s :     0.877358
      pz      :     0.016256  p :     0.045069
      px      :     0.007896
      py      :     0.020918
 11 C s       :     2.851972  s :     2.851972
      pz      :     0.888123  p :     2.612222
      px      :     0.676106
      py      :     1.047993
      dz2     :     0.099122  d :     0.330252
      dxz     :     0.043630
      dyz     :     0.099443
      dx2y2   :     0.044179
      dxy     :     0.043878
 12 O s       :     3.543191  s :     3.543191
      pz      :     1.715455  p :     4.679269
      px      :     1.460219
      py      :     1.503595
      dz2     :     0.012895  d :     0.081538
      dxz     :     0.007061
      dyz     :     0.023133
      dx2y2   :     0.021898
      dxy     :     0.016551
 13 N s       :     3.182961  s :     3.182961
      pz      :     1.330643  p :     4.011115
      px      :     1.200404
      py      :     1.480068
      dz2     :     0.010572  d :     0.084737
      dxz     :     0.025658
      dyz     :     0.016446
      dx2y2   :     0.015151
      dxy     :     0.016910
 14 H s       :     0.676158  s :     0.676158
      pz      :     0.046697  p :     0.122640
      px      :     0.027484
      py      :     0.048460
 15 O s       :     3.451549  s :     3.451549
      pz      :     1.351120  p :     4.667837
      px      :     1.766149
      py      :     1.550568
      dz2     :     0.023649  d :     0.073007
      dxz     :     0.011603
      dyz     :     0.020761
      dx2y2   :     0.011005
      dxy     :     0.005990
 16 H s       :     0.867143  s :     0.867143
      pz      :     0.009768  p :     0.043822
      px      :     0.025204
      py      :     0.008850
 17 O s       :     3.544289  s :     3.544289
      pz      :     1.452888  p :     4.682994
      px      :     1.462658
      py      :     1.767449
      dz2     :     0.034179  d :     0.081042
      dxz     :     0.018696
      dyz     :     0.018246
      dx2y2   :     0.004999
      dxy     :     0.004922
 18 H s       :     0.677520  s :     0.677520
      pz      :     0.032049  p :     0.123158
      px      :     0.028250
      py      :     0.062858


                      *****************************
                      * MAYER POPULATION ANALYSIS *
                      *****************************

  NA   - Mulliken gross atomic population
  ZA   - Total nuclear charge
  QA   - Mulliken gross atomic charge
  VA   - Mayer's total valence
  BVA  - Mayer's bonded valence
  FA   - Mayer's free valence

  ATOM       NA         ZA         QA         VA         BVA        FA
  0 C      5.2258     6.0000     0.7742     3.7537     3.4671     0.2865
  1 C      6.3138     6.0000    -0.3138     3.8446     3.5767     0.2679
  2 H      0.7023     1.0000     0.2977     0.9109     0.8651     0.0458
  3 H      0.7177     1.0000     0.2823     0.9107     0.8654     0.0453
  4 O      8.6102     8.0000    -0.6102     2.1159     1.7606     0.3553
  5 C      6.2262     6.0000    -0.2262     3.8650     3.5940     0.2710
  6 H      0.8362     1.0000     0.1638     0.9530     0.9063     0.0467
  7 H      0.8264     1.0000     0.1736     0.9508     0.9043     0.0465
  8 C      6.0640     6.0000    -0.0640     3.8411     3.5609     0.2801
  9 H      0.8327     1.0000     0.1673     0.9528     0.9053     0.0475
 10 H      0.8533     1.0000     0.1467     0.9558     0.9082     0.0476
 11 C      5.2049     6.0000     0.7951     3.7265     3.4367     0.2898
 12 O      8.5837     8.0000    -0.5837     2.1214     1.7230     0.3985
 13 N      7.6908     7.0000    -0.6908     2.9359     2.6088     0.3272
 14 H      0.6292     1.0000     0.3708     0.8775     0.8338     0.0438
 15 O      8.6267     8.0000    -0.6267     2.0999     1.7439     0.3560
 16 H      0.8349     1.0000     0.1651     0.9476     0.8990     0.0486
 17 O      8.5903     8.0000    -0.5903     2.1179     1.7186     0.3994
 18 H      0.6309     1.0000     0.3691     0.8794     0.8353     0.0441

  Mayer bond orders larger than 0.100000
B(  0-C ,  1-C ) :   0.8888 B(  0-C ,  4-O ) :   0.9516 B(  0-C , 17-O ) :   1.6350 
B(  1-C ,  5-C ) :   0.9056 B(  1-C ,  6-H ) :   0.9251 B(  1-C ,  7-H ) :   0.9224 
B(  2-H , 13-N ) :   0.8462 B(  3-H , 13-N ) :   0.8672 B(  4-O , 14-H ) :   0.8051 
B(  5-C ,  8-C ) :   0.9047 B(  5-C ,  9-H ) :   0.9181 B(  5-C , 10-H ) :   0.9329 
B(  8-C , 11-C ) :   0.8676 B(  8-C , 13-N ) :   0.9188 B(  8-C , 16-H ) :   0.9218 
B( 11-C , 12-O ) :   1.6499 B( 11-C , 15-O ) :   0.9276 B( 15-O , 18-H ) :   0.8063 



                *******************************************
                * RELAXED MP2 DENSITY POPULATION ANALYSIS *
                *******************************************

------------------------------------------------------------------------------
                           ORCA POPULATION ANALYSIS
------------------------------------------------------------------------------
Input electron density              ... 1.pmp2re
BaseName (.gbw .S,...)              ... 1

                    ********************************
                    * MULLIKEN POPULATION ANALYSIS *
                    ********************************

-----------------------
MULLIKEN ATOMIC CHARGES
-----------------------
   0 C :    0.584499
   1 C :   -0.297489
   2 H :    0.273395
   3 H :    0.265273
   4 O :   -0.510391
   5 C :   -0.209457
   6 H :    0.148510
   7 H :    0.158737
   8 C :   -0.076800
   9 H :    0.149344
  10 H :    0.134495
  11 C :    0.593872
  12 O :   -0.448241
  13 N :   -0.625596
  14 H :    0.345192
  15 O :   -0.526251
  16 H :    0.150640
  17 O :   -0.453579
  18 H :    0.343845
Sum of atomic charges:    0.0000000

--------------------------------
MULLIKEN REDUCED ORBITAL CHARGES
--------------------------------
  0 C s       :     2.976139  s :     2.976139
      pz      :     0.779105  p :     2.288854
      px      :     0.747632
      py      :     0.762117
      dz2     :     0.034037  d :     0.150507
      dxz     :     0.027519
      dyz     :     0.057811
      dx2y2   :     0.014951
      dxy     :     0.016190
  1 C s       :     3.235457  s :     3.235457
      pz      :     1.015440  p :     3.005388
      px      :     0.988480
      py      :     1.001467
      dz2     :     0.009299  d :     0.056644
      dxz     :     0.011405
      dyz     :     0.013814
      dx2y2   :     0.012138
      dxy     :     0.009987
  2 H s       :     0.699196  s :     0.699196
      pz      :     0.007532  p :     0.027409
      px      :     0.012274
      py      :     0.007604
  3 H s       :     0.707704  s :     0.707704
      pz      :     0.010299  p :     0.027023
      px      :     0.008521
      py      :     0.008203
  4 O s       :     3.813598  s :     3.813598
      pz      :     1.624544  p :     4.649635
      px      :     1.766215
      py      :     1.258876
      dz2     :     0.008067  d :     0.047158
      dxz     :     0.007746
      dyz     :     0.016384
      dx2y2   :     0.007531
      dxy     :     0.007431
  5 C s       :     3.216510  s :     3.216510
      pz      :     0.969053  p :     2.934942
      px      :     0.891773
      py      :     1.074117
      dz2     :     0.009186  d :     0.058004
      dxz     :     0.011781
      dyz     :     0.014177
      dx2y2   :     0.013554
      dxy     :     0.009305
  6 H s       :     0.836791  s :     0.836791
      pz      :     0.007229  p :     0.014699
      px      :     0.004263
      py      :     0.003207
  7 H s       :     0.826531  s :     0.826531
      pz      :     0.003623  p :     0.014732
      px      :     0.003727
      py      :     0.007382
  8 C s       :     3.193460  s :     3.193460
      pz      :     0.919509  p :     2.804701
      px      :     1.038669
      py      :     0.846523
      dz2     :     0.014802  d :     0.078640
      dxz     :     0.013399
      dyz     :     0.019706
      dx2y2   :     0.018234
      dxy     :     0.012499
  9 H s       :     0.835867  s :     0.835867
      pz      :     0.003916  p :     0.014788
      px      :     0.003632
      py      :     0.007240
 10 H s       :     0.850901  s :     0.850901
      pz      :     0.005107  p :     0.014604
      px      :     0.003019
      py      :     0.006477
 11 C s       :     2.968172  s :     2.968172
      pz      :     0.704009  p :     2.290053
      px      :     0.745993
      py      :     0.840051
      dz2     :     0.043225  d :     0.147903
      dxz     :     0.021601
      dyz     :     0.042179
      dx2y2   :     0.019585
      dxy     :     0.021314
 12 O s       :     3.849643  s :     3.849643
      pz      :     1.698007  p :     4.546848
      px      :     1.423487
      py      :     1.425353
      dz2     :     0.008439  d :     0.051751
      dxz     :     0.006434
      dyz     :     0.012528
      dx2y2   :     0.010468
      dxy     :     0.013882
 13 N s       :     3.581146  s :     3.581146
      pz      :     1.319623  p :     3.990971
      px      :     1.196857
      py      :     1.474491
[...]
 17 O s       :     3.865708  s :     3.865708
      pz      :     1.354402  p :     4.545557
      px      :     1.437808
      py      :     1.753347
      dz2     :     0.014258  d :     0.050502
      dxz     :     0.014878
      dyz     :     0.011917
      dx2y2   :     0.004694
      dxy     :     0.004755
 18 H s       :     0.615825  s :     0.615825
      pz      :     0.010058  p :     0.040823
      px      :     0.010089
      py      :     0.020677


                     *******************************
                     * LOEWDIN POPULATION ANALYSIS *
                     *******************************

----------------------
LOEWDIN ATOMIC CHARGES
----------------------
   0 C :    0.163250
   1 C :   -0.147370
   2 H :    0.129252
   3 H :    0.131465
   4 O :   -0.158801
   5 C :   -0.106130
   6 H :    0.088546
   7 H :    0.093244
   8 C :   -0.049766
   9 H :    0.082527
  10 H :    0.080019
  11 C :    0.143134
  12 O :   -0.232856
  13 N :   -0.266806
  14 H :    0.190456
  15 O :   -0.175075
  16 H :    0.091306
  17 O :   -0.245402
  18 H :    0.189008

-------------------------------
LOEWDIN REDUCED ORBITAL CHARGES
-------------------------------
  0 C s       :     2.852281  s :     2.852281
      pz      :     1.005888  p :     2.677072
      px      :     0.766081
      py      :     0.905102
      dz2     :     0.074842  d :     0.307398
      dxz     :     0.051084
      dyz     :     0.122372
      dx2y2   :     0.030236
      dxy     :     0.028864
  1 C s       :     2.895703  s :     2.895703
      pz      :     1.055135  p :     3.151385
      px      :     1.042252
      py      :     1.053998
      dz2     :     0.016970  d :     0.100282
      dxz     :     0.019187
      dyz     :     0.024860
      dx2y2   :     0.022083
      dxy     :     0.017182
  2 H s       :     0.783511  s :     0.783511
      pz      :     0.023703  p :     0.087237
      px      :     0.038676
      py      :     0.024857
  3 H s       :     0.784074  s :     0.784074
      pz      :     0.033881  p :     0.084461
      px      :     0.026618
      py      :     0.023962
  4 O s       :     3.478441  s :     3.478441
      pz      :     1.584320  p :     4.607785
      px      :     1.720285
      py      :     1.303180
      dz2     :     0.011488  d :     0.072575
      dxz     :     0.008067
      dyz     :     0.027783
      dx2y2   :     0.014272
      dxy     :     0.010964
  5 C s       :     2.891560  s :     2.891560
      pz      :     1.034800  p :     3.111438
      px      :     0.992674
      py      :     1.083963
      dz2     :     0.017511  d :     0.103132
      dxz     :     0.021981
      dyz     :     0.023343
      dx2y2   :     0.024861
      dxy     :     0.015436
  6 H s       :     0.865904  s :     0.865904
      pz      :     0.024451  p :     0.045550
      px      :     0.012385
      py      :     0.008714
  7 H s       :     0.860685  s :     0.860685
      pz      :     0.010361  p :     0.046071
      px      :     0.011298
      py      :     0.024412
  8 C s       :     2.874694  s :     2.874694
      pz      :     1.003426  p :     3.024225
      px      :     1.042222
      py      :     0.978577
      dz2     :     0.028266  d :     0.150848
      dxz     :     0.025544
      dyz     :     0.039393
      dx2y2   :     0.032624
      dxy     :     0.025021
  9 H s       :     0.871334  s :     0.871334
      pz      :     0.012201  p :     0.046139
      px      :     0.010838
      py      :     0.023100
 10 H s       :     0.875287  s :     0.875287
      pz      :     0.015925  p :     0.044695
      px      :     0.008311
      py      :     0.020459
 11 C s       :     2.864521  s :     2.864521
      pz      :     0.882584  p :     2.687060
      px      :     0.773906
      py      :     1.030570
      dz2     :     0.087279  d :     0.305285
      dxz     :     0.039914
      dyz     :     0.092226
      dx2y2   :     0.044365
      dxy     :     0.041502
 12 O s       :     3.560539  s :     3.560539
      pz      :     1.677377  p :     4.593365
      px      :     1.421879
      py      :     1.494109
      dz2     :     0.012513  d :     0.078953
      dxz     :     0.006835
      dyz     :     0.021765
      dx2y2   :     0.021261
      dxy     :     0.016577
 13 N s       :     3.196848  s :     3.196848
      pz      :     1.322737  p :     3.987602
      px      :     1.211256
      py      :     1.453609
      dz2     :     0.010559  d :     0.082356
      dxz     :     0.024655
      dyz     :     0.016111
      dx2y2   :     0.013393
      dxy     :     0.017639
 14 H s       :     0.689651  s :     0.689651
      pz      :     0.051574  p :     0.119893
      px      :     0.027627
      py      :     0.040692
 15 O s       :     3.479405  s :     3.479405
      pz      :     1.387791  p :     4.623394
      px      :     1.713982
      py      :     1.521620
      dz2     :     0.021811  d :     0.072276
      dxz     :     0.013061
      dyz     :     0.018419
      dx2y2   :     0.011807
      dxy     :     0.007177
 16 H s       :     0.864600  s :     0.864600
      pz      :     0.009910  p :     0.044094
      px      :     0.024251
      py      :     0.009933
 17 O s       :     3.562543  s :     3.562543
      pz      :     1.452970  p :     4.604814
      px      :     1.421245
      py      :     1.730598
      dz2     :     0.031725  d :     0.078045
      dxz     :     0.018311
      dyz     :     0.018092
      dx2y2   :     0.004959
      dxy     :     0.004957
 18 H s       :     0.690429  s :     0.690429
      pz      :     0.028158  p :     0.120563
      px      :     0.028645
      py      :     0.063760


                      *****************************
                      * MAYER POPULATION ANALYSIS *
                      *****************************

  NA   - Mulliken gross atomic population
  ZA   - Total nuclear charge
  QA   - Mulliken gross atomic charge
  VA   - Mayer's total valence
  BVA  - Mayer's bonded valence
  FA   - Mayer's free valence

  ATOM       NA         ZA         QA         VA         BVA        FA
  0 C      5.4104     6.0000     0.5896     3.9615     3.6884     0.2731
  1 C      6.2983     6.0000    -0.2983     3.8923     3.6285     0.2638
  2 H      0.7246     1.0000     0.2754     0.9306     0.8851     0.0455
  3 H      0.7345     1.0000     0.2655     0.9191     0.8736     0.0455
  4 O      8.5114     8.0000    -0.5114     2.2357     1.8846     0.3511
  5 C      6.2044     6.0000    -0.2044     3.9177     3.6504     0.2673
  6 H      0.8515     1.0000     0.1485     0.9570     0.9102     0.0467
  7 H      0.8372     1.0000     0.1628     0.9566     0.9101     0.0465
  8 C      6.0774     6.0000    -0.0774     3.9095     3.6331     0.2764
  9 H      0.8514     1.0000     0.1486     0.9609     0.9136     0.0473
 10 H      0.8659     1.0000     0.1341     0.9573     0.9093     0.0479
 11 C      5.4058     6.0000     0.5942     3.9358     3.6581     0.2777
 12 O      8.4503     8.0000    -0.4503     2.2933     1.9034     0.3898
 13 N      7.6250     7.0000    -0.6250     3.0084     2.6840     0.3244
 14 H      0.6563     1.0000     0.3437     0.9011     0.8576     0.0435
 15 O      8.5301     8.0000    -0.5301     2.2162     1.8639     0.3523
 16 H      0.8471     1.0000     0.1529     0.9495     0.9009     0.0486
 17 O      8.4618     8.0000    -0.4618     2.2851     1.8951     0.3900
 18 H      0.6566     1.0000     0.3434     0.9021     0.8584     0.0437

  Mayer bond orders larger than 0.100000
B(  0-C ,  1-C ) :   0.9097 B(  0-C ,  4-O ) :   1.0254 B(  0-C , 17-O ) :   1.7369 
B(  1-C ,  5-C ) :   0.9247 B(  1-C ,  6-H ) :   0.9139 B(  1-C ,  7-H ) :   0.9118 
B(  2-H , 13-N ) :   0.8457 B(  3-H , 13-N ) :   0.8675 B(  4-O , 14-H ) :   0.8129 
B(  5-C ,  8-C ) :   0.9172 B(  5-C ,  9-H ) :   0.9124 B(  5-C , 10-H ) :   0.9227 
B(  8-C , 11-C ) :   0.8689 B(  8-C , 13-N ) :   0.9542 B(  8-C , 16-H ) :   0.9101 
B( 11-C , 12-O ) :   1.7633 B( 11-C , 15-O ) :   1.0010 B( 15-O , 18-H ) :   0.8126 



----------------------------------
MP2 DERIVATIVE INTEGRAL GENERATION
----------------------------------

Input SCF Electron Density              ... 1.scfp
Input Correlated Electron Density       ... 1.pmp2re
Input Energy Weighted Density           ... 1.wmp2.tmp
Input Wavefunction Amplitudes           ... 1.mp2tsaa.tmp

Nuclear repulsion gradient              ... done (  0.0 sec)
HCore & Overlap gradient  (SHARK)       ... done (  0.1 sec)
Analytic two-electron gradient terms    ... 
  Batch handling in the gradient evaluation:
  General contraction                   ... not used
  Memory available                      ... 4082.2 MB
  Memory per occupied orbital in Q2     ...    7.6 MB
  Memory per occupied orbital in Q3     ...    0.0 MB
  Total memory requirement per |i>      ...    7.6 MB
  Number of orbitals treated per batch  ...     29
  Number of batches to be done          ...      1
done ( 23.2 sec)

---------------------------------------
MP2 TOTAL ENERGY:     -550.089989556 Eh
---------------------------------------

The final MP2 gradient
  0:  -0.00000973  -0.00000235  -0.00003975
  1:   0.00000039  -0.00000025   0.00001444
  2:   0.00000308  -0.00000235   0.00000400
  3:   0.00000155   0.00000287  -0.00000279
  4:   0.00000034  -0.00000314   0.00000215
  5:  -0.00001718   0.00000852  -0.00001312
  6:  -0.00000659  -0.00000085   0.00000298
  7:   0.00000442   0.00000298  -0.00000648
  8:   0.00001959  -0.00002505  -0.00000757
  9:   0.00000112  -0.00000460   0.00000681
 10:   0.00000876   0.00000168   0.00000684
 11:  -0.00001680   0.00001499  -0.00003160
 12:   0.00000908  -0.00000334   0.00001040
 13:  -0.00000878   0.00000716   0.00000403
 14:   0.00000410   0.00000726   0.00001001
 15:   0.00001299   0.00000802   0.00003429
 16:  -0.00000177   0.00000447   0.00000501
 17:   0.00000273  -0.00000765   0.00001275
 18:  -0.00000730  -0.00000837  -0.00001237

-----------------------------------
NORM OF THE MP2 GRADIENT:  0.000089
-----------------------------------

Maximum memory used throughout the entire MP2-calculation: 759.8 MB

-------------------------   --------------------
FINAL SINGLE POINT ENERGY      -550.089989556298
-------------------------   --------------------

                                *** OPTIMIZATION RUN DONE ***


------------------------------------------------------------------------------
                              ORCA PROPERTY CALCULATIONS
------------------------------------------------------------------------------

GBWName                                 ... 1.gbw
Number of atoms                         ...     19
Number of basis functions               ...    185
Max core memory                         ...   4096 MB

Electric properties:
Dipole moment                           ... YES
Quadrupole moment                       ...  NO
Static polarizability (Dipole/Dipole)   ...  NO
Static polarizability (Dipole/Quad.)    ...  NO
Static polarizability (Quad./Quad.)     ...  NO
Static polarizability (Velocity)        ...  NO
Static hyperpolarizability              ...  NO

Atomic electric properties:
Dipole moment                           ...  NO
Quadrupole moment                       ...  NO
Static polarizability                   ...  NO

Choice of electric origin               ... Center of mass
Position of electric origin             ...    -2.438649     0.804877     0.718159

General magnetic properties:
Magnetizability                         ...  NO

EPR properties:
g-Tensor (aka g-matrix)                 ...  NO
Zero-Field splitting spin-orbit         ...  NO
Zero-field splitting spin-spin          ...  NO
Hyperfine couplings                     ...  NO (   0 nuclei)
Quadrupole couplings                    ...  NO (   0 nuclei)
Contact density                         ...  NO (   0 nuclei)

NMR properties:
Chemical shifts                         ...  NO (   0 nuclei)
Spin-rotation constants                 ...  NO (   0 nuclei)
Spin-spin couplings                     ...  NO (   0 nuclei,    0 pairs)

Choice of magnetic origin               ... GIAO
Position of magnetic origin             ...     0.000000     0.000000     0.000000

Properties with geometric perturbations:
SCF Hessian                             ...  NO
IR spectrum                             ...  NO
VCD spectrum                            ...  NO
X-ray spectroscopy properties:
SCF XES/XAS/RIXS spectra                ...  NO

SCF SOC stabilization energy            ...  NO
Diagonal Born-Oppenheimer correction    ...  NO

-------------
DIPOLE MOMENT
-------------

Method             : SCF
Type of density    : Electron Density
Multiplicity       :   1
Irrep              :   0
Energy             :  -548.5344653045171981 Eh
Basis              : AO
                                X                 Y                 Z
Electronic contribution:     -0.251864760      -5.157385854       3.232141029
Nuclear contribution   :      0.454043949       5.227476777      -3.291294100
                        -----------------------------------------
Total Dipole Moment    :      0.202179190       0.070090923      -0.059153071
                        -----------------------------------------
Magnitude (a.u.)       :      0.222009568
Magnitude (Debye)      :      0.564303475



--------------------
Rotational spectrum 
--------------------
 
Rotational constants in cm-1:             0.060883             0.038370             0.032662 
Rotational constants in MHz :          1825.239444          1150.303774           979.175137 

Dipole components along the rotational axes: 
x,y,z [a.u.] :    -0.166324    -0.063027     0.132862 
x,y,z [Debye]:    -0.422762    -0.160201     0.337708 

 

-------------
DIPOLE MOMENT
-------------

Method             : MP2
Type of density    : Electron Density
Multiplicity       :   1
Level              : Unrelaxed density
Irrep              :   0
Energy             :     0.0000000000000000 Eh
Basis              : AO
                                X                 Y                 Z
Electronic contribution:     -0.255529229      -5.194927069       3.263230459
Nuclear contribution   :      0.454043949       5.227476777      -3.291294100
                        -----------------------------------------
Total Dipole Moment    :      0.198514720       0.032549708      -0.028063640
                        -----------------------------------------
Magnitude (a.u.)       :      0.203113627
Magnitude (Debye)      :      0.516273810



--------------------
Rotational spectrum 
--------------------
 
Rotational constants in cm-1:             0.060883             0.038370             0.032662 
Rotational constants in MHz :          1825.239444          1150.303774           979.175137 

Dipole components along the rotational axes: 
x,y,z [a.u.] :    -0.164802    -0.016630     0.117554 
x,y,z [Debye]:    -0.418894    -0.042270     0.298798 

 

-------------
DIPOLE MOMENT
-------------

Method             : MP2
Type of density    : Electron Density
Multiplicity       :   1
Level              : Relaxed density
Irrep              :   0
Energy             :     0.0000000000000000 Eh
Basis              : AO
                                X                 Y                 Z
Electronic contribution:     -0.268929494      -5.368092404       3.399718203
Nuclear contribution   :      0.454043949       5.227476777      -3.291294100
                        -----------------------------------------
Total Dipole Moment    :      0.185114456      -0.140615627       0.108424104
                        -----------------------------------------
Magnitude (a.u.)       :      0.256507120
Magnitude (Debye)      :      0.651989284



--------------------
Rotational spectrum 
--------------------
 
Rotational constants in cm-1:             0.060883             0.038370             0.032662 
Rotational constants in MHz :          1825.239444          1150.303774           979.175137 

Dipole components along the rotational axes: 
x,y,z [a.u.] :    -0.157691     0.194891     0.054284 
x,y,z [Debye]:    -0.400820     0.495374     0.137979 

 

Dipole moment calculation done in   0.0 sec 

Maximum memory used throughout the entire PROP-calculation: 10.3 MB

--------------------------------
SUGGESTED CITATIONS FOR THIS RUN
--------------------------------

Below you find a list of papers that are relevant to this ORCA run
We neither can nor want to force you to cite these papers, but we appreciate if you do
You receive ORCA, which is the product of decades of hard work by many enthusiastic individuals, for free
The only thing we kindly ask in return is that you cite our papers,
We deeply appreciate it, if you show your appreciation for ORCA by not just citing the generic ORCA reference.

Please note that relegating all ORCA citations to the supporting information does *not* help us.
SI sections are not indexed - citations you put there will not count into any citation statistics
But we need these citations in order to attract the funding resources that allow us to do what we are doing

Therefore, if you are a happy ORCA user, please consider citing a few of the papers listed below in the main body of your paper

In addition to the list printed below, the program has created the file 1.bibtex that contains the list in bibtex format
You can import this file easily into all common literature databanks and citation aid programs


List of essential papers. We consider these as the minimum necessary citations

  1. Neese, F.
     Software update: the ORCA program system, version 6.0
     WIRES Comput. Molec. Sci. 2025 15(1), e70019
     doi.org/10.1002/wcms.7019

List of papers to cite with high priority. The work reported in these papers was absolutely
necessary for this run to complete.
Our perspective: the developers of density functionals and basis sets usually get cited in chemistry papers
Good! But without the algorithms to do something with them, the functionals or basis sets would not do anything.
Hence, in our opinion, the algorithm design and method developments papers are equally worthy of getting cited

  1. Neese, F.
     The SHARK Integral Generation and Digestion System
     J. Comp. Chem. 2022 44(3), 381
     doi.org/10.1002/jcc.26942

List of suggested additional citations. These are papers that are important in the 'surrounding' of 
of this run, or papers that preceded the highly important papers. If you like your results we are grateful for a citation.

  1. Neese, F.
     The ORCA program system
     WIRES Comput. Molec. Sci. 2012 2(1), 73-78
     doi.org/10.1002/wcms.81
  2. Neese, F.
     Software update: the ORCA program system, version 4.0
     WIRES Comput. Molec. Sci. 2018 8(1), 1-6
     doi.org/10.1002/wcms.1327
  3. Neese, F.; Wennmohs, F.; Becker, U.; Riplinger, C.
     The ORCA quantum chemistry program package
     J. Chem. Phys. 2020 152(22), 224108
     doi.org/10.1063/5.0004608
  4. Neese, F.
     Software update: The ORCA program system—Version 5.0
     WIRES Comput. Molec. Sci. 2022 12(1), e1606
     doi.org/10.1002/wcms.1606

List of optional additional citations

  1. Neese, F.
     Approximate second-order SCF convergence for spin unrestricted wavefunctions
     Chem. Phys. Lett. 2000 325(1-3), 93-98
     doi.org/10.1016/s0009-2614(00)00662-x

Timings for individual modules:

Sum of individual times          ...      907.873 sec (=  15.131 min)
Startup calculation              ...        4.959 sec (=   0.083 min)   0.5 %
SCF iterations                   ...      182.388 sec (=   3.040 min)  20.1 %
Property calculations            ...        0.045 sec (=   0.001 min)   0.0 %
MP2 module                       ...      720.467 sec (=  12.008 min)  79.4 %
Geometry relaxation              ...        0.015 sec (=   0.000 min)   0.0 %
                             ****ORCA TERMINATED NORMALLY****
TOTAL RUN TIME: 0 days 0 hours 15 minutes 8 seconds 102 msec
