
                                 *****************
                                 * O   R   C   A *
                                 *****************

                                            #,                                       
                                            ###                                      
                                            ####                                     
                                            #####                                    
                                            ######                                   
                                           ########,                                 
                                     ,,################,,,,,                         
                               ,,#################################,,                 
                          ,,##########################################,,             
                       ,#########################################, ''#####,          
                    ,#############################################,,   '####,        
                  ,##################################################,,,,####,       
                ,###########''''           ''''###############################       
              ,#####''   ,,,,##########,,,,          '''####'''          '####       
            ,##' ,,,,###########################,,,                        '##       
           ' ,,###''''                  '''############,,,                           
         ,,##''                                '''############,,,,        ,,,,,,###''
      ,#''                                            '''#######################'''  
     '                                                          ''''####''''         
             ,#######,   #######,   ,#######,      ##                                
            ,#'     '#,  ##    ##  ,#'     '#,    #''#        ,####,    ,#,          
            ##       ##  ##   ,#'  ##            #'  '#       #'       ,# #          
            ##       ##  #######   ##           ,######,      #####,      #          
            '#,     ,#'  ##    ##  '#,     ,#' ,#      #,     #,   #      #          
             '#######'   ##     ##  '#######'  #'      '#     '####' #    #          



                #########################################################
                #                        -***-                          #
                #          Department of theory and spectroscopy        #
                #                                                       #
                #                      Frank Neese                      #
                #                                                       #
                #     Directorship, Architecture, Infrastructure        #
                #                    SHARK, DRIVERS                     #
                #        Core code/Algorithms in most modules           #
                #                                                       #
                #        Max Planck Institute fuer Kohlenforschung      #
                #                Kaiser Wilhelm Platz 1                 #
                #                 D-45470 Muelheim/Ruhr                 #
                #                      Germany                          #
                #                                                       #
                #                  All rights reserved                  #
                #                        -***-                          #
                #########################################################


                         Program Version 6.1.0  -  RELEASE   -
                                (GIT: $679e74b$)
                          ($2025-06-10 18:02:51 +0200$)


 With contributions from (in alphabetic order):
[Max-Planck-Institut fuer Kohlenforschung]                               
  Daniel Aravena         : Magnetic Suceptibility                        
  Michael Atanasov       : Ab Initio Ligand Field Theory (pilot matlab implementation)
  Alexander A. Auer      : GIAO ZORA, VPT2 properties, NMR spectrum      
  Ute Becker             : All parallelization in ORCA, NUMFREQ, NUMCALC 
  Giovanni Bistoni       : ED, misc. LED, open-shell LED, HFLD           
  Dmytro Bykov           : pre 5.0 version of the SCF Hessian            
  Marcos Casanova-Páez   : Triplet and SCS-CIS(D). UHF-(DLPNO)-IP/EA/STEOM-CCSD. UHF-CVS-IP/STEOM-CCSD   
  Vijay G. Chilkuri      : MRCI spin determinant printing, contributions to CSF-ICE 
  Pauline Colinet        : FMM embedding                                 
  Dipayan Datta          : RHF DLPNO-CCSD density                        
  Achintya Kumar Dutta   : EOM-CC, STEOM-CC                              
  Nicolas Foglia         : Exact transition moments, OPA infrastructure, MCD improvements    
  Dmitry Ganyushin       : Spin-Orbit,Spin-Spin,Magnetic field MRCI      
  Miquel Garcia-Rates    : C-PCM and meta-GGA Hessian, CCSD/C-PCM, Gaussian charge scheme 
  Tiago L. C. Gouveia    : GS-ROHF, GS-ROCIS                             
  Yang Guo               : DLPNO-NEVPT2, F12-NEVPT2, CIM, IAO-localization        
  Andreas Hansen         : Spin unrestricted coupled pair/coupled cluster methods 
  Ingolf Harden          : AUTO-CI MPn and infrastructure                
  Benjamin Helmich-Paris : MC-RPA, TRAH-(SCF,CASSCF), AVAS, COSX integrals, SCF dyn. polar., MC-PDFT, srDFT 
  Lee Huntington         : MR-EOM, pCC                                   
  Robert Izsak           : Overlap fitted RIJCOSX, COSX-SCS-MP3, EOM     
  Riya Kayal             : Wick's Theorem for AUTO-CI, AUTO-CI UHF-CCSDT 
  Emily Kempfer          : AUTO-CI RHF CISDT and CCSDT, approximate NEVPT4
  Christian Kollmar      : KDIIS, OOCD, Brueckner-CCSD(T), CCSD density, CASPT2, CASPT2-K, improved NEVPT2 
  Axel Koslowski         : Symmetry handling                             
  Simone Kossmann        : meta-GGA functionals, TD-DFT gradient, OOMP2, (MP2 Hessian; deprecated post 5.0) 
  Lucas Lang             : DCDCAS, Hyperfine gauge corrections, ICE-SOC+SSC
  Marvin Lechner         : AUTO-CI (C++ implementation), FIC-MRCC        
  Spencer Leger          : CASSCF response                               
  Dagmar Lenk            : GEPOL surface, SMD, ORCA-2-JSON               
  Dimitrios Liakos       : Extrapolation schemes; Compound Job, Property file
  Dimitrios Manganas     : Further ROCIS development; embedding schemes. LFT, Crystal Embedding 
  Dimitrios Pantazis     : SARC Basis sets                               
  Anastasios Papadopoulos: AUTO-CI, single reference methods and gradients 
  Taras Petrenko         : pre 6.0 DFT Hessian and TD-DFT gradient,  ECA, NRVS 
  Petra Pikulova         : Analytic Raman intensities                    
  Peter Pinski           : DLPNO-MP2, DLPNO-MP2 Gradient                 
  Shashank Vittal Rao    : ES-AILFT, MagRelax                            
  Christoph Reimann      : Effective Core Potentials                     
  Marius Retegan         : Local ZFS, SOC                                
  Christoph Riplinger    : Optimizer, TS searches, QM/MM, DLPNO-CCSD(T), (RO)-DLPNO pert. Triples 
  Michael Roemelt        : Original ROCIS implementation, recursive CI coupling coefficients
  Masaaki Saitow         : Open-shell DLPNO-CCSD energy and density      
  Barbara Sandhoefer     : DKH picture change effects                    
  Yorick L. A. Schmerwitz: GMF and freeze-and-release deltaSCF, NEB S-IDPP initial path                    
  Kantharuban Sivalingam : CASSCF convergence/infrastructure, NEVPT2, NEVPT3, NEVPT4(SD), FIC-MRCI and CEPA variants
  Bernardo de Souza      : ESD, SOC TD-DFT                               
  Georgi L. Stoychev     : AutoAux, RI-MP2 NMR, DLPNO-MP2 response, X2C  
  Van Anh Tran           : RI-MP2 g-tensors                              
  Willem Van den Heuvel  : Paramagnetic NMR                              
  Zikuan Wang            : NOTCH, Electric field optimization            
  Frank Wennmohs         : Technical directorship and infrastructure     
  Hang Xu                : AUTO-CI-Response properties                   
                                                                         
[FACCTs GmbH]                                                            
  Markus Bursch, Nicolas Foglia, Miquel Garcia-Rates, Ingolf Harden, Hagen Neugebauer, Anastasios Papadopoulos, 
  Christoph Riplinger, Bernardo de Souza, Georgi L. Stoychev                                                    
                                                                 
  APM, various basis sets, CI-OPT, improved COSX, DLPNO-Multilevel,           
  DOCKER, DRACO, updates on ESD, Fragmentator, GOAT, IRC, LR-CPCM, L-BFGS, MBIS, meta-GGA TD-DFT gradient, ML-optimized integration grids, 
  MM, NACMEs, nearIR, NEB, NEB-TS, NL-DFT gradient (VV10), 2- and 3-layer-ONIOM, interface openCOSMO-RS, QMMM,   
  Crystal-QMMM, RESP, rigid body optimization, SF, symmetry and pop. for TD-DFT, various functionals, SOLVATOR                                   
                                                                         
[Other institutions]                                                     
  V. Asgeirsson          : NEB                                           
  Christoph Bannwarth    : sTDA-DFT, sTD-DFT, PBEh-3c, B97-3c, D3        
  Giovanni Bistoni       : ETS/NOCV, ADLD/ADEX, COVALED                  
  Martin Brehm           : Molecular dynamics                            
  Ronald Cardenas        : ETS/NOCV                                      
  Martina Colucci        : COVALED                                       
  Sebastian Ehlert       : rSCAN, r2SCAN, r2SCAN-3c, D4, dhf basis sets  
  Marvin Friede          : D4 for Fr, Ra, Ac-Lr                          
  Lars Goerigk           : TD-DFT with DH, B97 family of functionals     
  Stefan Grimme          : VdW corrections, initial TS optimization, DFT functionals, gCP, sTDA/sTD-DF 
  Waldemar Hujo          : DFT-NL                                        
  H. Jonsson             : NEB                                           
  Holger Kruse           : gCP                                           
  Marcel Mueller         : wB97X-3c, vDZP basis set                      
  Hagen Neugebauer       : wr2SCAN, Native XTB                           
  Gianluca Regni         : ADLD/ADEX                                     
  Tobias Risthaus        : pre 6.0 range-separated hybrid DFT and stability analysis
  Lukas Wittmann         : regularized MP2, r2SCAN double-hybrids, wr2SCAN        
                                                                         
We gratefully acknowledge several colleagues who have allowed us to      
interface, adapt or use parts of their codes:                            
  Ed Valeev, F. Pavosevic, A. Kumar             : LibInt (2-el integral package), F12 methods 
  Garnet Chan, S. Sharma, J. Yang, R. Olivares  : DMRG                   
  Ulf Ekstrom                                   : XCFun DFT Library      
  Mihaly Kallay                                 : mrcc  (arbitrary order and MRCC methods)
  Frank Weinhold                                : gennbo (NPA and NBO analysis)           
  Simon Mueller                                 : openCOSMO-RS                            
  Christopher J. Cramer and Donald G. Truhlar   : smd solvation model                     
  S Lehtola, MJT Oliveira, MAL Marques          : LibXC Library                           
  Liviu Ungur et al                             : ANISO software                          


 Your calculation uses the libint2 library for the computation of 2-el integrals
 For citations please refer to: http://libint.valeyev.net

 Your ORCA version has been built with support for libXC version: 7.0.0
 For citations please refer to: https://libxc.gitlab.io

 This ORCA versions uses:
   CBLAS   interface :  Fast vector & matrix operations
   LAPACKE interface :  Fast linear algebra routines
   SCALAPACK package :  Parallel linear algebra routines
   Shared memory     :  Shared parallel matrices
   BLAS/LAPACK       :  OpenBLAS 0.3.29  USE64BITINT DYNAMIC_ARCH NO_AFFINITY Haswell SINGLE_THREADED
        Core in use  :  Haswell
   Copyright (c) 2011-2014, The OpenBLAS Project


  ***********************************
  * Starting time: Wed Aug  6 13:42:33 2025
  * Host name:     debian
  * Process ID:    181952
  * Working dir.:  /home/uni/mm-project/a
  ***********************************



***************************************
The coordinates will be read from file: a-input-coordinates.xyz
***************************************


Your calculation utilizes the semiempirical GFN2-xTB method
Please cite in your paper:
Bannwarth, C.; Ehlert S.; Grimme, S. J. Chem. Theory Comput. 2019, 15, 1652.
   

================================================================================

================================================================================
                                        WARNINGS
                       Please study these warnings very carefully!
================================================================================


================================================================================
 STARTING AUTOMATIC FRAGMENTATION: 
================================================================================

WARNING: Geometry Optimization
  ===> : Switching off AutoStart
         For restart on a previous wavefunction, please use MOREAD

WARNING: Found dipole moment calculation with XTB calculation
  ===> : Switching off dipole moment calculation


================================================================================
                                       INPUT FILE
================================================================================
NAME = a.inp
|  1> ! xtb goat
|  2> 
|  3> %pal
|  4>   nprocs=9
|  5> end
|  6> 
|  7> * xyzfile 0 1 a-input-coordinates.xyz
|  8> 
|  9>                          ****END OF INPUT****
================================================================================

                       *****************************
                       * Geometry Optimization Run *
                       *****************************


                       *********************************
                       *              GOAT             *
                       * Global Optimization Algorithm *
                       *********************************

Geometry optimization settings:
Update method            Update   .... BFGS
Choice of coordinates    CoordSys .... (2022) Redundant Internals
Initial Hessian          InHess   .... Almloef's Model
Max. no of cycles        MaxIter  .... 50

Convergence Tolerances:
Energy Change            TolE     ....  5.0000e-06 Eh
Max. Gradient            TolMAXG  ....  3.0000e-04 Eh/bohr
RMS Gradient             TolRMSG  ....  1.0000e-04 Eh/bohr
Max. Displacement        TolMAXD  ....  4.0000e-03 bohr
RMS Displacement         TolRMSD  ....  2.0000e-03 bohr
Strict Convergence                .... True

------------------------------------------------------------------------------
                        ORCA OPTIMIZATION COORDINATE SETUP
------------------------------------------------------------------------------

The optimization will be done in redundant internal coordinates (2022)
Making redundant internal coordinates   ...  (2022 redundants) done
Evaluating the initial hessian          ...  (Almloef) done
Evaluating the coordinates              ...  done
Calculating the B-matrix                .... done
Calculating the G-matrix                .... done
The number of degrees of freedom        ....   35

    -----------------------------------------------------------------
                    Redundant Internal Coordinates


    -----------------------------------------------------------------
         Definition                    Initial Value    Approx d2E/dq
    -----------------------------------------------------------------
      1. B(O   1,C   0)                  1.2236         1.031150   
      2. B(O   2,C   0)                  1.3544         0.637881   
      3. B(C   3,C   0)                  1.5303         0.373168   
      4. B(H   4,O   2)                  0.9753         0.491553   
      5. B(N   5,C   3)                  1.4675         0.420893   
      6. B(H   6,C   3)                  1.0942         0.354587   
      7. B(H   7,C   3)                  1.0938         0.355157   
      8. B(H   8,O   1)                  2.3905         0.010000   
      9. B(H   8,N   5)                  1.0251         0.409338   
     10. B(H   9,N   5)                  1.0180         0.420156   
     11. A(O   1,C   0,O   2)          122.2166         0.472288   
     12. A(O   2,C   0,C   3)          113.2542         0.396046   
     13. A(O   1,C   0,C   3)          124.4210         0.431306   
     14. A(C   0,O   2,H   4)          114.0610         0.368356   
     15. A(C   0,C   3,H   6)          107.7580         0.323441   
     16. A(N   5,C   3,H   6)          110.3108         0.327932   
     17. A(H   6,C   3,H   7)          109.6600         0.289508   
     18. A(N   5,C   3,H   7)          108.3353         0.328019   
     19. A(C   0,C   3,H   7)          109.7941         0.323526   
     20. A(C   0,C   3,N   5)          110.9772         0.368470   
     21. A(H   8,N   5,H   9)          106.3958         0.299176   
     22. A(C   3,N   5,H   9)          109.9260         0.334393   
     23. A(C   3,N   5,H   8)          108.2256         0.332948   
     24. D(H   4,O   2,C   0,C   3)     -3.7589         0.029981   
     25. D(H   4,O   2,C   0,O   1)    179.8679         0.029981   
     26. D(N   5,C   3,C   0,O   1)    -26.4538         0.010416   
     27. D(H   6,C   3,C   0,O   2)    -81.8608         0.010416   
     28. D(N   5,C   3,C   0,O   2)    157.2660         0.010416   
     29. D(H   7,C   3,C   0,O   1)   -146.1930         0.010416   
     30. D(H   6,C   3,C   0,O   1)     94.4194         0.010416   
     31. D(H   9,N   5,C   3,H   6)     34.5877         0.015105   
     32. D(H   9,N   5,C   3,C   0)    153.9422         0.015105   
     33. D(H   8,N   5,C   3,H   7)    158.7333         0.015105   
     34. D(H   8,N   5,C   3,H   6)    -81.2275         0.015105   
     35. D(H   8,N   5,C   3,C   0)     38.1270         0.015105   
    -----------------------------------------------------------------

Number of atoms                         .... 10
Number of degrees of freedom            .... 35


         *************************************************************
         *                GEOMETRY OPTIMIZATION CYCLE   1            *
         *************************************************************
---------------------------------
CARTESIAN COORDINATES (ANGSTROEM)
---------------------------------
  C    -4.397166    0.228712   -2.617495
  O    -4.147954    0.714354   -3.712618
  O    -3.471103    0.156934   -1.631827
  C    -5.727264   -0.430565   -2.246011
  H    -3.797889   -0.250323   -0.808088
  N    -6.825727    0.110228   -3.055075
  H    -5.625050   -1.506761   -2.415208
  H    -5.951778   -0.243455   -1.192019
  H    -6.477203    0.264499   -4.006700
  H    -7.572359   -0.577670   -3.130493

----------------------------
CARTESIAN COORDINATES (A.U.)
----------------------------
  NO LB    ZA    FRAG    MASS        X           Y           Z
   0 C   6.0000    1    12.011   -8.309440    0.432203   -4.946349
   1 O   8.0000    1    15.999   -7.838497    1.349933   -7.015831
   2 O   8.0000    1    15.999   -6.559434    0.296562   -3.083706
   3 C   6.0000    1    12.011  -10.822960   -0.813650   -4.244346
   4 H   1.0000    1     1.008   -7.176970   -0.473042   -1.527065
   5 N   7.0000    1    14.007  -12.898755    0.208301   -5.773255
   6 H   1.0000    1     1.008  -10.629804   -2.847366   -4.564082
   7 H   1.0000    1     1.008  -11.247230   -0.460063   -2.252589
   8 H   1.0000    1     1.008  -12.240140    0.499831   -7.571566
   9 H   1.0000    1     1.008  -14.309685   -1.091638   -5.915774

      -----------------------------------------------------------      
     |                   =====================                   |     
     |                           x T B                           |     
     |                   =====================                   |     
     |                         S. Grimme                         |     
     |          Mulliken Center for Theoretical Chemistry        |     
     |                    University of Bonn                     |     
      -----------------------------------------------------------      

   * xtb version 6.7.1 (edcfbbe) compiled by 'albert@albert-system' on 2024-07-22

   xtb is free software: you can redistribute it and/or modify it under
   the terms of the GNU Lesser General Public License as published by
   the Free Software Foundation, either version 3 of the License, or
   (at your option) any later version.
   
   xtb is distributed in the hope that it will be useful,
   but WITHOUT ANY WARRANTY; without even the implied warranty of
   MERCHANTABILITY or FITNESS FOR A PARTICULAR PURPOSE.  See the
   GNU Lesser General Public License for more details.
   
   Cite this work as:
   * C. Bannwarth, E. Caldeweyher, S. Ehlert, A. Hansen, P. Pracht,
     J. Seibert, S. Spicher, S. Grimme, WIREs Comput. Mol. Sci., 2020, 11,
     e01493. DOI: 10.1002/wcms.1493
   
   for GFN2-xTB:
   * C. Bannwarth, S. Ehlert and S. Grimme., J. Chem. Theory Comput., 2019,
     15, 1652-1671. DOI: 10.1021/acs.jctc.8b01176
   for GFN1-xTB:
   * S. Grimme, C. Bannwarth, P. Shushkov, J. Chem. Theory Comput., 2017,
     13, 1989-2009. DOI: 10.1021/acs.jctc.7b00118
   for GFN0-xTB:
   * P. Pracht, E. Caldeweyher, S. Ehlert, S. Grimme, ChemRxiv, 2019, preprint.
     DOI: 10.26434/chemrxiv.8326202.v1
   for GFN-FF:
   * S. Spicher and S. Grimme, Angew. Chem. Int. Ed., 2020, 59, 15665-15673.
     DOI: 10.1002/anie.202004239
   
   for ALPB and GBSA implicit solvation:
   * S. Ehlert, M. Stahn, S. Spicher, S. Grimme, J. Chem. Theory Comput.,
     2021, 17, 4250-4261. DOI: 10.1021/acs.jctc.1c00471
   
   for ddCOSMO and CPCM-X implicit solvation:
   * M. Stahn, S. Ehlert, S. Grimme, J. Phys. Chem. A,
     2023, XX, XXXX-XXXX. DOI: 10.1021/acs.jpca.3c04382
   
   for DFT-D4:
   * E. Caldeweyher, C. Bannwarth and S. Grimme, J. Chem. Phys., 2017,
     147, 034112. DOI: 10.1063/1.4993215
   * E. Caldeweyher, S. Ehlert, A. Hansen, H. Neugebauer, S. Spicher,
     C. Bannwarth and S. Grimme, J. Chem. Phys., 2019, 150, 154122.
     DOI: 10.1063/1.5090222
   * E. Caldeweyher, J.-M. Mewes, S. Ehlert and S. Grimme, Phys. Chem. Chem. Phys.
     2020, 22, 8499-8512. DOI: 10.1039/D0CP00502A
   
   for sTDA-xTB:
   * S. Grimme and C. Bannwarth, J. Chem. Phys., 2016, 145, 054103.
     DOI: 10.1063/1.4959605
   
   in the mass-spec context:
   * V. Asgeirsson, C. Bauer and S. Grimme, Chem. Sci., 2017, 8, 4879.
     DOI: 10.1039/c7sc00601b
   * J. Koopman and S. Grimme, ACS Omega 2019, 4, 12, 15120-15133.
     DOI: 10.1021/acsomega.9b02011
   
   for metadynamics refer to:
   * S. Grimme, J. Chem. Theory Comput., 2019, 155, 2847-2862
     DOI: 10.1021/acs.jctc.9b00143
   
   for SPH calculations refer to:
   * S. Spicher and S. Grimme, J. Chem. Theory Comput., 2021, 17, 1701-1714
     DOI: 10.1021/acs.jctc.0c01306
   
   for ONIOM refer to:
   * C. Plett, A. Katbashev, S. Ehlert, S. Grimme, M. Bursch,
     Phys. Chem. Chem. Phys., 2023, 25, 17860-17868. DOI: 10.1039/D3CP02178E
   
   for DIPRO refer to:
   * J. Kohn, N. Gildemeister, S. Grimme, D. Fazzi, A. Hansen,
     J. Chem. Phys., 2023, just accepted.
   
   for PTB refer to:
   * S. Grimme, M. Mueller, A. Hansen, J. Chem. Phys., 2023, 158, 124111.
     DOI: 10.1063/5.0137838
   
   with help from (in alphabetical order)
   P. Atkinson, C. Bannwarth, F. Bohle, G. Brandenburg, E. Caldeweyher
   M. Checinski, S. Dohm, S. Ehlert, S. Ehrlich, I. Gerasimov, C. Hölzer
   A. Katbashev, J. Kohn, J. Koopman, C. Lavigne, S. Lehtola, F. März, M. Müller,
   F. Musil, H. Neugebauer, J. Pisarek, C. Plett, P. Pracht, F. Pultar,
   J. Seibert, P. Shushkov, S. Spicher, M. Stahn, M. Steiner, T. Strunk,
   J. Stückrath, T. Rose, and J. Unsleber
   
 * started run on 2025/08/06 at 13:42:34.646     
   ID    Z sym.   atoms
    1    6 C      1, 4
    2    8 O      2, 3
    3    1 H      5, 7-10
    4    7 N      6

           -------------------------------------------------
          |                Calculation Setup                |
           -------------------------------------------------

          program call               : /home/uni/orca_6_1_0/otool_xtb a_XTB.xyz --grad -c 0 -u 0 -P 9 --namespace a --input a_XTB.input.tmp --acc 0.200000
          calculation namespace      : a
          coordinate file            : a_XTB.xyz
          omp threads                :                     9


           -------------------------------------------------
          |                 G F N 2 - x T B                 |
           -------------------------------------------------

        Reference                      10.1021/acs.jctc.8b01176
      * Hamiltonian:
        H0-scaling (s, p, d)           1.850000    2.230000    2.230000
        zeta-weighting                 0.500000
      * Dispersion:
        s8                             2.700000
        a1                             0.520000
        a2                             5.000000
        s9                             5.000000
      * Repulsion:
        kExp                           1.500000    1.000000
        rExp                           1.000000
      * Coulomb:
        alpha                          2.000000
        third order                    shell-resolved
        anisotropic                    true
        a3                             3.000000
        a5                             4.000000
        cn-shift                       1.200000
        cn-exp                         4.000000
        max-rad                        5.000000


          ...................................................
          :                      SETUP                      :
          :.................................................:
          :  # basis functions                  25          :
          :  # atomic orbitals                  25          :
          :  # shells                           15          :
          :  # electrons                        30          :
          :  max. iterations                   250          :
          :  Hamiltonian                  GFN2-xTB          :
          :  restarted?                      false          :
          :  GBSA solvation                  false          :
          :  PC potential                    false          :
          :  electronic temp.          300.0000000     K    :
          :  accuracy                    0.2000000          :
          :  -> integral cutoff          0.3198970E+02      :
          :  -> integral neglect         0.2000000E-08      :
          :  -> SCF convergence          0.2000000E-06 Eh   :
          :  -> wf. convergence          0.2000000E-04 e    :
          :  Broyden damping             0.4000000          :
          :  net charge                          0          :
          :  unpaired electrons                  0          :
          ...................................................

 iter      E             dE          RMSdq      gap      omega  full diag
   1    -17.9697773 -0.179698E+02  0.467E+00    4.04       0.0  T
   2    -18.0044037 -0.346264E-01  0.239E+00    3.69       1.0  T
   3    -18.0066624 -0.225869E-02  0.138E+00    4.03       1.0  T
   4    -18.0096354 -0.297301E-02  0.207E-01    3.67       1.0  T
   5    -18.0098054 -0.170036E-03  0.762E-02    3.63       1.0  T
   6    -18.0098123 -0.690083E-05  0.329E-02    3.63       1.0  T
   7    -18.0098133 -0.101524E-05  0.802E-03    3.63       3.9  T
   8    -18.0098134 -0.787844E-07  0.364E-03    3.63       8.7  T
   9    -18.0098135 -0.405680E-07  0.164E-03    3.63      19.3  T
  10    -18.0098135 -0.187385E-07  0.452E-04    3.63      69.9  T
  11    -18.0098135 -0.552465E-09  0.204E-04    3.63     155.3  T
  12    -18.0098135 -0.258300E-09  0.119E-05    3.63    2667.1  T
  13    -18.0098135 -0.287770E-12  0.184E-06    3.63   17144.8  T

   *** convergence criteria satisfied after 13 iterations ***

         #    Occupation            Energy/Eh            Energy/eV
      -------------------------------------------------------------
         1        2.0000           -0.7513891             -20.4463
       ...           ...                  ...                  ...
         9        2.0000           -0.5345319             -14.5454
        10        2.0000           -0.5301915             -14.4272
        11        2.0000           -0.5051763             -13.7465
        12        2.0000           -0.4862777             -13.2323
        13        2.0000           -0.4815184             -13.1028
        14        2.0000           -0.4284502             -11.6587
        15        2.0000           -0.3865004             -10.5172 (HOMO)
        16                         -0.2531610              -6.8889 (LUMO)
        17                          0.0059226               0.1612
        18                          0.0486659               1.3243
        19                          0.0648221               1.7639
        20                          0.1137448               3.0952
       ...                                ...                  ...
        25                          0.5535394              15.0626
      -------------------------------------------------------------
                  HL-Gap            0.1333394 Eh            3.6284 eV
             Fermi-level           -0.3198307 Eh           -8.7030 eV

 SCC (total)                   0 d,  0 h,  0 min,  0.006 sec
 SCC setup                      ...        0 min,  0.000 sec (  2.118%)
 Dispersion                     ...        0 min,  0.000 sec (  1.166%)
 classical contributions        ...        0 min,  0.000 sec (  0.540%)
 integral evaluation            ...        0 min,  0.000 sec (  5.617%)
 iterations                     ...        0 min,  0.005 sec ( 79.263%)
 molecular gradient             ...        0 min,  0.001 sec (  9.261%)
 printout                       ...        0 min,  0.000 sec (  1.773%)

         :::::::::::::::::::::::::::::::::::::::::::::::::::::
         ::                     SUMMARY                     ::
         :::::::::::::::::::::::::::::::::::::::::::::::::::::
         :: total energy             -17.860878371247 Eh    ::
         :: gradient norm              0.061443499236 Eh/a0 ::
         :: HOMO-LUMO gap              3.628350084394 eV    ::
         ::.................................................::
         :: SCC energy               -18.009811822624 Eh    ::
         :: -> isotropic ES            0.057220459471 Eh    ::
         :: -> anisotropic ES          0.004396859714 Eh    ::
         :: -> anisotropic XC          0.005460405552 Eh    ::
         :: -> dispersion             -0.004404513117 Eh    ::
         :: repulsion energy           0.148933451377 Eh    ::
         :: add. restraining           0.000000000000 Eh    ::
         :: total charge               0.000000000000 e     ::
         :::::::::::::::::::::::::::::::::::::::::::::::::::::


Property printout bound to 'properties.out'

           -------------------------------------------------
          | TOTAL ENERGY              -17.860878371247 Eh   |
          | GRADIENT NORM               0.061443499236 Eh/α |
          | HOMO-LUMO GAP               3.628350084394 eV   |
           -------------------------------------------------

------------------------------------------------------------------------
 * finished run on 2025/08/06 at 13:42:34.658     
------------------------------------------------------------------------
 total:
 * wall-time:     0 d,  0 h,  0 min,  0.012 sec
 *  cpu-time:     0 d,  0 h,  0 min,  0.016 sec
 * ratio c/w:     1.252 speedup
 SCF:
 * wall-time:     0 d,  0 h,  0 min,  0.006 sec
 *  cpu-time:     0 d,  0 h,  0 min,  0.009 sec
 * ratio c/w:     1.407 speedup


-------------------------   --------------------
FINAL SINGLE POINT ENERGY       -17.860878371250
-------------------------   --------------------


-------------
DIPOLE MOMENT
-------------
                                X             Y             Z
Total Dipole Moment    :     -0.71200      -1.39200       1.15600
                        -----------------------------------------
Magnitude (a.u.)       :      1.94446
Magnitude (Debye)      :      4.94244


------------------
CARTESIAN GRADIENT
------------------

   1   C   :   -0.009298622   -0.008071766    0.026420864
   2   O   :    0.009492341    0.018216076   -0.043657633
   3   O   :    0.004440576   -0.001303279    0.005351786
   4   C   :    0.007115192   -0.010287315    0.011181889
   5   H   :   -0.000802641   -0.003366971    0.007934368
   6   N   :   -0.006039475    0.003932238    0.004385321
   7   H   :   -0.005623445    0.004834809   -0.002888601
   8   H   :    0.000540882    0.000679193   -0.000777537
   9   H   :    0.001084884   -0.001999663   -0.006300036
  10   H   :   -0.000909693   -0.002633324   -0.001650422

Difference to translation invariance:
           :   -0.0000000000    0.0000000000   -0.0000000000

Difference to rotation invariance:
           :   -0.0000000061   -0.0000000006    0.0000000025

Norm of the Cartesian gradient     ...    0.0614434992
RMS gradient                       ...    0.0112179968
MAX gradient                       ...    0.0436576330
------------------------------------------------------------------------------
                         ORCA GEOMETRY RELAXATION STEP
------------------------------------------------------------------------------

Reading the OPT-File                    .... done
Getting information on internals        .... done
Copying old internal coords+grads       .... done
Making the new internal coordinates     .... (2022 redundants) done
Validating the new internal coordinates .... (2022 redundants) done
Calculating the B-matrix                .... done
Calculating the G,G- and P matrices     .... done
Transforming gradient to internals      .... done
Projecting the internal gradient        .... done
Number of atoms                         ....  10
Number of internal coordinates          ....  35
Current Energy                          ....   -17.860878371 Eh
Current gradient norm                   ....     0.061443499 Eh/bohr
Maximum allowed component of the step   ....  0.300
Current trust radius                    ....  0.300
Evaluating the initial hessian          ....  (Almloef) done
Projecting the Hessian                  .... done
Forming the augmented Hessian           .... done
Diagonalizing the augmented Hessian     .... done
Last element of RFO vector              ....  0.992091968
Lowest eigenvalues of augmented Hessian:
 -0.003926844  0.010412263  0.014362223  0.016295085  0.029981939
Length of the computed step             ....  0.126513526
The final length of the internal step   ....  0.126513526
Converting the step to Cartesian space:
 Initial RMS(Int)=    0.0213846890
Transforming coordinates:
 Iter   0:  RMS(Cart)=    0.0264826322 RMS(Int)=    0.0213340136
done
Storing new coordinates                 .... done

                                .--------------------.
          ----------------------|Geometry convergence|-------------------------
          Item                value                   Tolerance       Converged
          ---------------------------------------------------------------------
          RMS gradient        0.0090679834            0.0001000000      NO
          MAX gradient        0.0478517255            0.0003000000      NO
          RMS step            0.0213846890            0.0020000000      NO
          MAX step            0.0627866415            0.0040000000      NO
          -------------------------------------------------------------------------
          ........................................................
          Max(Bonds)      0.0332      Max(Angles)    1.56
          Max(Dihed)        2.04      Max(Improp)    0.00
          ---------------------------------------------------------------------

    ---------------------------------------------------------------------------
                         Redundant Internal Coordinates
                            (Angstroem and degrees)

        Definition                    Value    dE/dq     Step     New-Value
    ----------------------------------------------------------------------------
     1. B(O   1,C   0)                1.2236  0.047852 -0.0246    1.1990   
     2. B(O   2,C   0)                1.3544  0.012404 -0.0102    1.3441   
     3. B(C   3,C   0)                1.5303  0.004531 -0.0082    1.5221   
     4. B(H   4,O   2)                0.9753  0.008376 -0.0089    0.9663   
     5. B(N   5,C   3)                1.4675  0.004381 -0.0068    1.4607   
     6. B(H   6,C   3)                1.0942 -0.004834  0.0071    1.1013   
     7. B(H   7,C   3)                1.0938 -0.000744  0.0011    1.0949   
     8. B(H   8,O   1)                2.3905  0.002357 -0.0332    2.3572   
     9. B(H   8,N   5)                1.0251  0.006495 -0.0079    1.0173   
    10. B(H   9,N   5)                1.0180  0.002569 -0.0032    1.0148   
    11. A(O   1,C   0,O   2)          122.22  0.007393   -0.76    121.45   
    12. A(O   2,C   0,C   3)          113.25 -0.008011    1.30    114.55   
    13. A(O   1,C   0,C   3)          124.42  0.000528   -0.37    124.05   
    14. A(C   0,O   2,H   4)          114.06  0.004015   -0.62    113.44   
    15. A(C   0,C   3,H   6)          107.76  0.004657   -0.82    106.93   
    16. A(N   5,C   3,H   6)          110.31 -0.005146    1.56    111.88   
    17. A(H   6,C   3,H   7)          109.66  0.001702   -0.50    109.16   
    18. A(N   5,C   3,H   7)          108.34  0.001568   -0.14    108.20   
    19. A(C   0,C   3,H   7)          109.79 -0.000631    0.07    109.87   
    20. A(C   0,C   3,N   5)          110.98 -0.002142   -0.18    110.79   
    21. A(H   8,N   5,H   9)          106.40 -0.000340    0.79    107.19   
    22. A(C   3,N   5,H   9)          109.93 -0.000676    0.41    110.34   
    23. A(C   3,N   5,H   8)          108.23 -0.003877    0.55    108.78   
    24. D(H   4,O   2,C   0,C   3)     -3.76 -0.000625    1.09     -2.67   
    25. D(H   4,O   2,C   0,O   1)    179.87  0.000904   -1.56    178.31   
    26. D(N   5,C   3,C   0,O   1)    -26.45  0.001421    0.66    -25.80   
    27. D(H   6,C   3,C   0,O   2)    -81.86 -0.001932   -0.75    -82.61   
    28. D(N   5,C   3,C   0,O   2)    157.27  0.002710   -2.04    155.22   
    29. D(H   7,C   3,C   0,O   1)   -146.19  0.001235    0.90   -145.30   
    30. D(H   6,C   3,C   0,O   1)     94.42 -0.003221    1.94     96.36   
    31. D(H   9,N   5,C   3,H   6)     34.59 -0.002175    0.09     34.68   
    32. D(H   9,N   5,C   3,C   0)    153.94 -0.001072   -0.04    153.90   
    33. D(H   8,N   5,C   3,H   7)    158.73  0.000795   -1.63    157.11   
    34. D(H   8,N   5,C   3,H   6)    -81.23  0.000774   -1.39    -82.61   
    35. D(H   8,N   5,C   3,C   0)     38.13  0.001878   -1.52     36.61   
    ----------------------------------------------------------------------------

Geometry step timings:
Preparation and reading OPT file:      0.000 s ( 3.058 %)
Internal coordinates            :      0.000 s ( 2.518 %)
B/P matrices and projection     :      0.000 s (28.597 %)
Hessian update/contruction      :      0.000 s (11.331 %)
Making the step                 :      0.000 s (22.482 %)
Converting the step to Cartesian:      0.000 s ( 4.676 %)
Storing new data                :      0.000 s ( 2.338 %)
Checking convergence            :      0.000 s ( 2.698 %)
Final printing                  :      0.000 s (22.302 %)
Total time                      :      0.001 s

Time for energy+gradient        :      0.016 s
Time for complete geometry iter :      0.017 s

         *************************************************************
         *                GEOMETRY OPTIMIZATION CYCLE   2            *
         *************************************************************
---------------------------------
CARTESIAN COORDINATES (ANGSTROEM)
---------------------------------
  C    -4.401271    0.204091   -2.618392
  O    -4.165422    0.691019   -3.688418
  O    -3.476874    0.173495   -1.643076
  C    -5.729309   -0.442388   -2.250905
  H    -3.797667   -0.221580   -0.821595
  N    -6.815746    0.111465   -3.055037
  H    -5.613118   -1.526124   -2.408875
  H    -5.954921   -0.255222   -1.196019
  H    -6.468604    0.292772   -3.993892
  H    -7.570561   -0.561576   -3.139325

----------------------------
CARTESIAN COORDINATES (A.U.)
----------------------------
  NO LB    ZA    FRAG    MASS        X           Y           Z
   0 C   6.0000    1    12.011   -8.317196    0.385677   -4.948044
   1 O   8.0000    1    15.999   -7.871508    1.305836   -6.970100
   2 O   8.0000    1    15.999   -6.570339    0.327858   -3.104963
   3 C   6.0000    1    12.011  -10.826826   -0.835992   -4.253594
   4 H   1.0000    1     1.008   -7.176551   -0.418725   -1.552589
   5 N   7.0000    1    14.007  -12.879893    0.210638   -5.773183
   6 H   1.0000    1     1.008  -10.607256   -2.883956   -4.552114
   7 H   1.0000    1     1.008  -11.253171   -0.482300   -2.260149
   8 H   1.0000    1     1.008  -12.223889    0.553259   -7.547363
   9 H   1.0000    1     1.008  -14.306287   -1.061225   -5.932464

      -----------------------------------------------------------      
     |                   =====================                   |     
     |                           x T B                           |     
     |                   =====================                   |     
     |                         S. Grimme                         |     
     |          Mulliken Center for Theoretical Chemistry        |     
     |                    University of Bonn                     |     
      -----------------------------------------------------------      

   * xtb version 6.7.1 (edcfbbe) compiled by 'albert@albert-system' on 2024-07-22

   xtb is free software: you can redistribute it and/or modify it under
   the terms of the GNU Lesser General Public License as published by
   the Free Software Foundation, either version 3 of the License, or
   (at your option) any later version.
   
   xtb is distributed in the hope that it will be useful,
   but WITHOUT ANY WARRANTY; without even the implied warranty of
   MERCHANTABILITY or FITNESS FOR A PARTICULAR PURPOSE.  See the
   GNU Lesser General Public License for more details.
   
   Cite this work as:
   * C. Bannwarth, E. Caldeweyher, S. Ehlert, A. Hansen, P. Pracht,
     J. Seibert, S. Spicher, S. Grimme, WIREs Comput. Mol. Sci., 2020, 11,
     e01493. DOI: 10.1002/wcms.1493
   
   for GFN2-xTB:
   * C. Bannwarth, S. Ehlert and S. Grimme., J. Chem. Theory Comput., 2019,
     15, 1652-1671. DOI: 10.1021/acs.jctc.8b01176
   for GFN1-xTB:
   * S. Grimme, C. Bannwarth, P. Shushkov, J. Chem. Theory Comput., 2017,
     13, 1989-2009. DOI: 10.1021/acs.jctc.7b00118
   for GFN0-xTB:
   * P. Pracht, E. Caldeweyher, S. Ehlert, S. Grimme, ChemRxiv, 2019, preprint.
     DOI: 10.26434/chemrxiv.8326202.v1
   for GFN-FF:
   * S. Spicher and S. Grimme, Angew. Chem. Int. Ed., 2020, 59, 15665-15673.
     DOI: 10.1002/anie.202004239
   
   for ALPB and GBSA implicit solvation:
   * S. Ehlert, M. Stahn, S. Spicher, S. Grimme, J. Chem. Theory Comput.,
     2021, 17, 4250-4261. DOI: 10.1021/acs.jctc.1c00471
   
   for ddCOSMO and CPCM-X implicit solvation:
   * M. Stahn, S. Ehlert, S. Grimme, J. Phys. Chem. A,
     2023, XX, XXXX-XXXX. DOI: 10.1021/acs.jpca.3c04382
   
   for DFT-D4:
   * E. Caldeweyher, C. Bannwarth and S. Grimme, J. Chem. Phys., 2017,
     147, 034112. DOI: 10.1063/1.4993215
   * E. Caldeweyher, S. Ehlert, A. Hansen, H. Neugebauer, S. Spicher,
     C. Bannwarth and S. Grimme, J. Chem. Phys., 2019, 150, 154122.
     DOI: 10.1063/1.5090222
   * E. Caldeweyher, J.-M. Mewes, S. Ehlert and S. Grimme, Phys. Chem. Chem. Phys.
     2020, 22, 8499-8512. DOI: 10.1039/D0CP00502A
   
   for sTDA-xTB:
   * S. Grimme and C. Bannwarth, J. Chem. Phys., 2016, 145, 054103.
     DOI: 10.1063/1.4959605
   
   in the mass-spec context:
   * V. Asgeirsson, C. Bauer and S. Grimme, Chem. Sci., 2017, 8, 4879.
     DOI: 10.1039/c7sc00601b
   * J. Koopman and S. Grimme, ACS Omega 2019, 4, 12, 15120-15133.
     DOI: 10.1021/acsomega.9b02011
   
   for metadynamics refer to:
   * S. Grimme, J. Chem. Theory Comput., 2019, 155, 2847-2862
     DOI: 10.1021/acs.jctc.9b00143
   
   for SPH calculations refer to:
   * S. Spicher and S. Grimme, J. Chem. Theory Comput., 2021, 17, 1701-1714
     DOI: 10.1021/acs.jctc.0c01306
   
   for ONIOM refer to:
   * C. Plett, A. Katbashev, S. Ehlert, S. Grimme, M. Bursch,
     Phys. Chem. Chem. Phys., 2023, 25, 17860-17868. DOI: 10.1039/D3CP02178E
   
   for DIPRO refer to:
   * J. Kohn, N. Gildemeister, S. Grimme, D. Fazzi, A. Hansen,
     J. Chem. Phys., 2023, just accepted.
   
   for PTB refer to:
   * S. Grimme, M. Mueller, A. Hansen, J. Chem. Phys., 2023, 158, 124111.
     DOI: 10.1063/5.0137838
   
   with help from (in alphabetical order)
   P. Atkinson, C. Bannwarth, F. Bohle, G. Brandenburg, E. Caldeweyher
   M. Checinski, S. Dohm, S. Ehlert, S. Ehrlich, I. Gerasimov, C. Hölzer
   A. Katbashev, J. Kohn, J. Koopman, C. Lavigne, S. Lehtola, F. März, M. Müller,
   F. Musil, H. Neugebauer, J. Pisarek, C. Plett, P. Pracht, F. Pultar,
   J. Seibert, P. Shushkov, S. Spicher, M. Stahn, M. Steiner, T. Strunk,
   J. Stückrath, T. Rose, and J. Unsleber
   
 * started run on 2025/08/06 at 13:42:34.663     
   ID    Z sym.   atoms
    1    6 C      1, 4
    2    8 O      2, 3
    3    1 H      5, 7-10
    4    7 N      6

           -------------------------------------------------
          |                Calculation Setup                |
           -------------------------------------------------

          program call               : /home/uni/orca_6_1_0/otool_xtb a_XTB.xyz --grad -c 0 -u 0 -P 9 --namespace a --input a_XTB.input.tmp --acc 0.200000
          calculation namespace      : a
          coordinate file            : a_XTB.xyz
          omp threads                :                     9


           -------------------------------------------------
          |                 G F N 2 - x T B                 |
           -------------------------------------------------

        Reference                      10.1021/acs.jctc.8b01176
      * Hamiltonian:
        H0-scaling (s, p, d)           1.850000    2.230000    2.230000
        zeta-weighting                 0.500000
      * Dispersion:
        s8                             2.700000
        a1                             0.520000
        a2                             5.000000
        s9                             5.000000
      * Repulsion:
        kExp                           1.500000    1.000000
        rExp                           1.000000
      * Coulomb:
        alpha                          2.000000
        third order                    shell-resolved
        anisotropic                    true
        a3                             3.000000
        a5                             4.000000
        cn-shift                       1.200000
        cn-exp                         4.000000
        max-rad                        5.000000

q/qsh data taken from xtbrestart
CAMM data taken from xtbrestart

          ...................................................
          :                      SETUP                      :
          :.................................................:
          :  # basis functions                  25          :
          :  # atomic orbitals                  25          :
          :  # shells                           15          :
          :  # electrons                        30          :
          :  max. iterations                   250          :
          :  Hamiltonian                  GFN2-xTB          :
          :  restarted?                       true          :
          :  GBSA solvation                  false          :
          :  PC potential                    false          :
          :  electronic temp.          300.0000000     K    :
          :  accuracy                    0.2000000          :
          :  -> integral cutoff          0.3198970E+02      :
          :  -> integral neglect         0.2000000E-08      :
          :  -> SCF convergence          0.2000000E-06 Eh   :
          :  -> wf. convergence          0.2000000E-04 e    :
          :  Broyden damping             0.4000000          :
          :  net charge                          0          :
          :  unpaired electrons                  0          :
          ...................................................

 iter      E             dE          RMSdq      gap      omega  full diag
   1    -18.0233323 -0.180233E+02  0.175E-01    3.91       0.0  T
   2    -18.0233746 -0.422749E-04  0.109E-01    3.85       1.0  T
   3    -18.0233748 -0.209911E-06  0.504E-02    3.86       1.0  T
   4    -18.0233806 -0.583324E-05  0.772E-03    3.84       4.1  T
   5    -18.0233807 -0.839978E-07  0.400E-03    3.85       7.9  T
   6    -18.0233807 -0.205427E-07  0.162E-03    3.85      19.6  T
   7    -18.0233807 -0.177825E-08  0.632E-04    3.85      50.0  T
   8    -18.0233807 -0.345619E-09  0.956E-05    3.85     330.9  T
   9    -18.0233807 -0.717648E-11  0.365E-05    3.85     867.2  T

   *** convergence criteria satisfied after 9 iterations ***

         #    Occupation            Energy/Eh            Energy/eV
      -------------------------------------------------------------
         1        2.0000           -0.7537096             -20.5095
       ...           ...                  ...                  ...
         9        2.0000           -0.5343604             -14.5407
        10        2.0000           -0.5304588             -14.4345
        11        2.0000           -0.5048285             -13.7371
        12        2.0000           -0.4865949             -13.2409
        13        2.0000           -0.4836058             -13.1596
        14        2.0000           -0.4278515             -11.6424
        15        2.0000           -0.3851046             -10.4792 (HOMO)
        16                         -0.2437339              -6.6323 (LUMO)
        17                          0.0181456               0.4938
        18                          0.0601871               1.6378
        19                          0.0804300               2.1886
        20                          0.1159167               3.1543
       ...                                ...                  ...
        25                          0.6307212              17.1628
      -------------------------------------------------------------
                  HL-Gap            0.1413707 Eh            3.8469 eV
             Fermi-level           -0.3144193 Eh           -8.5558 eV

 SCC (total)                   0 d,  0 h,  0 min,  0.006 sec
 SCC setup                      ...        0 min,  0.000 sec (  1.942%)
 Dispersion                     ...        0 min,  0.000 sec (  1.925%)
 classical contributions        ...        0 min,  0.000 sec (  1.869%)
 integral evaluation            ...        0 min,  0.000 sec (  4.732%)
 iterations                     ...        0 min,  0.004 sec ( 74.908%)
 molecular gradient             ...        0 min,  0.001 sec ( 13.262%)
 printout                       ...        0 min,  0.000 sec (  1.055%)

         :::::::::::::::::::::::::::::::::::::::::::::::::::::
         ::                     SUMMARY                     ::
         :::::::::::::::::::::::::::::::::::::::::::::::::::::
         :: total energy             -17.863278665799 Eh    ::
         :: gradient norm              0.015357301408 Eh/a0 ::
         :: HOMO-LUMO gap              3.846892570605 eV    ::
         ::.................................................::
         :: SCC energy               -18.023379157205 Eh    ::
         :: -> isotropic ES            0.056674995176 Eh    ::
         :: -> anisotropic ES          0.004222839621 Eh    ::
         :: -> anisotropic XC          0.004913674545 Eh    ::
         :: -> dispersion             -0.004424642749 Eh    ::
         :: repulsion energy           0.160100491406 Eh    ::
         :: add. restraining           0.000000000000 Eh    ::
         :: total charge               0.000000000000 e     ::
         :::::::::::::::::::::::::::::::::::::::::::::::::::::


Property printout bound to 'properties.out'

           -------------------------------------------------
          | TOTAL ENERGY              -17.863278665799 Eh   |
          | GRADIENT NORM               0.015357301408 Eh/α |
          | HOMO-LUMO GAP               3.846892570605 eV   |
           -------------------------------------------------

------------------------------------------------------------------------
 * finished run on 2025/08/06 at 13:42:34.676     
------------------------------------------------------------------------
 total:
 * wall-time:     0 d,  0 h,  0 min,  0.012 sec
 *  cpu-time:     0 d,  0 h,  0 min,  0.015 sec
 * ratio c/w:     1.248 speedup
 SCF:
 * wall-time:     0 d,  0 h,  0 min,  0.006 sec
 *  cpu-time:     0 d,  0 h,  0 min,  0.008 sec
 * ratio c/w:     1.345 speedup


-------------------------   --------------------
FINAL SINGLE POINT ENERGY       -17.863278665800
-------------------------   --------------------


-------------
DIPOLE MOMENT
-------------
                                X             Y             Z
Total Dipole Moment    :     -0.69700      -1.35800       1.11300
                        -----------------------------------------
Magnitude (a.u.)       :      1.88911
Magnitude (Debye)      :      4.80174


------------------
CARTESIAN GRADIENT
------------------

   1   C   :   -0.000895452   -0.003945854    0.003979353
   2   O   :    0.001766950    0.004210541   -0.006530871
   3   O   :   -0.001277530    0.000020521    0.001597560
   4   C   :    0.006607903   -0.003205365    0.005463673
   5   H   :    0.000193680   -0.000119925    0.000572140
   6   N   :   -0.003861848    0.003374901    0.000080848
   7   H   :   -0.002684285    0.001743841   -0.002230340
   8   H   :    0.000484186    0.001056791   -0.000864940
   9   H   :   -0.000706486   -0.002044686   -0.001088953
  10   H   :    0.000372882   -0.001090765   -0.000978471

Difference to translation invariance:
           :    0.0000000000   -0.0000000000    0.0000000000

Difference to rotation invariance:
           :   -0.0000000738    0.0000002415    0.0000000185

Norm of the Cartesian gradient     ...    0.0153573014
RMS gradient                       ...    0.0028038468
MAX gradient                       ...    0.0066079031
------------------------------------------------------------------------------
                         ORCA GEOMETRY RELAXATION STEP
------------------------------------------------------------------------------

Reading the OPT-File                    .... done
Getting information on internals        .... done
Copying old internal coords+grads       .... done
Making the new internal coordinates     .... (2022 redundants) done
Validating the new internal coordinates .... (2022 redundants) done
Calculating the B-matrix                .... done
Calculating the G,G- and P matrices     .... done
Transforming gradient to internals      .... done
Projecting the internal gradient        .... done
Number of atoms                         ....  10
Number of internal coordinates          ....  35
Current Energy                          ....   -17.863278666 Eh
Current gradient norm                   ....     0.015357301 Eh/bohr
Maximum allowed component of the step   ....  0.300
Current trust radius                    ....  0.300
Updating the Hessian (BFGS)             .... done
Forming the augmented Hessian           .... done
Diagonalizing the augmented Hessian     .... done
Last element of RFO vector              ....  0.987718468
Lowest eigenvalues of augmented Hessian:
 -0.000813894  0.010401967  0.014063090  0.017770102  0.029988080
Length of the computed step             ....  0.158186910
The final length of the internal step   ....  0.158186910
Converting the step to Cartesian space:
 Initial RMS(Int)=    0.0267384680
Transforming coordinates:
 Iter   0:  RMS(Cart)=    0.0276673767 RMS(Int)=    1.0549307297
done
Storing new coordinates                 .... done
The predicted energy change is          ....    -0.000417130
Previously predicted energy change      ....    -0.001994848
Actually observed energy change         ....    -0.002400295
Ratio of predicted to observed change   ....     1.203246833
New trust radius                        ....     0.450000000

                                .--------------------.
          ----------------------|Geometry convergence|-------------------------
          Item                value                   Tolerance       Converged
          ---------------------------------------------------------------------
          Energy change      -0.0024002946            0.0000050000      NO
          RMS gradient        0.0018936992            0.0001000000      NO
          MAX gradient        0.0076925659            0.0003000000      NO
          RMS step            0.0267384680            0.0020000000      NO
          MAX step            0.0721250677            0.0040000000      NO
          -------------------------------------------------------------------------
          ........................................................
          Max(Bonds)      0.0337      Max(Angles)    1.29
          Max(Dihed)        4.13      Max(Improp)    0.00
          ---------------------------------------------------------------------

    ---------------------------------------------------------------------------
                         Redundant Internal Coordinates
                            (Angstroem and degrees)

        Definition                    Value    dE/dq     Step     New-Value
    ----------------------------------------------------------------------------
     1. B(O   1,C   0)                1.1990  0.007693 -0.0089    1.1901   
     2. B(O   2,C   0)                1.3441  0.000831 -0.0025    1.3417   
     3. B(C   3,C   0)                1.5221 -0.001211 -0.0004    1.5216   
     4. B(H   4,O   2)                0.9663  0.000471 -0.0020    0.9643   
     5. B(N   5,C   3)                1.4607  0.003328 -0.0072    1.4535   
     6. B(H   6,C   3)                1.1013 -0.001679  0.0042    1.1056   
     7. B(H   7,C   3)                1.0949 -0.000752  0.0016    1.0964   
     8. B(H   8,O   1)                2.3572  0.001330 -0.0337    2.3235   
     9. B(H   8,N   5)                1.0173  0.000724 -0.0021    1.0152   
    10. B(H   9,N   5)                1.0148  0.000527 -0.0013    1.0135   
    11. A(O   1,C   0,O   2)          121.43  0.002032   -0.47    120.97   
    12. A(O   2,C   0,C   3)          114.53 -0.002435    0.60    115.14   
    13. A(O   1,C   0,C   3)          124.03  0.000419   -0.47    123.56   
    14. A(C   0,O   2,H   4)          113.44  0.000724   -0.24    113.21   
    15. A(C   0,C   3,H   6)          106.93  0.002022   -0.62    106.31   
    16. A(N   5,C   3,H   6)          111.88 -0.002936    1.29    113.17   
    17. A(H   6,C   3,H   7)          109.16  0.001424   -0.55    108.60   
    18. A(N   5,C   3,H   7)          108.20  0.000632   -0.02    108.18   
    19. A(C   0,C   3,H   7)          109.87 -0.001264    0.31    110.17   
    20. A(C   0,C   3,N   5)          110.79  0.000125   -0.41    110.38   
    21. A(H   8,N   5,H   9)          107.18 -0.000457    0.88    108.06   
    22. A(C   3,N   5,H   9)          110.33 -0.000903    0.52    110.85   
    23. A(C   3,N   5,H   8)          108.77 -0.001969    0.50    109.27   
    24. D(H   4,O   2,C   0,C   3)     -2.68  0.000509   -2.54     -5.21   
    25. D(H   4,O   2,C   0,O   1)    178.31 -0.000532    2.53    180.85   
    26. D(N   5,C   3,C   0,O   1)    -25.79  0.001309   -2.00    -27.80   
    27. D(H   6,C   3,C   0,O   2)    -82.62 -0.002010    4.13    -78.49   
    28. D(N   5,C   3,C   0,O   2)    155.22  0.000220    3.19    158.41   
    29. D(H   7,C   3,C   0,O   1)   -145.29  0.001256   -1.92   -147.22   
    30. D(H   6,C   3,C   0,O   1)     96.36 -0.000921   -1.06     95.30   
    31. D(H   9,N   5,C   3,H   6)     34.68 -0.001395   -0.33     34.35   
    32. D(H   9,N   5,C   3,C   0)    153.91 -0.000693   -0.54    153.37   
    33. D(H   8,N   5,C   3,H   7)    157.10  0.000468   -2.05    155.06   
    34. D(H   8,N   5,C   3,H   6)    -82.62  0.000843   -1.96    -84.57   
    35. D(H   8,N   5,C   3,C   0)     36.61  0.001545   -2.16     34.44   
    ----------------------------------------------------------------------------

Geometry step timings:
Preparation and reading OPT file:      0.000 s ( 2.158 %)
Internal coordinates            :      0.000 s ( 2.518 %)
B/P matrices and projection     :      0.000 s (27.158 %)
Hessian update/contruction      :      0.000 s (16.547 %)
Making the step                 :      0.000 s (20.863 %)
Converting the step to Cartesian:      0.000 s ( 3.597 %)
Storing new data                :      0.000 s ( 1.799 %)
Checking convergence            :      0.000 s ( 4.137 %)
Final printing                  :      0.000 s (21.223 %)
Total time                      :      0.001 s

Time for energy+gradient        :      0.016 s
Time for complete geometry iter :      0.017 s

         *************************************************************
         *                GEOMETRY OPTIMIZATION CYCLE   3            *
         *************************************************************
---------------------------------
CARTESIAN COORDINATES (ANGSTROEM)
---------------------------------
  C    -4.418089    0.225168   -2.606984
  O    -4.180092    0.672163   -3.683979
  O    -3.469257    0.160716   -1.660599
  C    -5.739368   -0.436454   -2.244473
  H    -3.780396   -0.232111   -0.836711
  N    -6.814763    0.102501   -3.060137
  H    -5.590982   -1.523262   -2.382828
  H    -5.980706   -0.247758   -1.191706
  H    -6.456822    0.318298   -3.985353
  H    -7.563017   -0.573309   -3.162763

----------------------------
CARTESIAN COORDINATES (A.U.)
----------------------------
  NO LB    ZA    FRAG    MASS        X           Y           Z
   0 C   6.0000    1    12.011   -8.348978    0.425506   -4.926486
   1 O   8.0000    1    15.999   -7.899230    1.270205   -6.961712
   2 O   8.0000    1    15.999   -6.555945    0.303709   -3.138078
   3 C   6.0000    1    12.011  -10.845833   -0.824779   -4.241440
   4 H   1.0000    1     1.008   -7.143914   -0.438626   -1.581155
   5 N   7.0000    1    14.007  -12.878035    0.193700   -5.782821
   6 H   1.0000    1     1.008  -10.565425   -2.878547   -4.502892
   7 H   1.0000    1     1.008  -11.301897   -0.468195   -2.251997
   8 H   1.0000    1     1.008  -12.201626    0.601496   -7.531226
   9 H   1.0000    1     1.008  -14.292031   -1.083397   -5.976756

      -----------------------------------------------------------      
     |                   =====================                   |     
     |                           x T B                           |     
     |                   =====================                   |     
     |                         S. Grimme                         |     
     |          Mulliken Center for Theoretical Chemistry        |     
     |                    University of Bonn                     |     
      -----------------------------------------------------------      

   * xtb version 6.7.1 (edcfbbe) compiled by 'albert@albert-system' on 2024-07-22

   xtb is free software: you can redistribute it and/or modify it under
   the terms of the GNU Lesser General Public License as published by
   the Free Software Foundation, either version 3 of the License, or
   (at your option) any later version.
   
   xtb is distributed in the hope that it will be useful,
   but WITHOUT ANY WARRANTY; without even the implied warranty of
   MERCHANTABILITY or FITNESS FOR A PARTICULAR PURPOSE.  See the
   GNU Lesser General Public License for more details.
   
   Cite this work as:
   * C. Bannwarth, E. Caldeweyher, S. Ehlert, A. Hansen, P. Pracht,
     J. Seibert, S. Spicher, S. Grimme, WIREs Comput. Mol. Sci., 2020, 11,
     e01493. DOI: 10.1002/wcms.1493
   
   for GFN2-xTB:
   * C. Bannwarth, S. Ehlert and S. Grimme., J. Chem. Theory Comput., 2019,
     15, 1652-1671. DOI: 10.1021/acs.jctc.8b01176
   for GFN1-xTB:
   * S. Grimme, C. Bannwarth, P. Shushkov, J. Chem. Theory Comput., 2017,
     13, 1989-2009. DOI: 10.1021/acs.jctc.7b00118
   for GFN0-xTB:
   * P. Pracht, E. Caldeweyher, S. Ehlert, S. Grimme, ChemRxiv, 2019, preprint.
     DOI: 10.26434/chemrxiv.8326202.v1
   for GFN-FF:
   * S. Spicher and S. Grimme, Angew. Chem. Int. Ed., 2020, 59, 15665-15673.
     DOI: 10.1002/anie.202004239
   
   for ALPB and GBSA implicit solvation:
   * S. Ehlert, M. Stahn, S. Spicher, S. Grimme, J. Chem. Theory Comput.,
     2021, 17, 4250-4261. DOI: 10.1021/acs.jctc.1c00471
   
   for ddCOSMO and CPCM-X implicit solvation:
   * M. Stahn, S. Ehlert, S. Grimme, J. Phys. Chem. A,
     2023, XX, XXXX-XXXX. DOI: 10.1021/acs.jpca.3c04382
   
   for DFT-D4:
   * E. Caldeweyher, C. Bannwarth and S. Grimme, J. Chem. Phys., 2017,
     147, 034112. DOI: 10.1063/1.4993215
   * E. Caldeweyher, S. Ehlert, A. Hansen, H. Neugebauer, S. Spicher,
     C. Bannwarth and S. Grimme, J. Chem. Phys., 2019, 150, 154122.
     DOI: 10.1063/1.5090222
   * E. Caldeweyher, J.-M. Mewes, S. Ehlert and S. Grimme, Phys. Chem. Chem. Phys.
     2020, 22, 8499-8512. DOI: 10.1039/D0CP00502A
   
   for sTDA-xTB:
   * S. Grimme and C. Bannwarth, J. Chem. Phys., 2016, 145, 054103.
     DOI: 10.1063/1.4959605
   
   in the mass-spec context:
   * V. Asgeirsson, C. Bauer and S. Grimme, Chem. Sci., 2017, 8, 4879.
     DOI: 10.1039/c7sc00601b
   * J. Koopman and S. Grimme, ACS Omega 2019, 4, 12, 15120-15133.
     DOI: 10.1021/acsomega.9b02011
   
   for metadynamics refer to:
   * S. Grimme, J. Chem. Theory Comput., 2019, 155, 2847-2862
     DOI: 10.1021/acs.jctc.9b00143
   
   for SPH calculations refer to:
   * S. Spicher and S. Grimme, J. Chem. Theory Comput., 2021, 17, 1701-1714
     DOI: 10.1021/acs.jctc.0c01306
   
   for ONIOM refer to:
   * C. Plett, A. Katbashev, S. Ehlert, S. Grimme, M. Bursch,
     Phys. Chem. Chem. Phys., 2023, 25, 17860-17868. DOI: 10.1039/D3CP02178E
   
   for DIPRO refer to:
   * J. Kohn, N. Gildemeister, S. Grimme, D. Fazzi, A. Hansen,
     J. Chem. Phys., 2023, just accepted.
   
   for PTB refer to:
   * S. Grimme, M. Mueller, A. Hansen, J. Chem. Phys., 2023, 158, 124111.
     DOI: 10.1063/5.0137838
   
   with help from (in alphabetical order)
   P. Atkinson, C. Bannwarth, F. Bohle, G. Brandenburg, E. Caldeweyher
   M. Checinski, S. Dohm, S. Ehlert, S. Ehrlich, I. Gerasimov, C. Hölzer
   A. Katbashev, J. Kohn, J. Koopman, C. Lavigne, S. Lehtola, F. März, M. Müller,
   F. Musil, H. Neugebauer, J. Pisarek, C. Plett, P. Pracht, F. Pultar,
   J. Seibert, P. Shushkov, S. Spicher, M. Stahn, M. Steiner, T. Strunk,
   J. Stückrath, T. Rose, and J. Unsleber
   
 * started run on 2025/08/06 at 13:42:34.680     
   ID    Z sym.   atoms
    1    6 C      1, 4
    2    8 O      2, 3
    3    1 H      5, 7-10
    4    7 N      6

           -------------------------------------------------
          |                Calculation Setup                |
           -------------------------------------------------

          program call               : /home/uni/orca_6_1_0/otool_xtb a_XTB.xyz --grad -c 0 -u 0 -P 9 --namespace a --input a_XTB.input.tmp --acc 0.200000
          calculation namespace      : a
          coordinate file            : a_XTB.xyz
          omp threads                :                     9


           -------------------------------------------------
          |                 G F N 2 - x T B                 |
           -------------------------------------------------

        Reference                      10.1021/acs.jctc.8b01176
      * Hamiltonian:
        H0-scaling (s, p, d)           1.850000    2.230000    2.230000
        zeta-weighting                 0.500000
      * Dispersion:
        s8                             2.700000
        a1                             0.520000
        a2                             5.000000
        s9                             5.000000
      * Repulsion:
        kExp                           1.500000    1.000000
        rExp                           1.000000
      * Coulomb:
        alpha                          2.000000
        third order                    shell-resolved
        anisotropic                    true
        a3                             3.000000
        a5                             4.000000
        cn-shift                       1.200000
        cn-exp                         4.000000
        max-rad                        5.000000

q/qsh data taken from xtbrestart
CAMM data taken from xtbrestart

          ...................................................
          :                      SETUP                      :
          :.................................................:
          :  # basis functions                  25          :
          :  # atomic orbitals                  25          :
          :  # shells                           15          :
          :  # electrons                        30          :
          :  max. iterations                   250          :
          :  Hamiltonian                  GFN2-xTB          :
          :  restarted?                       true          :
          :  GBSA solvation                  false          :
          :  PC potential                    false          :
          :  electronic temp.          300.0000000     K    :
          :  accuracy                    0.2000000          :
          :  -> integral cutoff          0.3198970E+02      :
          :  -> integral neglect         0.2000000E-08      :
          :  -> SCF convergence          0.2000000E-06 Eh   :
          :  -> wf. convergence          0.2000000E-04 e    :
          :  Broyden damping             0.4000000          :
          :  net charge                          0          :
          :  unpaired electrons                  0          :
          ...................................................

 iter      E             dE          RMSdq      gap      omega  full diag
   1    -18.0274266 -0.180274E+02  0.145E-01    3.92       0.0  T
   2    -18.0274349 -0.835943E-05  0.846E-02    3.89       1.0  T
   3    -18.0274339  0.101316E-05  0.226E-02    3.89       1.4  T
   4    -18.0274361 -0.219797E-05  0.455E-03    3.89       6.9  T
   5    -18.0274361 -0.290414E-07  0.213E-03    3.89      14.8  T
   6    -18.0274361 -0.272022E-08  0.553E-04    3.89      57.2  T
   7    -18.0274362 -0.217582E-09  0.169E-04    3.89     187.3  T
   8    -18.0274362 -0.298535E-10  0.666E-05    3.89     474.5  T

   *** convergence criteria satisfied after 8 iterations ***

         #    Occupation            Energy/Eh            Energy/eV
      -------------------------------------------------------------
         1        2.0000           -0.7544925             -20.5308
       ...           ...                  ...                  ...
         9        2.0000           -0.5347994             -14.5526
        10        2.0000           -0.5297199             -14.4144
        11        2.0000           -0.5050375             -13.7428
        12        2.0000           -0.4869192             -13.2497
        13        2.0000           -0.4839618             -13.1693
        14        2.0000           -0.4277569             -11.6399
        15        2.0000           -0.3836464             -10.4395 (HOMO)
        16                         -0.2407897              -6.5522 (LUMO)
        17                          0.0228202               0.6210
        18                          0.0636038               1.7307
        19                          0.0845237               2.3000
        20                          0.1160532               3.1580
       ...                                ...                  ...
        25                          0.6593111              17.9408
      -------------------------------------------------------------
                  HL-Gap            0.1428567 Eh            3.8873 eV
             Fermi-level           -0.3122181 Eh           -8.4959 eV

 SCC (total)                   0 d,  0 h,  0 min,  0.005 sec
 SCC setup                      ...        0 min,  0.000 sec (  1.672%)
 Dispersion                     ...        0 min,  0.000 sec (  5.971%)
 classical contributions        ...        0 min,  0.000 sec (  0.806%)
 integral evaluation            ...        0 min,  0.000 sec (  4.969%)
 iterations                     ...        0 min,  0.004 sec ( 70.735%)
 molecular gradient             ...        0 min,  0.001 sec ( 13.595%)
 printout                       ...        0 min,  0.000 sec (  1.925%)

         :::::::::::::::::::::::::::::::::::::::::::::::::::::
         ::                     SUMMARY                     ::
         :::::::::::::::::::::::::::::::::::::::::::::::::::::
         :: total energy             -17.863447453062 Eh    ::
         :: gradient norm              0.015790835796 Eh/a0 ::
         :: HOMO-LUMO gap              3.887327817674 eV    ::
         ::.................................................::
         :: SCC energy               -18.027434624494 Eh    ::
         :: -> isotropic ES            0.056451316287 Eh    ::
         :: -> anisotropic ES          0.003997216089 Eh    ::
         :: -> anisotropic XC          0.004709089270 Eh    ::
         :: -> dispersion             -0.004432955191 Eh    ::
         :: repulsion energy           0.163987171433 Eh    ::
         :: add. restraining           0.000000000000 Eh    ::
         :: total charge              -0.000000000000 e     ::
         :::::::::::::::::::::::::::::::::::::::::::::::::::::


Property printout bound to 'properties.out'

           -------------------------------------------------
          | TOTAL ENERGY              -17.863447453062 Eh   |
          | GRADIENT NORM               0.015790835796 Eh/α |
          | HOMO-LUMO GAP               3.887327817674 eV   |
           -------------------------------------------------

------------------------------------------------------------------------
 * finished run on 2025/08/06 at 13:42:34.692     
------------------------------------------------------------------------
 total:
 * wall-time:     0 d,  0 h,  0 min,  0.012 sec
 *  cpu-time:     0 d,  0 h,  0 min,  0.015 sec
 * ratio c/w:     1.289 speedup
 SCF:
 * wall-time:     0 d,  0 h,  0 min,  0.005 sec
 *  cpu-time:     0 d,  0 h,  0 min,  0.007 sec
 * ratio c/w:     1.435 speedup


-------------------------   --------------------
FINAL SINGLE POINT ENERGY       -17.863447453060
-------------------------   --------------------


-------------
DIPOLE MOMENT
-------------
                                X             Y             Z
Total Dipole Moment    :     -0.68600      -1.28600       1.11800
                        -----------------------------------------
Magnitude (a.u.)       :      1.83693
Magnitude (Debye)      :      4.66911


------------------
CARTESIAN GRADIENT
------------------

   1   C   :   -0.001414907    0.009730476   -0.002414244
   2   O   :    0.000210162   -0.006026252    0.007299209
   3   O   :   -0.001047067   -0.001851687   -0.001513092
   4   C   :    0.004654480   -0.003364651    0.000499317
   5   H   :    0.000444737    0.000314381   -0.001520389
   6   N   :   -0.001119161    0.002297612   -0.000636433
   7   H   :   -0.001406523   -0.000397070   -0.001094282
   8   H   :    0.000097061    0.000993955   -0.000741911
   9   H   :   -0.000900289   -0.001117609    0.000273371
  10   H   :    0.000481509   -0.000579156   -0.000151545

Difference to translation invariance:
           :   -0.0000000000   -0.0000000000   -0.0000000000

Difference to rotation invariance:
           :    0.0000004395    0.0000004966   -0.0000000603

Norm of the Cartesian gradient     ...    0.0157908358
RMS gradient                       ...    0.0028829990
MAX gradient                       ...    0.0097304757
------------------------------------------------------------------------------
                         ORCA GEOMETRY RELAXATION STEP
------------------------------------------------------------------------------

Reading the OPT-File                    .... done
Getting information on internals        .... done
Copying old internal coords+grads       .... done
Making the new internal coordinates     .... (2022 redundants) done
Validating the new internal coordinates .... (2022 redundants) done
Calculating the B-matrix                .... done
Calculating the G,G- and P matrices     .... done
Transforming gradient to internals      .... done
Projecting the internal gradient        .... done
Number of atoms                         ....  10
Number of internal coordinates          ....  35
Current Energy                          ....   -17.863447453 Eh
Current gradient norm                   ....     0.015790836 Eh/bohr
Maximum allowed component of the step   ....  0.300
Current trust radius                    ....  0.450
Updating the Hessian (BFGS)             .... done
Forming the augmented Hessian           .... done
Diagonalizing the augmented Hessian     .... done
Last element of RFO vector              ....  0.992910734
Lowest eigenvalues of augmented Hessian:
 -0.000582150  0.010125974  0.012408932  0.029786522  0.030854593
Length of the computed step             ....  0.119711079
The final length of the internal step   ....  0.119711079
Converting the step to Cartesian space:
 Initial RMS(Int)=    0.0202348656
Transforming coordinates:
 Iter   0:  RMS(Cart)=    0.0177616959 RMS(Int)=    1.0550388186
done
Storing new coordinates                 .... done
The predicted energy change is          ....    -0.000295246
Previously predicted energy change      ....    -0.000417130
Actually observed energy change         ....    -0.000168787
Ratio of predicted to observed change   ....     0.404639375
New trust radius                        ....     0.300000000

                                .--------------------.
          ----------------------|Geometry convergence|-------------------------
          Item                value                   Tolerance       Converged
          ---------------------------------------------------------------------
          Energy change      -0.0001687873            0.0000050000      NO
          RMS gradient        0.0019093775            0.0001000000      NO
          MAX gradient        0.0088878034            0.0003000000      NO
          RMS step            0.0202348656            0.0020000000      NO
          MAX step            0.0450821080            0.0040000000      NO
          -------------------------------------------------------------------------
          ........................................................
          Max(Bonds)      0.0239      Max(Angles)    0.69
          Max(Dihed)        2.52      Max(Improp)    0.00
[...]
   (at your option) any later version.
   
   xtb is distributed in the hope that it will be useful,
   but WITHOUT ANY WARRANTY; without even the implied warranty of
   MERCHANTABILITY or FITNESS FOR A PARTICULAR PURPOSE.  See the
   GNU Lesser General Public License for more details.
   
   Cite this work as:
   * C. Bannwarth, E. Caldeweyher, S. Ehlert, A. Hansen, P. Pracht,
     J. Seibert, S. Spicher, S. Grimme, WIREs Comput. Mol. Sci., 2020, 11,
     e01493. DOI: 10.1002/wcms.1493
   
   for GFN2-xTB:
   * C. Bannwarth, S. Ehlert and S. Grimme., J. Chem. Theory Comput., 2019,
     15, 1652-1671. DOI: 10.1021/acs.jctc.8b01176
   for GFN1-xTB:
   * S. Grimme, C. Bannwarth, P. Shushkov, J. Chem. Theory Comput., 2017,
     13, 1989-2009. DOI: 10.1021/acs.jctc.7b00118
   for GFN0-xTB:
   * P. Pracht, E. Caldeweyher, S. Ehlert, S. Grimme, ChemRxiv, 2019, preprint.
     DOI: 10.26434/chemrxiv.8326202.v1
   for GFN-FF:
   * S. Spicher and S. Grimme, Angew. Chem. Int. Ed., 2020, 59, 15665-15673.
     DOI: 10.1002/anie.202004239
   
   for ALPB and GBSA implicit solvation:
   * S. Ehlert, M. Stahn, S. Spicher, S. Grimme, J. Chem. Theory Comput.,
     2021, 17, 4250-4261. DOI: 10.1021/acs.jctc.1c00471
   
   for ddCOSMO and CPCM-X implicit solvation:
   * M. Stahn, S. Ehlert, S. Grimme, J. Phys. Chem. A,
     2023, XX, XXXX-XXXX. DOI: 10.1021/acs.jpca.3c04382
   
   for DFT-D4:
   * E. Caldeweyher, C. Bannwarth and S. Grimme, J. Chem. Phys., 2017,
     147, 034112. DOI: 10.1063/1.4993215
   * E. Caldeweyher, S. Ehlert, A. Hansen, H. Neugebauer, S. Spicher,
     C. Bannwarth and S. Grimme, J. Chem. Phys., 2019, 150, 154122.
     DOI: 10.1063/1.5090222
   * E. Caldeweyher, J.-M. Mewes, S. Ehlert and S. Grimme, Phys. Chem. Chem. Phys.
     2020, 22, 8499-8512. DOI: 10.1039/D0CP00502A
   
   for sTDA-xTB:
   * S. Grimme and C. Bannwarth, J. Chem. Phys., 2016, 145, 054103.
     DOI: 10.1063/1.4959605
   
   in the mass-spec context:
   * V. Asgeirsson, C. Bauer and S. Grimme, Chem. Sci., 2017, 8, 4879.
     DOI: 10.1039/c7sc00601b
   * J. Koopman and S. Grimme, ACS Omega 2019, 4, 12, 15120-15133.
     DOI: 10.1021/acsomega.9b02011
   
   for metadynamics refer to:
   * S. Grimme, J. Chem. Theory Comput., 2019, 155, 2847-2862
     DOI: 10.1021/acs.jctc.9b00143
   
   for SPH calculations refer to:
   * S. Spicher and S. Grimme, J. Chem. Theory Comput., 2021, 17, 1701-1714
     DOI: 10.1021/acs.jctc.0c01306
   
   for ONIOM refer to:
   * C. Plett, A. Katbashev, S. Ehlert, S. Grimme, M. Bursch,
     Phys. Chem. Chem. Phys., 2023, 25, 17860-17868. DOI: 10.1039/D3CP02178E
   
   for DIPRO refer to:
   * J. Kohn, N. Gildemeister, S. Grimme, D. Fazzi, A. Hansen,
     J. Chem. Phys., 2023, just accepted.
   
   for PTB refer to:
   * S. Grimme, M. Mueller, A. Hansen, J. Chem. Phys., 2023, 158, 124111.
     DOI: 10.1063/5.0137838
   
   with help from (in alphabetical order)
   P. Atkinson, C. Bannwarth, F. Bohle, G. Brandenburg, E. Caldeweyher
   M. Checinski, S. Dohm, S. Ehlert, S. Ehrlich, I. Gerasimov, C. Hölzer
   A. Katbashev, J. Kohn, J. Koopman, C. Lavigne, S. Lehtola, F. März, M. Müller,
   F. Musil, H. Neugebauer, J. Pisarek, C. Plett, P. Pracht, F. Pultar,
   J. Seibert, P. Shushkov, S. Spicher, M. Stahn, M. Steiner, T. Strunk,
   J. Stückrath, T. Rose, and J. Unsleber
   
 * started run on 2025/08/06 at 13:42:35.120     
   ID    Z sym.   atoms
    1    6 C      1, 4
    2    8 O      2, 3
    3    1 H      5, 7-10
    4    7 N      6

           -------------------------------------------------
          |                Calculation Setup                |
           -------------------------------------------------

          program call               : /home/uni/orca_6_1_0/otool_xtb a_XTB.xyz --grad -c 0 -u 0 -P 9 --namespace a --input a_XTB.input.tmp --acc 0.200000
          calculation namespace      : a
          coordinate file            : a_XTB.xyz
          omp threads                :                     9


           -------------------------------------------------
          |                 G F N 2 - x T B                 |
           -------------------------------------------------

        Reference                      10.1021/acs.jctc.8b01176
      * Hamiltonian:
        H0-scaling (s, p, d)           1.850000    2.230000    2.230000
        zeta-weighting                 0.500000
      * Dispersion:
        s8                             2.700000
        a1                             0.520000
        a2                             5.000000
        s9                             5.000000
      * Repulsion:
        kExp                           1.500000    1.000000
        rExp                           1.000000
      * Coulomb:
        alpha                          2.000000
        third order                    shell-resolved
        anisotropic                    true
        a3                             3.000000
        a5                             4.000000
        cn-shift                       1.200000
        cn-exp                         4.000000
        max-rad                        5.000000

q/qsh data taken from xtbrestart
CAMM data taken from xtbrestart

          ...................................................
          :                      SETUP                      :
          :.................................................:
          :  # basis functions                  25          :
          :  # atomic orbitals                  25          :
          :  # shells                           15          :
          :  # electrons                        30          :
          :  max. iterations                   250          :
          :  Hamiltonian                  GFN2-xTB          :
          :  restarted?                       true          :
          :  GBSA solvation                  false          :
          :  PC potential                    false          :
          :  electronic temp.          300.0000000     K    :
          :  accuracy                    0.2000000          :
          :  -> integral cutoff          0.3198970E+02      :
          :  -> integral neglect         0.2000000E-08      :
          :  -> SCF convergence          0.2000000E-06 Eh   :
          :  -> wf. convergence          0.2000000E-04 e    :
          :  Broyden damping             0.4000000          :
          :  net charge                          0          :
          :  unpaired electrons                  0          :
          ...................................................

 iter      E             dE          RMSdq      gap      omega  full diag
   1    -18.0299236 -0.180299E+02  0.588E-03    3.85       0.0  T
   2    -18.0299237 -0.554365E-08  0.342E-03    3.85       9.2  T
   3    -18.0299237 -0.200924E-09  0.469E-04    3.85      67.4  T
   4    -18.0299237 -0.904876E-09  0.174E-04    3.85     182.0  T
   5    -18.0299237 -0.592912E-10  0.760E-05    3.85     416.1  T

   *** convergence criteria satisfied after 5 iterations ***

         #    Occupation            Energy/Eh            Energy/eV
      -------------------------------------------------------------
         1        2.0000           -0.7544782             -20.5304
       ...           ...                  ...                  ...
         9        2.0000           -0.5417649             -14.7422
        10        2.0000           -0.5251462             -14.2900
        11        2.0000           -0.5109649             -13.9041
        12        2.0000           -0.4867250             -13.2445
        13        2.0000           -0.4719724             -12.8430
        14        2.0000           -0.4400013             -11.9730
        15        2.0000           -0.3850249             -10.4771 (HOMO)
        16                         -0.2433897              -6.6230 (LUMO)
        17                          0.0247096               0.6724
        18                          0.0672477               1.8299
        19                          0.0788967               2.1469
        20                          0.1286177               3.4999
       ...                                ...                  ...
        25                          0.6383720              17.3710
      -------------------------------------------------------------
                  HL-Gap            0.1416353 Eh            3.8541 eV
             Fermi-level           -0.3142073 Eh           -8.5500 eV

 SCC (total)                   0 d,  0 h,  0 min,  0.006 sec
 SCC setup                      ...        0 min,  0.000 sec (  2.065%)
 Dispersion                     ...        0 min,  0.000 sec (  6.114%)
 classical contributions        ...        0 min,  0.000 sec (  1.875%)
 integral evaluation            ...        0 min,  0.000 sec (  6.374%)
 iterations                     ...        0 min,  0.004 sec ( 68.943%)
 molecular gradient             ...        0 min,  0.001 sec ( 13.370%)
 printout                       ...        0 min,  0.000 sec (  0.923%)

         :::::::::::::::::::::::::::::::::::::::::::::::::::::
         ::                     SUMMARY                     ::
         :::::::::::::::::::::::::::::::::::::::::::::::::::::
         :: total energy             -17.867869252420 Eh    ::
         :: gradient norm              0.000127488687 Eh/a0 ::
         :: HOMO-LUMO gap              3.854091577433 eV    ::
         ::.................................................::
         :: SCC energy               -18.029921977105 Eh    ::
         :: -> isotropic ES            0.056816980778 Eh    ::
         :: -> anisotropic ES          0.002983541396 Eh    ::
         :: -> anisotropic XC          0.004876684564 Eh    ::
         :: -> dispersion             -0.004429018831 Eh    ::
         :: repulsion energy           0.162052724685 Eh    ::
         :: add. restraining           0.000000000000 Eh    ::
         :: total charge               0.000000000000 e     ::
         :::::::::::::::::::::::::::::::::::::::::::::::::::::


Property printout bound to 'properties.out'

           -------------------------------------------------
          | TOTAL ENERGY              -17.867869252420 Eh   |
          | GRADIENT NORM               0.000127488687 Eh/α |
          | HOMO-LUMO GAP               3.854091577433 eV   |
           -------------------------------------------------

------------------------------------------------------------------------
 * finished run on 2025/08/06 at 13:42:35.131     
------------------------------------------------------------------------
 total:
 * wall-time:     0 d,  0 h,  0 min,  0.011 sec
 *  cpu-time:     0 d,  0 h,  0 min,  0.013 sec
 * ratio c/w:     1.199 speedup
 SCF:
 * wall-time:     0 d,  0 h,  0 min,  0.006 sec
 *  cpu-time:     0 d,  0 h,  0 min,  0.007 sec
 * ratio c/w:     1.187 speedup


-------------------------   --------------------
FINAL SINGLE POINT ENERGY       -17.867869252420
-------------------------   --------------------


-------------
DIPOLE MOMENT
-------------
                                X             Y             Z
Total Dipole Moment    :     -0.34800      -0.53500       1.25200
                        -----------------------------------------
Magnitude (a.u.)       :      1.40529
Magnitude (Debye)      :      3.57196

                                *** OPTIMIZATION RUN DONE ***

		     ------------------------------
			                   _   
			                  | |  
			  __ _  ___   __ _| |_ 
			 / _` |/ _ \ / _` | __|
			| (_| | (_) | (_| | |_ 
			 \__, |\___/ \__,_|\__|
			 __/ |                
			|___/                 

		      A Global Optimizer Algorithm
		     ------------------------------

Global parameters
-----------------
  GOAT version                               ... default
  Minimum global steps                       ... 3
  Number of base workers                     ... 4
  Split workers by                           ... 1
  Final number of workers                    ... 4
  Number of available CPUs                   ... 9
  Parameter list (worker : temperature)      ...  0 : 2903.97,  1 : 1451.98, 
                                                  2 :  725.99,  3 :  363.00 
  GradComp (mean : sigma)                    ... 1.00 : 0.50
  Number of fragments                        ... 1
  Number of atoms                            ... 10
  Flexibility parameter                      ... 0.67
  Optimizations per global step              ... 84
  Optimizations per worker                   ... 21

Filtering criteria
------------------
  RMSD                                       ... 0.125 Angs (atom. pos.)
  EnDiff                                     ... 0.100 kcal/mol
  RotConst                                   ... 1.00-2.50 %
  Maximum Conf. Energy                       ... 6.000 kcal/mol

Thermodynamics
--------------
  Ensemble temperature                       ... 298.15 K
  Degeneracy of conformers                   ... 1
  *No rotamers will be included in Gconf

------------------------------------------------------------------------------
   Iter  MinTemp     MaxEn       GradComp    NOpt   NProcs    Output
------------------------------------------------------------------------------
List of participating nodes    ...  a.goat.0.hostnames

   1     1451.98     30.00    1.00 : 0.50      21        2    a.goat.0.1.out
   0     2903.97     30.00    1.00 : 0.50      21        2    a.goat.0.0.out
   3      363.00     30.00    1.00 : 0.50      21        2    a.goat.0.3.out
   2      725.99     30.00    1.00 : 0.50      21        2    a.goat.0.2.out

			     GOAT Global Iter 1
		Iter    Min En       Sconf       Gconf   
		        Hartree      cal/(molK)  kcal/mol
		=========================================

		   1    -17.877543   1.034       -0.095

List of participating nodes    ...  a.goat.1.hostnames

   1     1451.98     30.00    1.00 : 0.50      21        2    a.goat.1.1.out
   0     2903.97     30.00    1.00 : 0.50      21        2    a.goat.1.0.out
   3      363.00     30.00    1.00 : 0.50      21        2    a.goat.1.3.out
   2      725.99     30.00    1.00 : 0.50      21        2    a.goat.1.2.out

			     GOAT Global Iter 2
		Iter    Min En       Sconf       Gconf   
		        Hartree      cal/(molK)  kcal/mol
		=========================================

		   1    -17.877543   1.034       -0.095
		   2    -17.877543   1.035       -0.095

List of participating nodes    ...  a.goat.2.hostnames

   1     1451.98     30.00    1.00 : 0.50      21        2    a.goat.2.1.out
   0     2903.97     30.00    1.00 : 0.50      21        2    a.goat.2.0.out
   2      725.99     30.00    1.00 : 0.50      21        2    a.goat.2.2.out
   3      363.00     30.00    1.00 : 0.50      21        2    a.goat.2.3.out

			     GOAT Global Iter 3
		Iter    Min En       Sconf       Gconf   
		        Hartree      cal/(molK)  kcal/mol
		=========================================

		   1    -17.877543   1.034       -0.095
		   2    -17.877543   1.035       -0.095
		   3    -17.877543   1.035       -0.095

		Global minimum found!
		Writing structure to a.globalminimum.xyz

		# Final ensemble info #
		Conformer     Energy     Degen.   % total   % cumul.  
		              (kcal/mol)
		------------------------------------------------------
		        0     0.000	     1      85.25      85.25
		        1     1.194	     1      11.37      96.61
		        2     2.036	     1       2.74      99.36
		        3     3.303	     1       0.32      99.68
		        4     3.505	     1       0.23      99.91
		        5     4.070	     1       0.09     100.00

		Conformers below 3 kcal/mol: 3
		Lowest energy conformer    : -17.877543 Eh
		Sconf at 298.15 K          :  1.03 cal/(molK)
		Gconf at 298.15 K          : -0.09 kcal/mol

		Writing final ensemble to a.finalensemble.xyz

--------------------------------
SUGGESTED CITATIONS FOR THIS RUN
--------------------------------

Below you find a list of papers that are relevant to this ORCA run
We neither can nor want to force you to cite these papers, but we appreciate if you do
You receive ORCA, which is the product of decades of hard work by many enthusiastic individuals, for free
The only thing we kindly ask in return is that you cite our papers,
We deeply appreciate it, if you show your appreciation for ORCA by not just citing the generic ORCA reference.

Please note that relegating all ORCA citations to the supporting information does *not* help us.
SI sections are not indexed - citations you put there will not count into any citation statistics
But we need these citations in order to attract the funding resources that allow us to do what we are doing

Therefore, if you are a happy ORCA user, please consider citing a few of the papers listed below in the main body of your paper

In addition to the list printed below, the program has created the file a.bibtex that contains the list in bibtex format
You can import this file easily into all common literature databanks and citation aid programs


List of essential papers. We consider these as the minimum necessary citations

  1. Bannwarth, C.; Ehlert, S.; Grimme, S.
     GFN2-xTB—An Accurate and Broadly Parametrized Self-Consistent Tight-Binding Quantum Chemical Method with Multipole Electrostatics and Density-Dependent Dispersion Contributions
     J. Chem. Theory Comput. 2019 15(3), 1652-1671
     doi.org/10.1021/acs.jctc.8b01176
  2. Neese, F.
     Software update: the ORCA program system, version 6.0
     WIRES Comput. Molec. Sci. 2025 15(1), e70019
     doi.org/10.1002/wcms.7019
  3. de Souza, B.
     GOAT: A Global Optimization Algorithm for Molecules and Atomic Clusters
     Angewandte Chemie 2025 64(18), e202500393
     doi.org/10.1002/anie.202500393

List of papers to cite with high priority. The work reported in these papers was absolutely
necessary for this run to complete.
Our perspective: the developers of density functionals and basis sets usually get cited in chemistry papers
Good! But without the algorithms to do something with them, the functionals or basis sets would not do anything.
Hence, in our opinion, the algorithm design and method developments papers are equally worthy of getting cited

  1. Bannwarth, C.; Caldeweyher, E.; Ehlert, S.; Hansen, A.; Pracht, P.; Seibert, J.; Spicher, S.; Grimme, S.
     Extended tight-binding quantum chemistry methods
     WIRES Comput. Molec. Sci. 2020 11(2), e1493
     doi.org/10.1002/wcms.1493

List of suggested additional citations. These are papers that are important in the 'surrounding' of 
of this run, or papers that preceded the highly important papers. If you like your results we are grateful for a citation.

  1. Neese, F.
     The ORCA program system
     WIRES Comput. Molec. Sci. 2012 2(1), 73-78
     doi.org/10.1002/wcms.81
  2. Neese, F.
     Software update: the ORCA program system, version 4.0
     WIRES Comput. Molec. Sci. 2018 8(1), 1-6
     doi.org/10.1002/wcms.1327
  3. Neese, F.; Wennmohs, F.; Becker, U.; Riplinger, C.
     The ORCA quantum chemistry program package
     J. Chem. Phys. 2020 152(22), 224108
     doi.org/10.1063/5.0004608
  4. Neese, F.
     Software update: The ORCA program system—Version 5.0
     WIRES Comput. Molec. Sci. 2022 12(1), e1606
     doi.org/10.1002/wcms.1606

List of optional additional citations

  1. Neese, F.
     Approximate second-order SCF convergence for spin unrestricted wavefunctions
     Chem. Phys. Lett. 2000 325(1-3), 93-98
     doi.org/10.1016/s0009-2614(00)00662-x

Timings for individual modules:

Sum of individual times          ...       49.042 sec (=   0.817 min)
Geometry relaxation              ...        0.025 sec (=   0.000 min)   0.1 %
GOAT                             ...       48.591 sec (=   0.810 min)  99.1 %
XTB module                       ...        0.425 sec (=   0.007 min)   0.9 %
                             ****ORCA TERMINATED NORMALLY****
TOTAL RUN TIME: 0 days 0 hours 0 minutes 50 seconds 14 msec
