
                                 *****************
                                 * O   R   C   A *
                                 *****************

                                            #,                                       
                                            ###                                      
                                            ####                                     
                                            #####                                    
                                            ######                                   
                                           ########,                                 
                                     ,,################,,,,,                         
                               ,,#################################,,                 
                          ,,##########################################,,             
                       ,#########################################, ''#####,          
                    ,#############################################,,   '####,        
                  ,##################################################,,,,####,       
                ,###########''''           ''''###############################       
              ,#####''   ,,,,##########,,,,          '''####'''          '####       
            ,##' ,,,,###########################,,,                        '##       
           ' ,,###''''                  '''############,,,                           
         ,,##''                                '''############,,,,        ,,,,,,###''
      ,#''                                            '''#######################'''  
     '                                                          ''''####''''         
             ,#######,   #######,   ,#######,      ##                                
            ,#'     '#,  ##    ##  ,#'     '#,    #''#        ,####,    ,#,          
            ##       ##  ##   ,#'  ##            #'  '#       #'       ,# #          
            ##       ##  #######   ##           ,######,      #####,      #          
            '#,     ,#'  ##    ##  '#,     ,#' ,#      #,     #,   #      #          
             '#######'   ##     ##  '#######'  #'      '#     '####' #    #          



                #########################################################
                #                        -***-                          #
                #          Department of theory and spectroscopy        #
                #                                                       #
                #                      Frank Neese                      #
                #                                                       #
                #     Directorship, Architecture, Infrastructure        #
                #                    SHARK, DRIVERS                     #
                #        Core code/Algorithms in most modules           #
                #                                                       #
                #        Max Planck Institute fuer Kohlenforschung      #
                #                Kaiser Wilhelm Platz 1                 #
                #                 D-45470 Muelheim/Ruhr                 #
                #                      Germany                          #
                #                                                       #
                #                  All rights reserved                  #
                #                        -***-                          #
                #########################################################


                         Program Version 6.1.0  -  RELEASE   -
                                (GIT: $679e74b$)
                          ($2025-06-10 18:02:51 +0200$)


 With contributions from (in alphabetic order):
[Max-Planck-Institut fuer Kohlenforschung]                               
  Daniel Aravena         : Magnetic Suceptibility                        
  Michael Atanasov       : Ab Initio Ligand Field Theory (pilot matlab implementation)
  Alexander A. Auer      : GIAO ZORA, VPT2 properties, NMR spectrum      
  Ute Becker             : All parallelization in ORCA, NUMFREQ, NUMCALC 
  Giovanni Bistoni       : ED, misc. LED, open-shell LED, HFLD           
  Dmytro Bykov           : pre 5.0 version of the SCF Hessian            
  Marcos Casanova-Páez   : Triplet and SCS-CIS(D). UHF-(DLPNO)-IP/EA/STEOM-CCSD. UHF-CVS-IP/STEOM-CCSD   
  Vijay G. Chilkuri      : MRCI spin determinant printing, contributions to CSF-ICE 
  Pauline Colinet        : FMM embedding                                 
  Dipayan Datta          : RHF DLPNO-CCSD density                        
  Achintya Kumar Dutta   : EOM-CC, STEOM-CC                              
  Nicolas Foglia         : Exact transition moments, OPA infrastructure, MCD improvements    
  Dmitry Ganyushin       : Spin-Orbit,Spin-Spin,Magnetic field MRCI      
  Miquel Garcia-Rates    : C-PCM and meta-GGA Hessian, CCSD/C-PCM, Gaussian charge scheme 
  Tiago L. C. Gouveia    : GS-ROHF, GS-ROCIS                             
  Yang Guo               : DLPNO-NEVPT2, F12-NEVPT2, CIM, IAO-localization        
  Andreas Hansen         : Spin unrestricted coupled pair/coupled cluster methods 
  Ingolf Harden          : AUTO-CI MPn and infrastructure                
  Benjamin Helmich-Paris : MC-RPA, TRAH-(SCF,CASSCF), AVAS, COSX integrals, SCF dyn. polar., MC-PDFT, srDFT 
  Lee Huntington         : MR-EOM, pCC                                   
  Robert Izsak           : Overlap fitted RIJCOSX, COSX-SCS-MP3, EOM     
  Riya Kayal             : Wick's Theorem for AUTO-CI, AUTO-CI UHF-CCSDT 
  Emily Kempfer          : AUTO-CI RHF CISDT and CCSDT, approximate NEVPT4
  Christian Kollmar      : KDIIS, OOCD, Brueckner-CCSD(T), CCSD density, CASPT2, CASPT2-K, improved NEVPT2 
  Axel Koslowski         : Symmetry handling                             
  Simone Kossmann        : meta-GGA functionals, TD-DFT gradient, OOMP2, (MP2 Hessian; deprecated post 5.0) 
  Lucas Lang             : DCDCAS, Hyperfine gauge corrections, ICE-SOC+SSC
  Marvin Lechner         : AUTO-CI (C++ implementation), FIC-MRCC        
  Spencer Leger          : CASSCF response                               
  Dagmar Lenk            : GEPOL surface, SMD, ORCA-2-JSON               
  Dimitrios Liakos       : Extrapolation schemes; Compound Job, Property file
  Dimitrios Manganas     : Further ROCIS development; embedding schemes. LFT, Crystal Embedding 
  Dimitrios Pantazis     : SARC Basis sets                               
  Anastasios Papadopoulos: AUTO-CI, single reference methods and gradients 
  Taras Petrenko         : pre 6.0 DFT Hessian and TD-DFT gradient,  ECA, NRVS 
  Petra Pikulova         : Analytic Raman intensities                    
  Peter Pinski           : DLPNO-MP2, DLPNO-MP2 Gradient                 
  Shashank Vittal Rao    : ES-AILFT, MagRelax                            
  Christoph Reimann      : Effective Core Potentials                     
  Marius Retegan         : Local ZFS, SOC                                
  Christoph Riplinger    : Optimizer, TS searches, QM/MM, DLPNO-CCSD(T), (RO)-DLPNO pert. Triples 
  Michael Roemelt        : Original ROCIS implementation, recursive CI coupling coefficients
  Masaaki Saitow         : Open-shell DLPNO-CCSD energy and density      
  Barbara Sandhoefer     : DKH picture change effects                    
  Yorick L. A. Schmerwitz: GMF and freeze-and-release deltaSCF, NEB S-IDPP initial path                    
  Kantharuban Sivalingam : CASSCF convergence/infrastructure, NEVPT2, NEVPT3, NEVPT4(SD), FIC-MRCI and CEPA variants
  Bernardo de Souza      : ESD, SOC TD-DFT                               
  Georgi L. Stoychev     : AutoAux, RI-MP2 NMR, DLPNO-MP2 response, X2C  
  Van Anh Tran           : RI-MP2 g-tensors                              
  Willem Van den Heuvel  : Paramagnetic NMR                              
  Zikuan Wang            : NOTCH, Electric field optimization            
  Frank Wennmohs         : Technical directorship and infrastructure     
  Hang Xu                : AUTO-CI-Response properties                   
                                                                         
[FACCTs GmbH]                                                            
  Markus Bursch, Nicolas Foglia, Miquel Garcia-Rates, Ingolf Harden, Hagen Neugebauer, Anastasios Papadopoulos, 
  Christoph Riplinger, Bernardo de Souza, Georgi L. Stoychev                                                    
                                                                 
  APM, various basis sets, CI-OPT, improved COSX, DLPNO-Multilevel,           
  DOCKER, DRACO, updates on ESD, Fragmentator, GOAT, IRC, LR-CPCM, L-BFGS, MBIS, meta-GGA TD-DFT gradient, ML-optimized integration grids, 
  MM, NACMEs, nearIR, NEB, NEB-TS, NL-DFT gradient (VV10), 2- and 3-layer-ONIOM, interface openCOSMO-RS, QMMM,   
  Crystal-QMMM, RESP, rigid body optimization, SF, symmetry and pop. for TD-DFT, various functionals, SOLVATOR                                   
                                                                         
[Other institutions]                                                     
  V. Asgeirsson          : NEB                                           
  Christoph Bannwarth    : sTDA-DFT, sTD-DFT, PBEh-3c, B97-3c, D3        
  Giovanni Bistoni       : ETS/NOCV, ADLD/ADEX, COVALED                  
  Martin Brehm           : Molecular dynamics                            
  Ronald Cardenas        : ETS/NOCV                                      
  Martina Colucci        : COVALED                                       
  Sebastian Ehlert       : rSCAN, r2SCAN, r2SCAN-3c, D4, dhf basis sets  
  Marvin Friede          : D4 for Fr, Ra, Ac-Lr                          
  Lars Goerigk           : TD-DFT with DH, B97 family of functionals     
  Stefan Grimme          : VdW corrections, initial TS optimization, DFT functionals, gCP, sTDA/sTD-DF 
  Waldemar Hujo          : DFT-NL                                        
  H. Jonsson             : NEB                                           
  Holger Kruse           : gCP                                           
  Marcel Mueller         : wB97X-3c, vDZP basis set                      
  Hagen Neugebauer       : wr2SCAN, Native XTB                           
  Gianluca Regni         : ADLD/ADEX                                     
  Tobias Risthaus        : pre 6.0 range-separated hybrid DFT and stability analysis
  Lukas Wittmann         : regularized MP2, r2SCAN double-hybrids, wr2SCAN        
                                                                         
We gratefully acknowledge several colleagues who have allowed us to      
interface, adapt or use parts of their codes:                            
  Ed Valeev, F. Pavosevic, A. Kumar             : LibInt (2-el integral package), F12 methods 
  Garnet Chan, S. Sharma, J. Yang, R. Olivares  : DMRG                   
  Ulf Ekstrom                                   : XCFun DFT Library      
  Mihaly Kallay                                 : mrcc  (arbitrary order and MRCC methods)
  Frank Weinhold                                : gennbo (NPA and NBO analysis)           
  Simon Mueller                                 : openCOSMO-RS                            
  Christopher J. Cramer and Donald G. Truhlar   : smd solvation model                     
  S Lehtola, MJT Oliveira, MAL Marques          : LibXC Library                           
  Liviu Ungur et al                             : ANISO software                          


 Your calculation uses the libint2 library for the computation of 2-el integrals
 For citations please refer to: http://libint.valeyev.net

 Your ORCA version has been built with support for libXC version: 7.0.0
 For citations please refer to: https://libxc.gitlab.io

 This ORCA versions uses:
   CBLAS   interface :  Fast vector & matrix operations
   LAPACKE interface :  Fast linear algebra routines
   SCALAPACK package :  Parallel linear algebra routines
   Shared memory     :  Shared parallel matrices
   BLAS/LAPACK       :  OpenBLAS 0.3.29  USE64BITINT DYNAMIC_ARCH NO_AFFINITY Haswell SINGLE_THREADED
        Core in use  :  Haswell
   Copyright (c) 2011-2014, The OpenBLAS Project


  ***********************************
  * Starting time: Sun Aug 31 12:51:21 2025
  * Host name:     chemlab03
  * Process ID:    91771
  * Working dir.:  /home/vivek/mm-project/vivek/xtb-goat/MP2-opt/c/2
  ***********************************



***************************************
The coordinates will be read from file: /home/vivek/mm-project/vivek/xtb-goat/xtb-goat/c/C_CONF/2.xyz
***************************************


================================================================================

----- Orbital basis set information -----
Your calculation utilizes the basis: 6-31G**
   H-He, Li-Ne : W. J. Hehre, R. Ditchfield and J.A. Pople, J. Chem. Phys. 56, 2257 (1972).
                 Note: He and Ne are unpublished basis sets taken from the Gaussian program.
                 Note: Li and B from J. D. Dill and J. A. Pople, J. Chem. Phys. 62, 2921 (1975).
   Na - Ar     : M. M. Francl, W. J. Pietro, W. J. Hehre, J. S. Binkley, M. S. Gordon, 
                 D. J. DeFrees and J. A. Pople, J. Chem. Phys. 77, 3654 (1982).
   K - Zn      : V. A. Rassolov, J. A. Pople, M. A. Ratner, and T. L. Windus, J. Chem. Phys. 109, 1223 (1998).

================================================================================
                                        WARNINGS
                       Please study these warnings very carefully!
================================================================================


WARNING: The frozen-core approximation for MP2-gradient calculations is turned on by default.

WARNING: Geometry Optimization
  ===> : Switching off AutoStart
         For restart on a previous wavefunction, please use MOREAD

WARNING: Post HF methods need fully converged wavefunctions
  ===> : Setting SCFConvForced true
         You can overwrite this default with %scf ConvForced false 


================================================================================
                                       INPUT FILE
================================================================================
NAME = 2.inp
|  1> ! MP2 6-31G** opt
|  2> 
|  3> * xyzfile 0 1 /home/vivek/mm-project/vivek/xtb-goat/xtb-goat/c/C_CONF/2.xyz
|  4> 
|  5>                          ****END OF INPUT****
================================================================================

                       *****************************
                       * Geometry Optimization Run *
                       *****************************

Geometry optimization settings:
Update method            Update   .... BFGS
Choice of coordinates    CoordSys .... (2022) Redundant Internals
Initial Hessian          InHess   .... Almloef's Model
Max. no of cycles        MaxIter  .... 50

Convergence Tolerances:
Energy Change            TolE     ....  5.0000e-06 Eh
Max. Gradient            TolMAXG  ....  3.0000e-04 Eh/bohr
RMS Gradient             TolRMSG  ....  1.0000e-04 Eh/bohr
Max. Displacement        TolMAXD  ....  4.0000e-03 bohr
RMS Displacement         TolRMSD  ....  2.0000e-03 bohr
Strict Convergence                .... False

------------------------------------------------------------------------------
                        ORCA OPTIMIZATION COORDINATE SETUP
------------------------------------------------------------------------------

The optimization will be done in redundant internal coordinates (2022)
Making redundant internal coordinates   ...  (2022 redundants) done
Evaluating the initial hessian          ...  (Almloef) done
Evaluating the coordinates              ...  done
Calculating the B-matrix                .... done
Calculating the G-matrix                .... done
The number of degrees of freedom        ....   54

    -----------------------------------------------------------------
                    Redundant Internal Coordinates


    -----------------------------------------------------------------
         Definition                    Initial Value    Approx d2E/dq
    -----------------------------------------------------------------
      1. B(H   2,C   1)                  1.0904         0.359619   
      2. B(C   5,C   1)                  1.5345         0.367487   
      3. B(C   5,H   0)                  1.0952         0.353348   
      4. B(S   7,H   3)                  1.3313         0.400209   
      5. B(S   7,C   1)                  1.8188         0.348616   
      6. B(N   8,H   6)                  1.0143         0.425915   
      7. B(N   8,C   5)                  1.4495         0.449777   
      8. B(H   9,N   8)                  1.0162         0.422934   
      9. B(C  10,C   5)                  1.5282         0.376021   
     10. B(C  10,O   4)                  1.3306         0.695990   
     11. B(H  11,C   1)                  1.0893         0.361067   
     12. B(O  12,C  10)                  1.2022         1.115372   
     13. B(H  13,O   4)                  0.9711         0.499191   
     14. A(H   2,C   1,C   5)          110.0812         0.323374   
     15. A(H   2,C   1,H  11)          109.1409         0.290901   
     16. A(C   5,C   1,S   7)          113.5768         0.376979   
     17. A(H   2,C   1,S   7)          105.5657         0.336853   
     18. A(C   5,C   1,H  11)          109.1853         0.323588   
     19. A(S   7,C   1,H  11)          109.1738         0.337079   
     20. A(C  10,O   4,H  13)          111.1918         0.374920   
     21. A(C   1,C   5,N   8)          107.8537         0.371716   
     22. A(C   1,C   5,C  10)          108.6007         0.362737   
     23. A(H   0,C   5,N   8)          109.2922         0.331357   
     24. A(H   0,C   5,C  10)          108.8452         0.323659   
     25. A(N   8,C   5,C  10)          112.5947         0.373189   
     26. A(H   0,C   5,C   1)          109.6188         0.322443   
     27. A(C   1,S   7,H   3)           96.3248         0.367659   
     28. A(H   6,N   8,H   9)          107.2725         0.301390   
     29. A(C   5,N   8,H   9)          109.2504         0.338479   
     30. A(C   5,N   8,H   6)          110.5620         0.338876   
     31. A(O   4,C  10,C   5)          112.4979         0.402706   
     32. A(C   5,C  10,O  12)          123.7294         0.438044   
     33. A(O   4,C  10,O  12)          123.7719         0.486935   
     34. D(N   8,C   5,C   1,H   2)     68.6526         0.010805   
     35. D(N   8,C   5,C   1,S   7)   -173.2303         0.010805   
     36. D(H   0,C   5,C   1,H   2)   -172.4458         0.010805   
     37. D(H   0,C   5,C   1,H  11)     67.7625         0.010805   
     38. D(H   0,C   5,C   1,S   7)    -54.3287         0.010805   
     39. D(N   8,C   5,C   1,H  11)    -51.1391         0.010805   
     40. D(H   3,S   7,C   1,H   2)   -176.8675         0.010000   
     41. D(H   3,S   7,C   1,H  11)    -59.6590         0.010000   
     42. D(H   3,S   7,C   1,C   5)     62.4386         0.010000   
     43. D(H   9,N   8,C   5,C   1)    -68.7915         0.017257   
     44. D(H   9,N   8,C   5,H   0)    172.0988         0.017257   
     45. D(H   6,N   8,C   5,C  10)    -66.8224         0.017257   
     46. D(H   6,N   8,C   5,C   1)    173.3752         0.017257   
     47. D(H   6,N   8,C   5,H   0)     54.2655         0.017257   
     48. D(C   5,C  10,O   4,H  13)    176.7632         0.036235   
     49. D(O  12,C  10,C   5,C   1)     86.9592         0.010565   
     50. D(O  12,C  10,C   5,H   0)   -153.7527         0.010565   
     51. D(O   4,C  10,C   5,N   8)    147.2710         0.010565   
     52. D(O   4,C  10,C   5,C   1)    -93.3599         0.010565   
     53. D(O   4,C  10,C   5,H   0)     25.9281         0.010565   
     54. D(O  12,C  10,O   4,H  13)     -3.5561         0.036235   
    -----------------------------------------------------------------

Number of atoms                         .... 14
Number of degrees of freedom            .... 54


         *************************************************************
         *                GEOMETRY OPTIMIZATION CYCLE   1            *
         *************************************************************
---------------------------------
CARTESIAN COORDINATES (ANGSTROEM)
---------------------------------
  H     -1.639079    2.568764    1.299381
  C     -3.071801    1.458475    0.117430
  H     -3.082412    0.852373   -0.788893
  H     -3.571471    1.255653    2.424599
  O     -0.360153    0.487059    1.504572
  C     -1.681547    2.074540    0.323011
  H     -0.610742    3.568798   -0.561909
  S     -3.577155    0.339188    1.459044
  N     -1.472476    3.058005   -0.721041
  H     -1.381228    2.583398   -1.614978
  C     -0.642438    0.954405    0.291119
  H     -3.806559    2.256904    0.021774
  O     -0.132464    0.545433   -0.717876
  H      0.262789   -0.256459    1.458240

----------------------------
CARTESIAN COORDINATES (A.U.)
----------------------------
  NO LB      ZA    FRAG     MASS         X           Y           Z
   0 H     1.0000    0     1.008   -3.097410    4.854260    2.455475
   1 C     6.0000    0    12.011   -5.804862    2.756118    0.221910
   2 H     1.0000    0     1.008   -5.824914    1.610751   -1.490792
   3 H     1.0000    0     1.008   -6.749102    2.372839    4.581828
   4 O     8.0000    0    15.999   -0.680591    0.920408    2.843230
   5 C     6.0000    0    12.011   -3.177663    3.920313    0.610403
   6 H     1.0000    0     1.008   -1.154135    6.744051   -1.061853
   7 S    16.0000    0    32.060   -6.759843    0.640972    2.757194
   8 N     7.0000    0    14.007   -2.782577    5.778792   -1.362571
   9 H     1.0000    0     1.008   -2.610143    4.881915   -3.051867
  10 C     6.0000    0    12.011   -1.214032    1.803565    0.550136
  11 H     1.0000    0     1.008   -7.193353    4.264931    0.041147
  12 O     8.0000    0    15.999   -0.250320    1.030719   -1.356589
  13 H     1.0000    0     1.008    0.496600   -0.484638    2.755675

--------------------------------
INTERNAL COORDINATES (ANGSTROEM)
--------------------------------
 H      0   0   0     0.000000000000     0.00000000     0.00000000
 C      1   0   0     2.163895853677     0.00000000     0.00000000
 H      2   1   0     1.090363915201   138.21747026     0.00000000
 H      2   1   3     2.369353585317    69.61499922   143.18498550
 O      1   2   3     2.451784982478    87.44588473   303.16032964
 C      1   2   3     1.095152594897    41.90968661    10.67914641
 H      6   1   2     2.040223935328    92.05280674   140.22507460
 S      4   2   1     1.331253393913    49.72697655   222.52841593
 N      7   6   1     1.014307201557    41.69653263   230.05328814
 H      9   7   6     1.016219134952   107.27250610   240.96140697
 C      5   1   2     1.330625954225    60.97507974    56.66911099
 H      2   1   6     1.089269882751    96.80466575   241.69267348
 O     11   5   1     1.202249390322   123.77191039   167.47720430
 H      5   1   2     0.971094127168   168.72668775   104.68832032

---------------------------
INTERNAL COORDINATES (A.U.)
---------------------------
 H      0   0   0     0.000000000000     0.00000000     0.00000000
 C      1   0   0     4.089170545778     0.00000000     0.00000000
 H      2   1   0     2.060489186041   138.21747026     0.00000000
 H      2   1   3     4.477429390673    69.61499922   143.18498550
 O      1   2   3     4.633202156145    87.44588473   303.16032964
 C      1   2   3     2.069538479208    41.90968661    10.67914641
 H      6   1   2     3.855464489642    92.05280674   140.22507460
 S      4   2   1     2.515704329348    49.72697655   222.52841593
 N      7   6   1     1.916762826606    41.69653263   230.05328814
 H      9   7   6     1.920375857110   107.27250610   240.96140697
 C      5   1   2     2.514518640173    60.97507974    56.66911099
 H      2   1   6     2.058421764328    96.80466575   241.69267348
 O     11   5   1     2.271922092383   123.77191039   167.47720430
 H      5   1   2     1.835101950606   168.72668775   104.68832032

---------------------
BASIS SET INFORMATION
---------------------
There are 5 groups of distinct atoms

 Group   1 Type H   : 4s1p contracted to 2s1p pattern {31/1}
 Group   2 Type C   : 10s4p1d contracted to 3s2p1d pattern {631/31/1}
 Group   3 Type O   : 10s4p1d contracted to 3s2p1d pattern {631/31/1}
 Group   4 Type S   : 16s10p1d contracted to 4s3p1d pattern {6631/631/1}
 Group   5 Type N   : 10s4p1d contracted to 3s2p1d pattern {631/31/1}

Atom   0H    basis set group =>   1
Atom   1C    basis set group =>   2
Atom   2H    basis set group =>   1
Atom   3H    basis set group =>   1
Atom   4O    basis set group =>   3
Atom   5C    basis set group =>   2
Atom   6H    basis set group =>   1
Atom   7S    basis set group =>   4
Atom   8N    basis set group =>   5
Atom   9H    basis set group =>   1
Atom  10C    basis set group =>   2
Atom  11H    basis set group =>   1
Atom  12O    basis set group =>   3
Atom  13H    basis set group =>   1
------------------------------------------------------------------------------
                             ORCA STARTUP CALCULATIONS
------------------------------------------------------------------------------
------------------------------------------------------------------------------
                   ___                                                        
                  /   \      - P O W E R E D   B Y -                         
                 /     \                                                     
                 |  |  |   _    _      __       _____    __    __             
                 |  |  |  | |  | |    /  \     |  _  \  |  |  /  |          
                  \  \/   | |  | |   /    \    | | | |  |  | /  /          
                 / \  \   | |__| |  /  /\  \   | |_| |  |  |/  /          
                |  |  |   |  __  | /  /__\  \  |    /   |      \           
                |  |  |   | |  | | |   __   |  |    \   |  |\   \          
                \     /   | |  | | |  |  |  |  | |\  \  |  | \   \       
                 \___/    |_|  |_| |__|  |__|  |_| \__\ |__|  \__/        
                                                                              
                      - O R C A' S   B I G   F R I E N D -                    
                                      &                                       
                       - I N T E G R A L  F E E D E R -                       
                                                                              
 v1 FN, 2020, v2 2021, v3 2022-2024                                           
------------------------------------------------------------------------------


----------------------
SHARK INTEGRAL PACKAGE
----------------------

Number of atoms                             ...     14
Number of basis functions                   ...    137
Number of shells                            ...     65
Maximum angular momentum                    ...      2
Integral batch strategy                     ... SHARK/LIBINT Hybrid
RI-J (if used) integral strategy            ... SPLIT-RIJ (Revised 2003 algorithm where possible)
Printlevel                                  ...      1
Contraction scheme used                     ... SEGMENTED contraction
Prescreening option                         ... SCHWARTZ
   Thresh                                   ... 2.500e-11
   Tcut                                     ... 2.500e-12
   Tpresel                                  ... 2.500e-12 
Coulomb Range Separation                    ... NOT USED
Exchange Range Separation                   ... NOT USED
Multipole approximations                    ... NOT USED
Finite Nucleus Model                        ... NOT USED
CABS basis                                  ... NOT available
Auxiliary Coulomb fitting basis             ... NOT available
Auxiliary J/K fitting basis                 ... NOT available
Auxiliary Correlation fitting basis         ... NOT available
Auxiliary 'external' fitting basis          ... NOT available

Checking pre-screening integrals            ... done (  0.0 sec) Dimension = 65
   => SHARK Basis and OBASIS are compatible. Storing Pre-screening
Shell pair information
Shell pair cut-off parameter TPreSel        ...   2.5e-12
Total number of shell pairs                 ...      2145
Shell pairs after pre-screening             ...      2014
Total number of primitive shell pairs       ...     11826
Primitive shell pairs kept                  ...      7494
          la=0 lb=0:    618 shell pairs
          la=1 lb=0:    737 shell pairs
          la=1 lb=1:    237 shell pairs
          la=2 lb=0:    244 shell pairs
          la=2 lb=1:    150 shell pairs
          la=2 lb=2:     28 shell pairs

Checking whether 4 symmetric matrices of dimension 137 fit in memory
:Max Core in MB      =   4096.00
 MB in use           =      4.10
 MB left             =   4091.90
 MB needed           =      0.29
 Data fit in memory  = YES
Calculating Nuclear repulsion               ... done (  0.0 sec) ENN=    382.990550305246 Eh

Diagonalization of the overlap matrix:
Smallest eigenvalue                        ... 3.641e-03
Time for diagonalization                   ...    0.001 sec
Threshold for overlap eigenvalues          ... 1.000e-07
Number of eigenvalues below threshold      ... 0
Time for construction of square roots      ...    0.000 sec
Total time needed                          ...    0.001 sec

-------------------
DFT GRID GENERATION
-------------------

General Integration Accuracy     IntAcc      ... 4.388
Radial Grid Type                 RadialGrid  ... OptM3 with GC (2021)
Angular Grid (max. ang.)         AngularGrid ... 4 (Lebedev-302)
Angular grid pruning method      GridPruning ... 4 (adaptive)
Weight generation scheme         WeightScheme... mBecke (2022)
Basis function cutoff            BFCut       ... 1.0000e-11
Integration weight cutoff        WCut        ... 1.0000e-14
Partially contracted basis set               ... off
Rotationally invariant grid construction     ... off
Angular grids for H and He will be reduced by one unit

Total number of grid points                  ...    66176
Total number of batches                      ...     1041
Average number of points per batch           ...       63
Average number of grid points per atom       ...     4727
Grids setup in   0.2 sec
Initializing property integral containers    ... done (  0.0 sec)

SHARK setup successfully completed in   0.3 seconds

Maximum memory used throughout the entire STARTUP-calculation: 25.8 MB
-------------------------------------------------------------------------------
                                 ORCA GUESS
                   Start orbitals & Density for SCF / CASSCF
-------------------------------------------------------------------------------

------------
SCF SETTINGS
------------
Hamiltonian:
 Ab initio Hamiltonian  Method          .... Hartree-Fock(GTOs)


General Settings:
 Integral files         IntName         .... 2
 Hartree-Fock type      HFTyp           .... RHF
 Total Charge           Charge          ....    0
 Multiplicity           Mult            ....    1
 Number of Electrons    NEL             ....   64
 Basis Dimension        Dim             ....  137
 Nuclear Repulsion      ENuc            ....    382.9905503052 Eh

Convergence Acceleration:
 AO-DIIS                CNVDIIS         .... on
   Start iteration      DIISMaxIt       ....    12
   Startup error        DIISStart       ....  0.200000
   # of expansion vecs  DIISMaxEq       ....     5
   Bias factor          DIISBfac        ....   1.050
   Max. coefficient     DIISMaxC        ....  10.000
 MO-DIIS                CNVKDIIS        .... off
 Trust-Rad. Augm. Hess. CNVTRAH         .... auto
   Auto Start mean grad. ratio tolernc. ....  1.125000
   Auto Start start iteration           ....    50
   Auto Start num. interpolation iter.  ....    10
   Max. Number of Micro iterations      ....    24
   Max. Number of Macro iterations      .... Maxiter - #DIIS iter
   Number of Davidson start vectors     ....     2
   Converg. threshold    (grad. norm)   ....   1.000e-05
   Grad. Scal. Fac. for Micro threshold ....   0.100
   Minimum threshold for Micro iter.    ....   1.000e-02
   NR start threshold (gradient norm)   ....   1.000e-04
   Initial trust radius                 ....   0.400
   Minimum AH scaling param. (alpha)    ....   1.000
   Maximum AH scaling param. (alpha)    .... 1000.000
   Quad. conv. algorithm                .... NR
   White noise on init. David. guess    .... on
   Maximum white noise                  ....   0.010
   Pseudo random numbers                .... off
   Inactive MOs                         .... canonical
   Orbital update algorithm             .... Taylor
   Preconditioner                       .... Diag
   Full preconditioner red. dimension   ....   250
 SOSCF                 CNVSOSCF           .... on
   Start iteration     SOSCFMaxIt         ....   150
   Startup grad/error  SOSCFStart         ....  0.003300
   Hessian update      SOSCFHessUp        .... L-BFGS
   Autom. constraints  SOSCFAutoConstrain .... off
 Level Shifting         CNVShift        .... on
   Level shift para.    LevelShift      ....    0.2500
   Turn off err/grad.   ShiftErr        ....    0.0010
 Zerner damping         CNVZerner       .... off
 Static damping         CNVDamp         .... on
   Fraction old density DampFac         ....    0.7000
   Max. Damping (<1)    DampMax         ....    0.9800
   Min. Damping (>=0)   DampMin         ....    0.0000
   Turn off err/grad.   DampErr         ....    0.1000

SCF Procedure:
 Maximum # iterations   MaxIter         ....   125
 SCF integral mode      SCFMode         .... Direct
   Integral package                     .... SHARK and LIBINT hybrid scheme
 Reset frequency        DirectResetFreq ....    20
 Integral Threshold     Thresh          ....  2.500e-11 Eh
 Primitive CutOff       TCut            ....  2.500e-12 Eh

Convergence Tolerance:
 Convergence Check Mode ConvCheckMode   .... Total+1el-Energy
 Convergence forced     ConvForced      .... 1
 Energy Change          TolE            ....  1.000e-08 Eh
 1-El. energy change                    ....  1.000e-05 Eh
 Orbital Gradient       TolG            ....  1.000e-05
 Orbital Rotation angle TolX            ....  1.000e-05
 DIIS Error             TolErr          ....  5.000e-07

------------------------------
INITIAL GUESS: MODEL POTENTIAL
------------------------------
Loading Hartree-Fock densities                     ... done
Calculating cut-offs                               ... done
Initializing the effective Hamiltonian             ... done
Setting up the integral package (SHARK)            ... done
Starting the Coulomb interaction                   ... done (   0.0 sec)
Making the grid                                    ... done (   0.1 sec)
Mapping shells                                     ... done
Starting the XC term evaluation                    ... done (   0.0 sec)
Transforming the Hamiltonian                       ... done (   0.0 sec)
Diagonalizing the Hamiltonian                      ... done (   0.0 sec)
Back transforming the eigenvectors                 ... done (   0.0 sec)
Now organizing SCF variables                       ... done
                      ------------------
                      INITIAL GUESS DONE (   0.1 sec)
                      ------------------
             **** ENERGY FILE WAS UPDATED (2.en.tmp) ****
Finished Guess after   0.1 sec
Maximum memory used throughout the entire GUESS-calculation: 8.3 MB

-------------------------------------------------------------------------------------------
                                      ORCA LEAN-SCF
                              memory conserving SCF solver
-------------------------------------------------------------------------------------------

----------------------------------------D-I-I-S--------------------------------------------
Iteration    Energy (Eh)           Delta-E    RMSDP     MaxDP     DIISErr   Damp  Time(sec)
-------------------------------------------------------------------------------------------
               ***  Starting incremental Fock matrix formation  ***
    1    -719.1058360857069829     0.00e+00  2.85e-03  6.58e-02  2.51e-01  0.700   0.9
    2    -719.2073743594943380    -1.02e-01  2.13e-03  4.72e-02  1.54e-01  0.700   0.8
                               ***Turning on AO-DIIS***
    3    -719.2661772101211000    -5.88e-02  1.17e-03  2.75e-02  8.52e-02  0.700   0.8
    4    -719.3032682927386077    -3.71e-02  2.68e-03  6.51e-02  5.65e-02  0.000   0.8
    5    -719.3863316311634435    -8.31e-02  3.25e-04  4.29e-03  4.67e-03  0.000   0.8
                              *** Initializing SOSCF ***
---------------------------------------S-O-S-C-F--------------------------------------
Iteration    Energy (Eh)           Delta-E    RMSDP     MaxDP     MaxGrad    Time(sec)
--------------------------------------------------------------------------------------
    6    -719.3867258605217785    -3.94e-04  1.59e-04  2.09e-03  2.21e-03     0.8
               *** Restarting incremental Fock matrix formation ***
    7    -719.3868141664098630    -8.83e-05  9.74e-05  1.60e-03  1.29e-03     0.8
    8    -719.3868414198865366    -2.73e-05  1.06e-04  1.73e-03  3.05e-04     0.7
    9    -719.3868509410709748    -9.52e-06  2.01e-05  2.68e-04  1.83e-04     0.7
   10    -719.3868518096043090    -8.69e-07  7.26e-06  9.94e-05  4.46e-05     0.7
   11    -719.3868519067483476    -9.71e-08  2.89e-06  6.67e-05  2.02e-05     0.6
   12    -719.3868519189139761    -1.22e-08  6.50e-07  1.79e-05  5.37e-06     0.6
   13    -719.3868519199039611    -9.90e-10  1.74e-07  4.38e-06  9.67e-07     0.5
                 **** Energy Check signals convergence ****

               *****************************************************
               *                     SUCCESS                       *
               *           SCF CONVERGED AFTER  13 CYCLES          *
               *****************************************************

             **** ENERGY FILE WAS UPDATED (2.en.tmp) ****

----------------
TOTAL SCF ENERGY
----------------

Total Energy       :       -719.38685192135461 Eh          -19575.51144 eV

Components:
Nuclear Repulsion  :        382.99055030524630 Eh           10421.70270 eV
Electronic Energy  :      -1102.37740222660091 Eh          -29997.21414 eV
One Electron Energy:      -1750.73579052041578 Eh          -47639.94283 eV
Two Electron Energy:        648.35838829381487 Eh           17642.72868 eV

Virial components:
Potential Energy   :      -1438.48699077490460 Eh          -39143.22102 eV
Kinetic Energy     :        719.10013885354999 Eh           19567.70958 eV
Virial Ratio       :          2.00039871090591

---------------
SCF CONVERGENCE
---------------

  Last Energy change         ...    9.8998e-10  Tolerance :   1.0000e-08
  Last MAX-Density change    ...    4.3791e-06  Tolerance :   1.0000e-07
  Last RMS-Density change    ...    1.7358e-07  Tolerance :   5.0000e-09
  Last DIIS Error            ...    2.2102e-03  Tolerance :   5.0000e-07
  Last Orbital Gradient      ...    9.6720e-07  Tolerance :   1.0000e-05
  Last Orbital Rotation      ...    8.6565e-07  Tolerance :   1.0000e-05


----------------
ORBITAL ENERGIES
----------------

  NO   OCC          E(Eh)            E(eV) 
   0   2.0000     -91.936627     -2501.7228 
   1   2.0000     -20.620694      -561.1176 
   2   2.0000     -20.559045      -559.4400 
   3   2.0000     -15.559131      -423.3855 
   4   2.0000     -11.388593      -309.8994 
   5   2.0000     -11.287718      -307.1544 
   6   2.0000     -11.273270      -306.7613 
   7   2.0000      -8.953284      -243.6313 
   8   2.0000      -6.635549      -180.5625 
   9   2.0000      -6.634129      -180.5238 
  10   2.0000      -6.631913      -180.4635 
  11   2.0000      -1.473733       -40.1023 
  12   2.0000      -1.368494       -37.2386 
  13   2.0000      -1.210236       -32.9322 
  14   2.0000      -1.067609       -29.0511 
  15   2.0000      -0.959455       -26.1081 
  16   2.0000      -0.878083       -23.8938 
  17   2.0000      -0.800879       -21.7930 
  18   2.0000      -0.724821       -19.7234 
  19   2.0000      -0.702458       -19.1149 
  20   2.0000      -0.669382       -18.2148 
  21   2.0000      -0.644971       -17.5505 
  22   2.0000      -0.614820       -16.7301 
  23   2.0000      -0.602926       -16.4064 
  24   2.0000      -0.570161       -15.5149 
  25   2.0000      -0.546129       -14.8609 
  26   2.0000      -0.519558       -14.1379 
  27   2.0000      -0.485814       -13.2197 
  28   2.0000      -0.465210       -12.6590 
  29   2.0000      -0.455843       -12.4041 
  30   2.0000      -0.409626       -11.1465 
  31   2.0000      -0.359347        -9.7783 
  32   0.0000       0.164052         4.4641 
  33   0.0000       0.183349         4.9892 
  34   0.0000       0.220664         6.0046 
  35   0.0000       0.225100         6.1253 
  36   0.0000       0.249412         6.7868 
  37   0.0000       0.258217         7.0264 
  38   0.0000       0.291016         7.9189 
  39   0.0000       0.305313         8.3080 
  40   0.0000       0.327019         8.8986 
  41   0.0000       0.378386        10.2964 
  42   0.0000       0.411331        11.1929 
*Only the first 10 virtual orbitals were printed.

                    ********************************
                    * MULLIKEN POPULATION ANALYSIS *
                    ********************************

-----------------------
MULLIKEN ATOMIC CHARGES
-----------------------
   0 H :    0.161121
   1 C :   -0.386891
   2 H :    0.167539
   3 H :    0.049647
   4 O :   -0.618590
   5 C :   -0.028805
   6 H :    0.277895
   7 S :    0.003835
   8 N :   -0.681068
   9 H :    0.289283
  10 C :    0.795642
  11 H :    0.185792
  12 O :   -0.587674
  13 H :    0.372273
Sum of atomic charges:    0.0000000

--------------------------------
MULLIKEN REDUCED ORBITAL CHARGES
--------------------------------
  0 H s       :     0.826775  s :     0.826775
      pz      :     0.007792  p :     0.012104
      px      :     0.001566
      py      :     0.002747

  1 C s       :     3.311283  s :     3.311283
      pz      :     1.006745  p :     3.027394
      px      :     0.968771
      py      :     1.051878
      dz2     :     0.008803  d :     0.048214
      dxz     :     0.004271
      dyz     :     0.013790
      dx2y2   :     0.007364
      dxy     :     0.013985

  2 H s       :     0.819528  s :     0.819528
      pz      :     0.007313  p :     0.012934
      px      :     0.001605
      py      :     0.004016

  3 H s       :     0.932928  s :     0.932928
      pz      :     0.006778  p :     0.017425
      px      :     0.004231
      py      :     0.006417

  4 O s       :     3.835785  s :     3.835785
      pz      :     1.539501  p :     4.757123
      px      :     1.662204
      py      :     1.555418
      dz2     :     0.011131  d :     0.025681
      dxz     :     0.004489
      dyz     :     0.005112
      dx2y2   :     0.000264
      dxy     :     0.004685

  5 C s       :     3.204780  s :     3.204780
      pz      :     0.995241  p :     2.753323
      px      :     0.911043
      py      :     0.847039
      dz2     :     0.016964  d :     0.070702
      dxz     :     0.006162
      dyz     :     0.017965
      dx2y2   :     0.009372
      dxy     :     0.020239

  6 H s       :     0.695921  s :     0.695921
      pz      :     0.003843  p :     0.026184
      px      :     0.013034
      py      :     0.009307

  7 S s       :     5.836223  s :     5.836223
      pz      :     2.912274  p :    10.090208
      px      :     3.893268
      py      :     3.284666
      dz2     :     0.006392  d :     0.069733
      dxz     :     0.004915
      dyz     :     0.045351
      dx2y2   :     0.008545
      dxy     :     0.004530

  8 N s       :     3.604338  s :     3.604338
      pz      :     1.140178  p :     4.042324
      px      :     1.524675
      py      :     1.377472
      dz2     :     0.007023  d :     0.034406
      dxz     :     0.002181
      dyz     :     0.013503
      dx2y2   :     0.006825
      dxy     :     0.004873

  9 H s       :     0.684572  s :     0.684572
      pz      :     0.013429  p :     0.026145
      px      :     0.005761
      py      :     0.006955

 10 C s       :     2.949604  s :     2.949604
      pz      :     0.625917  p :     2.106873
      px      :     0.733006
      py      :     0.747950
      dz2     :     0.050197  d :     0.147881
      dxz     :     0.034855
      dyz     :     0.038303
      dx2y2   :     0.009860
      dxy     :     0.014667

 11 H s       :     0.801454  s :     0.801454
      pz      :     0.001663  p :     0.012754
      px      :     0.005067
      py      :     0.006024

 12 O s       :     3.873349  s :     3.873349
      pz      :     1.505339  p :     4.681550
      px      :     1.557458
      py      :     1.618752
      dz2     :     0.008351  d :     0.032775
      dxz     :     0.009474
      dyz     :     0.008910
      dx2y2   :     0.004056
      dxy     :     0.001984

 13 H s       :     0.586115  s :     0.586115
      pz      :     0.006022  p :     0.041612
      px      :     0.016141
      py      :     0.019448



                     *******************************
                     * LOEWDIN POPULATION ANALYSIS *
                     *******************************

----------------------
LOEWDIN ATOMIC CHARGES
----------------------
   0 H :    0.079997
   1 C :   -0.206634
   2 H :    0.088393
   3 H :    0.026029
   4 O :   -0.194190
   5 C :   -0.030842
   6 H :    0.132291
   7 S :    0.033790
   8 N :   -0.275091
   9 H :    0.138064
  10 C :    0.228598
  11 H :    0.088552
  12 O :   -0.311599
  13 H :    0.202640

-------------------------------
LOEWDIN REDUCED ORBITAL CHARGES
-------------------------------
  0 H s       :     0.880351  s :     0.880351
      pz      :     0.023268  p :     0.039652
      px      :     0.006460
      py      :     0.009924

  1 C s       :     2.941803  s :     2.941803
      pz      :     1.056297  p :     3.175322
      px      :     1.043751
      py      :     1.075274
      dz2     :     0.015577  d :     0.089509
      dxz     :     0.008979
      dyz     :     0.024696
      dx2y2   :     0.014273
      dxy     :     0.025984

  2 H s       :     0.869446  s :     0.869446
      pz      :     0.022580  p :     0.042161
      px      :     0.006450
      py      :     0.013131

  3 H s       :     0.926541  s :     0.926541
      pz      :     0.017879  p :     0.047430
      px      :     0.011148
      py      :     0.018403

  4 O s       :     3.455833  s :     3.455833
      pz      :     1.548549  p :     4.689204
      px      :     1.619813
      py      :     1.520842
      dz2     :     0.019851  d :     0.049154
      dxz     :     0.008120
      dyz     :     0.010613
      dx2y2   :     0.000839
      dxy     :     0.009731

  5 C s       :     2.874867  s :     2.874867
      pz      :     1.019503  p :     3.014498
      px      :     1.016308
      py      :     0.978687
      dz2     :     0.032350  d :     0.141477
      dxz     :     0.012239
      dyz     :     0.034625
      dx2y2   :     0.019795
      dxy     :     0.042469

  6 H s       :     0.786013  s :     0.786013
      pz      :     0.011929  p :     0.081695
      px      :     0.042099
      py      :     0.027668

  7 S s       :     5.622901  s :     5.622901
      pz      :     2.994948  p :    10.265506
      px      :     3.880337
      py      :     3.390221
      dz2     :     0.008064  d :     0.077802
      dxz     :     0.005962
      dyz     :     0.049665
      dx2y2   :     0.009091
      dxy     :     0.005020

  8 N s       :     3.187840  s :     3.187840
      pz      :     1.157438  p :     4.026241
      px      :     1.490258
      py      :     1.378545
      dz2     :     0.015157  d :     0.061011
      dxz     :     0.004191
      dyz     :     0.023139
      dx2y2   :     0.009127
      dxy     :     0.009397

  9 H s       :     0.779585  s :     0.779585
      pz      :     0.040673  p :     0.082351
      px      :     0.018897
      py      :     0.022780

 10 C s       :     2.845776  s :     2.845776
      pz      :     0.931240  p :     2.605532
      px      :     0.826702
      py      :     0.847591
      dz2     :     0.118327  d :     0.320093
      dxz     :     0.073351
      dyz     :     0.080555
      dx2y2   :     0.018620
      dxy     :     0.029240

 11 H s       :     0.868521  s :     0.868521
      pz      :     0.007044  p :     0.042927
      px      :     0.016840
      py      :     0.019043

 12 O s       :     3.547368  s :     3.547368
      pz      :     1.556138  p :     4.706743
      px      :     1.547826
      py      :     1.602778
      dz2     :     0.016853  d :     0.057488
      dxz     :     0.016964
      dyz     :     0.014857
      dx2y2   :     0.004365
      dxy     :     0.004449

 13 H s       :     0.677248  s :     0.677248
      pz      :     0.019780  p :     0.120112
      px      :     0.046284
      py      :     0.054047



                      *****************************
                      * MAYER POPULATION ANALYSIS *
                      *****************************

  NA   - Mulliken gross atomic population
  ZA   - Total nuclear charge
  QA   - Mulliken gross atomic charge
  VA   - Mayer's total valence
  BVA  - Mayer's bonded valence
  FA   - Mayer's free valence

  ATOM       NA         ZA         QA         VA         BVA        FA
  0 H      0.8389     1.0000     0.1611     0.9408     0.9408    -0.0000
  1 C      6.3869     6.0000    -0.3869     3.7777     3.7777     0.0000
  2 H      0.8325     1.0000     0.1675     0.9418     0.9418    -0.0000
  3 H      0.9504     1.0000     0.0496     0.9666     0.9666    -0.0000
  4 O      8.6186     8.0000    -0.6186     1.8459     1.8459     0.0000
  5 C      6.0288     6.0000    -0.0288     3.7490     3.7490    -0.0000
  6 H      0.7221     1.0000     0.2779     0.9027     0.9027    -0.0000
  7 S     15.9962    16.0000     0.0038     1.9163     1.9163     0.0000
  8 N      7.6811     7.0000    -0.6811     2.7631     2.7631    -0.0000
  9 H      0.7107     1.0000     0.2893     0.9034     0.9034     0.0000
 10 C      5.2044     6.0000     0.7956     3.6723     3.6723     0.0000
 11 H      0.8142     1.0000     0.1858     0.9310     0.9310     0.0000
 12 O      8.5877     8.0000    -0.5877     1.8944     1.8944     0.0000
 13 H      0.6277     1.0000     0.3723     0.8715     0.8715     0.0000

  Mayer bond orders larger than 0.100000
B(  0-H ,  5-C ) :   0.9610 B(  1-C ,  2-H ) :   0.9537 B(  1-C ,  5-C ) :   0.9473 
B(  1-C ,  7-S ) :   0.9750 B(  1-C , 11-H ) :   0.9505 B(  3-H ,  7-S ) :   0.9572 
B(  4-O , 10-C ) :   0.9849 B(  4-O , 13-H ) :   0.8394 B(  5-C ,  8-N ) :   0.9932 
B(  5-C , 10-C ) :   0.9001 B(  6-H ,  8-N ) :   0.9082 B(  8-N ,  9-H ) :   0.8938 
B( 10-C , 12-O ) :   1.8260 

-------
TIMINGS
-------

Total SCF time: 0 days 0 hours 0 min 9 sec 

Total time                  ....       9.972 sec
Sum of individual times     ....       9.491 sec  ( 95.2%)

SCF preparation             ....       0.015 sec  (  0.2%)
Fock matrix formation       ....       9.448 sec  ( 94.7%)
  Startup                   ....       0.000 sec  (  0.0% of F)
  Coulomb+Exchange Fock     ....       9.919 sec  (105.0% of F)
Diagonalization             ....       0.000 sec  (  0.0%)
Density matrix formation    ....       0.003 sec  (  0.0%)
Total Energy calculation    ....       0.001 sec  (  0.0%)
Population analysis         ....       0.002 sec  (  0.0%)
Orbital Transformation      ....       0.003 sec  (  0.0%)
Orbital Orthonormalization  ....       0.000 sec  (  0.0%)
DIIS solution               ....       0.012 sec  (  0.1%)
SOSCF solution              ....       0.008 sec  (  0.1%)
Finished LeanSCF after  10.0 sec

Maximum memory used throughout the entire LEANSCF-calculation: 11.9 MB

------------------------------------------------------------------------------
                                ORCA  MP2 
------------------------------------------------------------------------------

Freezing NCore=22 chemical core electrons
MP2 will be done in the AO integral direct mode
The Q1-step will be done using symmetric double matrices
Dimension of the basis                    ...  137
Memory devoted for MP2                    ... 4096 MB   
Memory needed for all in one shot         ...  208 MB
Number of MOs that can be treated together...  413      
MP2 density construction                  ... relaxed
The MP2 gradient is requested => amplitudes will be stored on disk
Total number of MOs              ...   21
Number of MOs treated per batch  ...   21 
Number of batches necessary      ...    1 
OPERATORS   0/  0 PASS   0
-----------------------------------------------
 MP2 CORRELATION ENERGY   :     -1.055060097 Eh
-----------------------------------------------


---------------------
MP2 DENSITY FORMATION
---------------------

Completing the external part of the density      ... done
Storing the unrelaxed density                    ... done

Calculating G(D)                                 ... done
Completing the Lagrangian                        ... done
Solving the Z-vector equations                   ... 
-------------------
SHARK CP-SCF DRIVER
-------------------

Dimension of the orbital basis          ...    137
Dimension of the CPSCF-problem          ...   3360
Number of operators                     ...      1
Max. number of iterations               ...    128
Convergence Tolerance                   ... 1.0e-04
Number of perturbations                 ...      1
Perturbation type                       ... REAL

----------------------------
POPLE LINEAR EQUATION SOLVER
----------------------------

  ITERATION   0:   ||err||_max =   1.2688e-01 (   1.0 sec)
  ITERATION   1:   ||err||_max =   3.1459e-02 (   1.0 sec)
  ITERATION   2:   ||err||_max =   1.3477e-02 (   1.1 sec)
  ITERATION   3:   ||err||_max =   3.5387e-03 (   1.0 sec)
  ITERATION   4:   ||err||_max =   1.0887e-03 (   1.1 sec)
  ITERATION   5:   ||err||_max =   2.9295e-04 (   1.0 sec)
  ITERATION   6:   ||err||_max =   8.9514e-05 (   1.1 sec)
                                                 ... done
Finalizing the relaxed density                   ... done
Transforming P to the AO basis                   ... done
Storing the relaxed density                      ... done

------------------------------------
ENERGY WEIGHTED DENSITY FINALIZATION
------------------------------------

Gathering the parts of the W-matrix              ...                                                      done
Forming the Z-density                            ... done
Transforming Z to the AO basis                   ... done
Calculating G(Z)                                 ... done
Finalizing the W-matrix                          ...                                                      done
Transforming W to the AO basis and storing       ... done

                *********************************************
                * UNRELAXED MP2 DENSITY POPULATION ANALYSIS *
                *********************************************

------------------------------------------------------------------------------
                           ORCA POPULATION ANALYSIS
------------------------------------------------------------------------------
Input electron density              ... 2.pmp2ur
BaseName (.gbw .S,...)              ... 2

                    ********************************
                    * MULLIKEN POPULATION ANALYSIS *
                    ********************************

-----------------------
MULLIKEN ATOMIC CHARGES
-----------------------
   0 H :    0.161675
   1 C :   -0.389853
   2 H :    0.167949
   3 H :    0.049868
   4 O :   -0.604585
   5 C :   -0.034621
   6 H :    0.276753
   7 S :    0.006431
   8 N :   -0.673564
   9 H :    0.287579
  10 C :    0.762041
  11 H :    0.185992
  12 O :   -0.564736
  13 H :    0.369070
Sum of atomic charges:    0.0000000

--------------------------------
MULLIKEN REDUCED ORBITAL CHARGES
--------------------------------
  0 H s       :     0.823517  s :     0.823517
      pz      :     0.008491  p :     0.014808
      px      :     0.002616
      py      :     0.003702
  1 C s       :     3.307104  s :     3.307104
      pz      :     1.003499  p :     3.018422
      px      :     0.966714
      py      :     1.048209
      dz2     :     0.011968  d :     0.064327
      dxz     :     0.007767
      dyz     :     0.016774
      dx2y2   :     0.010719
      dxy     :     0.017099
  2 H s       :     0.816471  s :     0.816471
      pz      :     0.008030  p :     0.015580
      px      :     0.002639
      py      :     0.004911
  3 H s       :     0.929777  s :     0.929777
      pz      :     0.007630  p :     0.020355
      px      :     0.005379
      py      :     0.007345
  4 O s       :     3.831551  s :     3.831551
      pz      :     1.529082  p :     4.724369
      px      :     1.650365
      py      :     1.544922
      dz2     :     0.015528  d :     0.048665
      dxz     :     0.009155
      dyz     :     0.009689
      dx2y2   :     0.004970
      dxy     :     0.009324
  5 C s       :     3.201525  s :     3.201525
      pz      :     0.992862  p :     2.746956
      px      :     0.907922
      py      :     0.846172
      dz2     :     0.019805  d :     0.086140
      dxz     :     0.009712
      dyz     :     0.020716
      dx2y2   :     0.012947
      dxy     :     0.022960
  6 H s       :     0.695052  s :     0.695052
      pz      :     0.004672  p :     0.028195
      px      :     0.013555
      py      :     0.009968
  7 S s       :     5.827449  s :     5.827449
      pz      :     2.911739  p :    10.056528
      px      :     3.871558
      py      :     3.273231
      dz2     :     0.013820  d :     0.109592
      dxz     :     0.013666
      dyz     :     0.051530
      dx2y2   :     0.017246
      dxy     :     0.013329
  8 N s       :     3.599749  s :     3.599749
      pz      :     1.134332  p :     4.017489
      px      :     1.514452
      py      :     1.368705
      dz2     :     0.011358  d :     0.056326
      dxz     :     0.006718
      dyz     :     0.017401
      dx2y2   :     0.011346
      dxy     :     0.009503
  9 H s       :     0.684288  s :     0.684288
      pz      :     0.013781  p :     0.028133
      px      :     0.006638
      py      :     0.007715
 10 C s       :     2.951420  s :     2.951420
      pz      :     0.630927  p :     2.128161
      px      :     0.741862
      py      :     0.755371
      dz2     :     0.052023  d :     0.158379
      dxz     :     0.036891
      dyz     :     0.040302
      dx2y2   :     0.012427
      dxy     :     0.016735
 11 H s       :     0.798651  s :     0.798651
      pz      :     0.002671  p :     0.015356
      px      :     0.005899
      py      :     0.006787
 12 O s       :     3.868818  s :     3.868818
      pz      :     1.494995  p :     4.641525
      px      :     1.542766
      py      :     1.603764
      dz2     :     0.012766  d :     0.054393
      dxz     :     0.013634
      dyz     :     0.013190
      dx2y2   :     0.008421
      dxy     :     0.006381
 13 H s       :     0.588184  s :     0.588184
      pz      :     0.006648  p :     0.042745
      px      :     0.016475
      py      :     0.019623


                     *******************************
                     * LOEWDIN POPULATION ANALYSIS *
                     *******************************

----------------------
LOEWDIN ATOMIC CHARGES
----------------------
   0 H :    0.080145
   1 C :   -0.209941
   2 H :    0.088478
   3 H :    0.025214
   4 O :   -0.185301
   5 C :   -0.034864
   6 H :    0.131672
   7 S :    0.038323
   8 N :   -0.270702
   9 H :    0.137132
  10 C :    0.204061
  11 H :    0.088586
  12 O :   -0.293092
  13 H :    0.200289

-------------------------------
LOEWDIN REDUCED ORBITAL CHARGES
-------------------------------
  0 H s       :     0.875443  s :     0.875443
      pz      :     0.025172  p :     0.044411
      px      :     0.007818
      py      :     0.011422
  1 C s       :     2.941590  s :     2.941590
      pz      :     1.051709  p :     3.160455
      px      :     1.038638
      py      :     1.070108
      dz2     :     0.019328  d :     0.107897
      dxz     :     0.012649
      dyz     :     0.028175
      dx2y2   :     0.017935
      dxy     :     0.029809
  2 H s       :     0.864802  s :     0.864802
      pz      :     0.024381  p :     0.046720
      px      :     0.007706
      py      :     0.014634
  3 H s       :     0.923453  s :     0.923453
      pz      :     0.019268  p :     0.051332
      px      :     0.012273
      py      :     0.019792
  4 O s       :     3.453903  s :     3.453903
      pz      :     1.538733  p :     4.657731
      px      :     1.608385
      py      :     1.510613
      dz2     :     0.025031  d :     0.073667
      dxz     :     0.012927
      dyz     :     0.015456
      dx2y2   :     0.005436
      dxy     :     0.014817
  5 C s       :     2.875256  s :     2.875256
      pz      :     1.014805  p :     3.000300
      px      :     1.010791
      py      :     0.974704
      dz2     :     0.035664  d :     0.159308
      dxz     :     0.015968
      dyz     :     0.038220
      dx2y2   :     0.023776
      dxy     :     0.045680
  6 H s       :     0.782938  s :     0.782938
      pz      :     0.012961  p :     0.085390
      px      :     0.043721
      py      :     0.028708
  7 S s       :     5.614729  s :     5.614729
      pz      :     2.992067  p :    10.226876
      px      :     3.858513
      py      :     3.376297
      dz2     :     0.015878  d :     0.120072
      dxz     :     0.015082
      dyz     :     0.056582
      dx2y2   :     0.018445
      dxy     :     0.014086
  8 N s       :     3.185975  s :     3.185975
      pz      :     1.150819  p :     3.999844
      px      :     1.479753
      py      :     1.369272
      dz2     :     0.019880  d :     0.084883
      dxz     :     0.008754
      dyz     :     0.027856
      dx2y2   :     0.013949
      dxy     :     0.014444
  9 H s       :     0.776898  s :     0.776898
      pz      :     0.042186  p :     0.085970
      px      :     0.019825
      py      :     0.023959
 10 C s       :     2.846607  s :     2.846607
      pz      :     0.931920  p :     2.617844
      px      :     0.833190
      py      :     0.852734
      dz2     :     0.120144  d :     0.331488
      dxz     :     0.075527
      dyz     :     0.082522
      dx2y2   :     0.021293
      dxy     :     0.032001
 11 H s       :     0.863993  s :     0.863993
      pz      :     0.008304  p :     0.047421
      px      :     0.018447
      py      :     0.020670
 12 O s       :     3.544400  s :     3.544400
      pz      :     1.545227  p :     4.667026
      px      :     1.533518
      py      :     1.588281
      dz2     :     0.021936  d :     0.081665
      dxz     :     0.022012
      dyz     :     0.019818
      dx2y2   :     0.008901
      dxy     :     0.009000
 13 H s       :     0.677156  s :     0.677156
      pz      :     0.020547  p :     0.122556
      px      :     0.047101
      py      :     0.054907


                      *****************************
                      * MAYER POPULATION ANALYSIS *
                      *****************************

  NA   - Mulliken gross atomic population
  ZA   - Total nuclear charge
  QA   - Mulliken gross atomic charge
  VA   - Mayer's total valence
  BVA  - Mayer's bonded valence
  FA   - Mayer's free valence

  ATOM       NA         ZA         QA         VA         BVA        FA
  0 H      0.8383     1.0000     0.1617     0.9492     0.9016     0.0476
  1 C      6.3899     6.0000    -0.3899     3.8707     3.5812     0.2895
  2 H      0.8321     1.0000     0.1679     0.9499     0.9029     0.0471
  3 H      0.9501     1.0000     0.0499     0.9761     0.9219     0.0541
  4 O      8.6046     8.0000    -0.6046     2.1034     1.7469     0.3565
  5 C      6.0346     6.0000    -0.0346     3.8240     3.5455     0.2785
  6 H      0.7232     1.0000     0.2768     0.9097     0.8643     0.0454
  7 S     15.9936    16.0000     0.0064     2.1647     1.8032     0.3615
  8 N      7.6736     7.0000    -0.6736     2.9559     2.6301     0.3258
  9 H      0.7124     1.0000     0.2876     0.9107     0.8654     0.0453
 10 C      5.2380     6.0000     0.7620     3.7364     3.4461     0.2904
 11 H      0.8140     1.0000     0.1860     0.9387     0.8922     0.0465
 12 O      8.5647     8.0000    -0.5647     2.1600     1.7620     0.3979
 13 H      0.6309     1.0000     0.3691     0.8783     0.8340     0.0443

  Mayer bond orders larger than 0.100000
B(  0-H ,  5-C ) :   0.9236 B(  1-C ,  2-H ) :   0.9163 B(  1-C ,  5-C ) :   0.8934 
B(  1-C ,  7-S ) :   0.9093 B(  1-C , 11-H ) :   0.9134 B(  3-H ,  7-S ) :   0.9135 
B(  4-O , 10-C ) :   0.9305 B(  4-O , 13-H ) :   0.8046 B(  5-C ,  8-N ) :   0.9362 
B(  5-C , 10-C ) :   0.8510 B(  6-H ,  8-N ) :   0.8714 B(  8-N ,  9-H ) :   0.8574 
B( 10-C , 12-O ) :   1.7070 


                *******************************************
                * RELAXED MP2 DENSITY POPULATION ANALYSIS *
                *******************************************

------------------------------------------------------------------------------
                           ORCA POPULATION ANALYSIS
------------------------------------------------------------------------------
Input electron density              ... 2.pmp2re
BaseName (.gbw .S,...)              ... 2

                    ********************************
                    * MULLIKEN POPULATION ANALYSIS *
                    ********************************

-----------------------
MULLIKEN ATOMIC CHARGES
-----------------------
   0 H :    0.142706
   1 C :   -0.360796
   2 H :    0.154366
   3 H :    0.056923
   4 O :   -0.503789
   5 C :   -0.048990
   6 H :    0.262437
   7 S :   -0.008613
   8 N :   -0.612745
   9 H :    0.267594
  10 C :    0.571419
  11 H :    0.171157
  12 O :   -0.435005
  13 H :    0.343336
Sum of atomic charges:    0.0000000

--------------------------------
MULLIKEN REDUCED ORBITAL CHARGES
--------------------------------
  0 H s       :     0.843310  s :     0.843310
      pz      :     0.007515  p :     0.013984
      px      :     0.002876
      py      :     0.003593
  1 C s       :     3.286478  s :     3.286478
      pz      :     0.999041  p :     3.015339
      px      :     0.979562
      py      :     1.036736
      dz2     :     0.010884  d :     0.058979
      dxz     :     0.007633
      dyz     :     0.014803
      dx2y2   :     0.009984
      dxy     :     0.015676
  2 H s       :     0.830809  s :     0.830809
      pz      :     0.007204  p :     0.014826
      px      :     0.002875
      py      :     0.004747
  3 H s       :     0.923071  s :     0.923071
      pz      :     0.007268  p :     0.020007
      px      :     0.005713
      py      :     0.007026
  4 O s       :     3.814309  s :     3.814309
      pz      :     1.520224  p :     4.642288
      px      :     1.611768
      py      :     1.510295
      dz2     :     0.014258  d :     0.047192
      dxz     :     0.009258
      dyz     :     0.009431
      dx2y2   :     0.005024
      dxy     :     0.009222
  5 C s       :     3.182220  s :     3.182220
      pz      :     0.986073  p :     2.787786
      px      :     0.930271
      py      :     0.871442
      dz2     :     0.017552  d :     0.078984
      dxz     :     0.009821
      dyz     :     0.018744
      dx2y2   :     0.012904
      dxy     :     0.019963
  6 H s       :     0.710465  s :     0.710465
      pz      :     0.004950  p :     0.027098
      px      :     0.012488
      py      :     0.009660
  7 S s       :     5.832427  s :     5.832427
      pz      :     2.941160  p :    10.075273
      px      :     3.864455
      py      :     3.269658
      dz2     :     0.013148  d :     0.100914
      dxz     :     0.013068
      dyz     :     0.044450
      dx2y2   :     0.016940
      dxy     :     0.013308
  8 N s       :     3.582500  s :     3.582500
      pz      :     1.122484  p :     3.976844
      px      :     1.492267
      py      :     1.362093
      dz2     :     0.011034  d :     0.053401
      dxz     :     0.006760
      dyz     :     0.015213
      dx2y2   :     0.010870
      dxy     :     0.009523
  9 H s       :     0.705420  s :     0.705420
      pz      :     0.012341  p :     0.026987
      px      :     0.007014
      py      :     0.007631
 10 C s       :     2.971929  s :     2.971929
      pz      :     0.676037  p :     2.307896
      px      :     0.814455
      py      :     0.817404
      dz2     :     0.049639  d :     0.148757
      dxz     :     0.034818
      dyz     :     0.037777
      dx2y2   :     0.011473
      dxy     :     0.015050
 11 H s       :     0.814284  s :     0.814284
      pz      :     0.002907  p :     0.014559
      px      :     0.005444
      py      :     0.006209
 12 O s       :     3.844270  s :     3.844270
      pz      :     1.486000  p :     4.539077
      px      :     1.498090
      py      :     1.554987
      dz2     :     0.012493  d :     0.051658
      dxz     :     0.012493
      dyz     :     0.012252
      dx2y2   :     0.007886
      dxy     :     0.006533
 13 H s       :     0.615767  s :     0.615767
      pz      :     0.007170  p :     0.040897
      px      :     0.015557
      py      :     0.018170


                     *******************************
                     * LOEWDIN POPULATION ANALYSIS *
                     *******************************

----------------------
LOEWDIN ATOMIC CHARGES
----------------------
   0 H :    0.080091
   1 C :   -0.216704
   2 H :    0.088159
   3 H :    0.031909
   4 O :   -0.148892
   5 C :   -0.055652
   6 H :    0.131012
   7 S :    0.036644
   8 N :   -0.258765
   9 H :    0.133219
  10 C :    0.122703
  11 H :    0.087141
  12 O :   -0.221292
  13 H :    0.190426

-------------------------------
LOEWDIN REDUCED ORBITAL CHARGES
-------------------------------
  0 H s       :     0.875767  s :     0.875767
      pz      :     0.024360  p :     0.044142
      px      :     0.008259
      py      :     0.011523
  1 C s       :     2.943393  s :     2.943393
      pz      :     1.056223  p :     3.170020
      px      :     1.042367
      py      :     1.071430
      dz2     :     0.018457  d :     0.103290
      dxz     :     0.012438
      dyz     :     0.026309
      dx2y2   :     0.017308
      dxy     :     0.028777
  2 H s       :     0.865932  s :     0.865932
      pz      :     0.023558  p :     0.045909
      px      :     0.007916
      py      :     0.014434
  3 H s       :     0.916446  s :     0.916446
      pz      :     0.019201  p :     0.051645
      px      :     0.012575
      py      :     0.019869
  4 O s       :     3.460179  s :     3.460179
      pz      :     1.540238  p :     4.614169
      px      :     1.582866
      py      :     1.491066
      dz2     :     0.024712  d :     0.074544
      dxz     :     0.013468
      dyz     :     0.015636
      dx2y2   :     0.005605
      dxy     :     0.015122
  5 C s       :     2.879778  s :     2.879778
      pz      :     1.017072  p :     3.023289
      px      :     1.020462
      py      :     0.985755
      dz2     :     0.033274  d :     0.152585
      dxz     :     0.016213
      dyz     :     0.036355
      dx2y2   :     0.024228
      dxy     :     0.042515
  6 H s       :     0.784749  s :     0.784749
      pz      :     0.013058  p :     0.084239
      px      :     0.043004
      py      :     0.028176
  7 S s       :     5.622397  s :     5.622397
      pz      :     3.008569  p :    10.230186
      px      :     3.852864
      py      :     3.368753
      dz2     :     0.014938  d :     0.110773
      dxz     :     0.014345
      dyz     :     0.049401
      dx2y2   :     0.018108
      dxy     :     0.013980
  8 N s       :     3.187739  s :     3.187739
      pz      :     1.150574  p :     3.988319
      px      :     1.471656
      py      :     1.366089
      dz2     :     0.019599  d :     0.082706
      dxz     :     0.008915
      dyz     :     0.026144
      dx2y2   :     0.013640
      dxy     :     0.014408
  9 H s       :     0.782097  s :     0.782097
      pz      :     0.040757  p :     0.084683
      px      :     0.019924
      py      :     0.024002
 10 C s       :     2.849910  s :     2.849910
      pz      :     0.934979  p :     2.702657
      px      :     0.878255
      py      :     0.889423
      dz2     :     0.119586  d :     0.324730
      dxz     :     0.074238
      dyz     :     0.080940
      dx2y2   :     0.019456
      dxy     :     0.030511
 11 H s       :     0.866121  s :     0.866121
      pz      :     0.008429  p :     0.046739
      px      :     0.018117
      py      :     0.020192
 12 O s       :     3.546755  s :     3.546755
      pz      :     1.541791  p :     4.593213
      px      :     1.499472
      py      :     1.551949
      dz2     :     0.021991  d :     0.081325
      dxz     :     0.021550
      dyz     :     0.019630
      dx2y2   :     0.008946
      dxy     :     0.009207
 13 H s       :     0.689193  s :     0.689193
      pz      :     0.021193  p :     0.120382
      px      :     0.045941
      py      :     0.053247


                      *****************************
                      * MAYER POPULATION ANALYSIS *
                      *****************************

  NA   - Mulliken gross atomic population
  ZA   - Total nuclear charge
  QA   - Mulliken gross atomic charge
  VA   - Mayer's total valence
  BVA  - Mayer's bonded valence
  FA   - Mayer's free valence

  ATOM       NA         ZA         QA         VA         BVA        FA
  0 H      0.8573     1.0000     0.1427     0.9557     0.9081     0.0476
  1 C      6.3608     6.0000    -0.3608     3.9224     3.6367     0.2857
  2 H      0.8456     1.0000     0.1544     0.9548     0.9077     0.0471
  3 H      0.9431     1.0000     0.0569     0.9779     0.9240     0.0539
  4 O      8.5038     8.0000    -0.5038     2.2218     1.8742     0.3476
  5 C      6.0490     6.0000    -0.0490     3.8899     3.6161     0.2738
  6 H      0.7376     1.0000     0.2624     0.9166     0.8712     0.0454
  7 S     16.0086    16.0000    -0.0086     2.2093     1.8523     0.3570
  8 N      7.6127     7.0000    -0.6127     3.0259     2.7044     0.3215
  9 H      0.7324     1.0000     0.2676     0.9243     0.8793     0.0450
 10 C      5.4286     6.0000     0.5714     3.9568     3.6848     0.2720
 11 H      0.8288     1.0000     0.1712     0.9439     0.8974     0.0465
 12 O      8.4350     8.0000    -0.4350     2.3227     1.9400     0.3827
 13 H      0.6567     1.0000     0.3433     0.8994     0.8563     0.0431

  Mayer bond orders larger than 0.100000
B(  0-H ,  5-C ) :   0.9130 B(  1-C ,  2-H ) :   0.9141 B(  1-C ,  5-C ) :   0.9042 
B(  1-C ,  7-S ) :   0.9341 B(  1-C , 11-H ) :   0.9087 B(  3-H ,  7-S ) :   0.9114 
B(  4-O , 10-C ) :   1.0107 B(  4-O , 13-H ) :   0.8107 B(  5-C ,  8-N ) :   0.9695 
B(  5-C , 10-C ) :   0.8533 B(  6-H ,  8-N ) :   0.8728 B(  8-N ,  9-H ) :   0.8611 
B( 10-C , 12-O ) :   1.8261 


----------------------------------
MP2 DERIVATIVE INTEGRAL GENERATION
----------------------------------

Input SCF Electron Density              ... 2.scfp
Input Correlated Electron Density       ... 2.pmp2re
Input Energy Weighted Density           ... 2.wmp2.tmp
Input Wavefunction Amplitudes           ... 2.mp2tsaa.tmp

Nuclear repulsion gradient              ... done (  0.0 sec)
HCore & Overlap gradient  (SHARK)       ... done (  0.1 sec)
Analytic two-electron gradient terms    ... 
  Batch handling in the gradient evaluation:
  General contraction                   ... not used
  Memory available                      ... 4087.7 MB
  Memory per occupied orbital in Q2     ...    3.0 MB
  Memory per occupied orbital in Q3     ...    0.0 MB
  Total memory requirement per |i>      ...    3.0 MB
  Number of orbitals treated per batch  ...     21
  Number of batches to be done          ...      1
done (  6.4 sec)

---------------------------------------
MP2 TOTAL ENERGY:     -720.441912019 Eh
---------------------------------------

The final MP2 gradient
  0:   0.00066790   0.00110097   0.00259682
  1:   0.00204163  -0.00080444  -0.00992752
  2:  -0.00053440  -0.00144085   0.00113657
  3:  -0.00066083  -0.00038057   0.00074112
  4:  -0.00196314   0.00154377  -0.02683466
  5:   0.00043846   0.00454224   0.00158819
  6:  -0.00061845   0.00152814   0.00101691
  7:   0.00409838   0.00335380   0.00102352
  8:   0.00272405  -0.00527065   0.00137420
  9:  -0.00251671   0.00047831  -0.00175743
 10:   0.01047167  -0.01455152  -0.01218063
 11:  -0.00266037  -0.00047831   0.00290822
 12:  -0.01191791   0.01159958   0.03115252
 13:   0.00042972  -0.00122045   0.00716217

-----------------------------------
NORM OF THE MP2 GRADIENT:  0.052263
-----------------------------------

Maximum memory used throughout the entire MP2-calculation: 233.4 MB

-------------------------   --------------------
FINAL SINGLE POINT ENERGY      -720.441912018783
-------------------------   --------------------

------------------------------------------------------------------------------
                         ORCA GEOMETRY RELAXATION STEP
------------------------------------------------------------------------------

Reading the OPT-File                    .... done
Getting information on internals        .... done
Copying old internal coords+grads       .... done
Making the new internal coordinates     .... (2022 redundants) done
Validating the new internal coordinates .... (2022 redundants) done
Calculating the B-matrix                .... done
Calculating the G,G- and P matrices     .... done
Transforming gradient to internals      .... done
Projecting the internal gradient        .... done
Number of atoms                         ....  14
Number of internal coordinates          ....  54
Current Energy                          ....  -720.441912019 Eh
Current gradient norm                   ....     0.052262757 Eh/bohr
Maximum allowed component of the step   ....  0.300
Current trust radius                    ....  0.300
Evaluating the initial hessian          ....  (Almloef) done
Projecting the Hessian                  .... done
Forming the augmented Hessian           .... done
Diagonalizing the augmented Hessian     .... done
Last element of RFO vector              ....  0.957251929
Lowest eigenvalues of augmented Hessian:
 -0.004669096  0.010007776  0.010803235  0.011756896  0.017285511
Length of the computed step             ....  0.302172804
Warning: the length of the step is outside the trust region - taking restricted step instead
The input lambda is                     ....     0.009000
   iter:   5  x=    0.000384  g=   94.665355 f(x)=     0.268858
   iter:  10  x=   -0.004793  g=   10.463799 f(x)=     0.000001
The output lambda is                    ....    -0.004793 (12 iterations)
The final length of the internal step   ....  0.300000000
Converting the step to Cartesian space:
 Initial RMS(Int)=    0.0408248290
Transforming coordinates:
 Iter   0:  RMS(Cart)=    0.0838083731 RMS(Int)=    0.0407935636
 Iter   5:  RMS(Cart)=    0.0000008314 RMS(Int)=    0.0000005664
done
Storing new coordinates                 .... done

[...]
      py      :     0.006391
  4 O s       :     3.828984  s :     3.828984
      pz      :     1.539860  p :     4.641852
      px      :     1.543520
      py      :     1.558472
      dz2     :     0.013537  d :     0.047852
      dxz     :     0.010491
      dyz     :     0.008898
      dx2y2   :     0.005688
      dxy     :     0.009238
  5 C s       :     3.182909  s :     3.182909
      pz      :     0.987344  p :     2.783269
      px      :     0.924231
      py      :     0.871694
      dz2     :     0.016928  d :     0.078832
      dxz     :     0.010244
      dyz     :     0.018666
      dx2y2   :     0.013575
      dxy     :     0.019419
  6 H s       :     0.710387  s :     0.710387
      pz      :     0.005180  p :     0.026998
      px      :     0.012422
      py      :     0.009396
  7 S s       :     5.834993  s :     5.834993
      pz      :     2.947460  p :    10.071219
      px      :     3.859391
      py      :     3.264369
      dz2     :     0.014900  d :     0.101304
      dxz     :     0.012442
      dyz     :     0.043278
      dx2y2   :     0.016555
      dxy     :     0.014129
  8 N s       :     3.599436  s :     3.599436
      pz      :     1.123912  p :     3.958937
      px      :     1.467150
      py      :     1.367874
      dz2     :     0.010192  d :     0.054016
      dxz     :     0.007552
      dyz     :     0.015538
      dx2y2   :     0.011345
      dxy     :     0.009389
  9 H s       :     0.706761  s :     0.706761
      pz      :     0.012068  p :     0.026863
      px      :     0.006906
      py      :     0.007890
 10 C s       :     2.985875  s :     2.985875
      pz      :     0.667634  p :     2.285173
      px      :     0.798160
      py      :     0.819379
      dz2     :     0.045245  d :     0.142307
      dxz     :     0.035734
      dyz     :     0.029906
      dx2y2   :     0.013960
      dxy     :     0.017462
 11 H s       :     0.819076  s :     0.819076
      pz      :     0.002870  p :     0.014565
      px      :     0.005198
      py      :     0.006497
 12 O s       :     3.860282  s :     3.860282
      pz      :     1.471016  p :     4.534430
      px      :     1.575369
      py      :     1.488045
      dz2     :     0.012511  d :     0.050897
      dxz     :     0.010945
      dyz     :     0.012278
      dx2y2   :     0.007926
      dxy     :     0.007237
 13 H s       :     0.616567  s :     0.616567
      pz      :     0.007707  p :     0.040594
      px      :     0.014461
      py      :     0.018426


                     *******************************
                     * LOEWDIN POPULATION ANALYSIS *
                     *******************************

----------------------
LOEWDIN ATOMIC CHARGES
----------------------
   0 H :    0.078590
   1 C :   -0.219121
   2 H :    0.090991
   3 H :    0.032059
   4 O :   -0.166029
   5 C :   -0.053126
   6 H :    0.131301
   7 S :    0.042347
   8 N :   -0.257424
   9 H :    0.132574
  10 C :    0.144774
  11 H :    0.085901
  12 O :   -0.232882
  13 H :    0.190045

-------------------------------
LOEWDIN REDUCED ORBITAL CHARGES
-------------------------------
  0 H s       :     0.876841  s :     0.876841
      pz      :     0.024481  p :     0.044569
      px      :     0.008160
      py      :     0.011928
  1 C s       :     2.940934  s :     2.940934
      pz      :     1.065856  p :     3.174117
      px      :     1.042228
      py      :     1.066033
      dz2     :     0.019817  d :     0.104070
      dxz     :     0.012144
      dyz     :     0.024257
      dx2y2   :     0.019049
      dxy     :     0.028802
  2 H s       :     0.862784  s :     0.862784
      pz      :     0.025615  p :     0.046225
      px      :     0.008071
      py      :     0.012539
  3 H s       :     0.916339  s :     0.916339
      pz      :     0.021437  p :     0.051602
      px      :     0.012446
      py      :     0.017718
  4 O s       :     3.481260  s :     3.481260
      pz      :     1.555183  p :     4.612010
      px      :     1.521565
      py      :     1.535262
      dz2     :     0.021754  d :     0.072759
      dxz     :     0.017562
      dyz     :     0.011760
      dx2y2   :     0.006763
      dxy     :     0.014921
  5 C s       :     2.879389  s :     2.879389
      pz      :     1.016515  p :     3.021883
      px      :     1.019490
      py      :     0.985878
      dz2     :     0.031840  d :     0.151854
      dxz     :     0.016986
      dyz     :     0.035872
      dx2y2   :     0.025911
      dxy     :     0.041246
  6 H s       :     0.784736  s :     0.784736
      pz      :     0.013809  p :     0.083963
      px      :     0.042922
      py      :     0.027233
  7 S s       :     5.622616  s :     5.622616
      pz      :     3.013114  p :    10.223931
      px      :     3.844337
      py      :     3.366479
      dz2     :     0.016737  d :     0.111106
      dxz     :     0.013582
      dyz     :     0.047947
      dx2y2   :     0.017817
      dxy     :     0.015023
  8 N s       :     3.202037  s :     3.202037
      pz      :     1.152950  p :     3.972858
      px      :     1.449336
      py      :     1.370573
      dz2     :     0.017967  d :     0.082529
      dxz     :     0.010095
      dyz     :     0.026301
      dx2y2   :     0.014087
      dxy     :     0.014079
  9 H s       :     0.783108  s :     0.783108
      pz      :     0.039607  p :     0.084317
      px      :     0.019803
      py      :     0.024907
 10 C s       :     2.858634  s :     2.858634
      pz      :     0.912232  p :     2.689247
      px      :     0.860997
      py      :     0.916018
      dz2     :     0.104340  d :     0.307345
      dxz     :     0.077011
      dyz     :     0.065458
      dx2y2   :     0.025715
      dxy     :     0.034821
 11 H s       :     0.867340  s :     0.867340
      pz      :     0.008388  p :     0.046759
      px      :     0.017024
      py      :     0.021347
 12 O s       :     3.561438  s :     3.561438
      pz      :     1.523557  p :     4.592515
      px      :     1.560037
      py      :     1.508921
      dz2     :     0.020062  d :     0.078929
      dxz     :     0.015112
      dyz     :     0.024205
      dx2y2   :     0.009957
      dxy     :     0.009593
 13 H s       :     0.690172  s :     0.690172
      pz      :     0.022338  p :     0.119784
      px      :     0.042254
      py      :     0.055192


                      *****************************
                      * MAYER POPULATION ANALYSIS *
                      *****************************

  NA   - Mulliken gross atomic population
  ZA   - Total nuclear charge
  QA   - Mulliken gross atomic charge
  VA   - Mayer's total valence
  BVA  - Mayer's bonded valence
  FA   - Mayer's free valence

  ATOM       NA         ZA         QA         VA         BVA        FA
  0 H      0.8571     1.0000     0.1429     0.9542     0.9071     0.0471
  1 C      6.3558     6.0000    -0.3558     3.9178     3.6329     0.2848
  2 H      0.8407     1.0000     0.1593     0.9559     0.9088     0.0471
  3 H      0.9421     1.0000     0.0579     0.9765     0.9225     0.0540
  4 O      8.5187     8.0000    -0.5187     2.2230     1.8705     0.3526
  5 C      6.0450     6.0000    -0.0450     3.8879     3.6147     0.2732
  6 H      0.7374     1.0000     0.2626     0.9148     0.8691     0.0457
  7 S     16.0075    16.0000    -0.0075     2.2116     1.8544     0.3572
  8 N      7.6124     7.0000    -0.6124     3.0206     2.6967     0.3240
  9 H      0.7336     1.0000     0.2664     0.9238     0.8782     0.0456
 10 C      5.4134     6.0000     0.5866     3.9264     3.6488     0.2777
 11 H      0.8336     1.0000     0.1664     0.9459     0.8993     0.0465
 12 O      8.4456     8.0000    -0.4456     2.3061     1.9159     0.3902
 13 H      0.6572     1.0000     0.3428     0.9013     0.8575     0.0438

  Mayer bond orders larger than 0.100000
B(  0-H ,  5-C ) :   0.9135 B(  1-C ,  2-H ) :   0.9104 B(  1-C ,  5-C ) :   0.9087 
B(  1-C ,  7-S ) :   0.9320 B(  1-C , 11-H ) :   0.9088 B(  3-H ,  7-S ) :   0.9102 
B(  4-O , 10-C ) :   0.9988 B(  4-O , 13-H ) :   0.8125 B(  5-C ,  8-N ) :   0.9553 
B(  5-C , 10-C ) :   0.8596 B(  6-H ,  8-N ) :   0.8710 B(  8-N ,  9-H ) :   0.8611 
B( 10-C , 12-O ) :   1.7911 


----------------------------------
MP2 DERIVATIVE INTEGRAL GENERATION
----------------------------------

Input SCF Electron Density              ... 2.scfp
Input Correlated Electron Density       ... 2.pmp2re
Input Energy Weighted Density           ... 2.wmp2.tmp
Input Wavefunction Amplitudes           ... 2.mp2tsaa.tmp

Nuclear repulsion gradient              ... done (  0.0 sec)
HCore & Overlap gradient  (SHARK)       ... done (  0.1 sec)
Analytic two-electron gradient terms    ... 
  Batch handling in the gradient evaluation:
  General contraction                   ... not used
  Memory available                      ... 4087.3 MB
  Memory per occupied orbital in Q2     ...    3.0 MB
  Memory per occupied orbital in Q3     ...    0.0 MB
  Total memory requirement per |i>      ...    3.0 MB
  Number of orbitals treated per batch  ...     21
  Number of batches to be done          ...      1
done (  6.3 sec)

---------------------------------------
MP2 TOTAL ENERGY:     -720.445991393 Eh
---------------------------------------

The final MP2 gradient
  0:   0.00001403  -0.00000141   0.00001279
  1:   0.00004488   0.00002484   0.00000682
  2:   0.00000154   0.00000076   0.00000026
  3:   0.00000580   0.00001270  -0.00000484
  4:  -0.00000691   0.00001485  -0.00004225
  5:  -0.00002443   0.00002039  -0.00006374
  6:  -0.00001801   0.00001913   0.00001811
  7:  -0.00002520  -0.00002716   0.00000087
  8:   0.00001473  -0.00005400  -0.00000588
  9:  -0.00000258   0.00000791  -0.00000270
 10:   0.00000346  -0.00002787   0.00009437
 11:  -0.00000590  -0.00000209   0.00001117
 12:  -0.00000347   0.00001379  -0.00003053
 13:   0.00000205  -0.00000183   0.00000555

-----------------------------------
NORM OF THE MP2 GRADIENT:  0.000164
-----------------------------------

Maximum memory used throughout the entire MP2-calculation: 233.8 MB

-------------------------   --------------------
FINAL SINGLE POINT ENERGY      -720.445991393415
-------------------------   --------------------

                                *** OPTIMIZATION RUN DONE ***


------------------------------------------------------------------------------
                              ORCA PROPERTY CALCULATIONS
------------------------------------------------------------------------------

GBWName                                 ... 2.gbw
Number of atoms                         ...     14
Number of basis functions               ...    137
Max core memory                         ...   4096 MB

Electric properties:
Dipole moment                           ... YES
Quadrupole moment                       ...  NO
Static polarizability (Dipole/Dipole)   ...  NO
Static polarizability (Dipole/Quad.)    ...  NO
Static polarizability (Quad./Quad.)     ...  NO
Static polarizability (Velocity)        ...  NO
Static hyperpolarizability              ...  NO

Atomic electric properties:
Dipole moment                           ...  NO
Quadrupole moment                       ...  NO
Static polarizability                   ...  NO

Choice of electric origin               ... Center of mass
Position of electric origin             ...    -3.532340     2.080541     0.907623

General magnetic properties:
Magnetizability                         ...  NO

EPR properties:
g-Tensor (aka g-matrix)                 ...  NO
Zero-Field splitting spin-orbit         ...  NO
Zero-field splitting spin-spin          ...  NO
Hyperfine couplings                     ...  NO (   0 nuclei)
Quadrupole couplings                    ...  NO (   0 nuclei)
Contact density                         ...  NO (   0 nuclei)

NMR properties:
Chemical shifts                         ...  NO (   0 nuclei)
Spin-rotation constants                 ...  NO (   0 nuclei)
Spin-spin couplings                     ...  NO (   0 nuclei,    0 pairs)

Choice of magnetic origin               ... GIAO
Position of magnetic origin             ...     0.000000     0.000000     0.000000

Properties with geometric perturbations:
SCF Hessian                             ...  NO
IR spectrum                             ...  NO
VCD spectrum                            ...  NO
X-ray spectroscopy properties:
SCF XES/XAS/RIXS spectra                ...  NO

SCF SOC stabilization energy            ...  NO
Diagonal Born-Oppenheimer correction    ...  NO

-------------
DIPOLE MOMENT
-------------

Method             : SCF
Type of density    : Electron Density
Multiplicity       :   1
Irrep              :   0
Energy             :  -719.3864865781240496 Eh
Basis              : AO
                                X                 Y                 Z
Electronic contribution:      0.882040942      -4.377720125       1.533780081
Nuclear contribution   :     -0.351775996       4.996075411      -1.099142415
                        -----------------------------------------
Total Dipole Moment    :      0.530264946       0.618355286       0.434637666
                        -----------------------------------------
Magnitude (a.u.)       :      0.923284395
Magnitude (Debye)      :      2.346802428



--------------------
Rotational spectrum 
--------------------
 
Rotational constants in cm-1:             0.091177             0.054508             0.042285 
Rotational constants in MHz :          2733.421705          1634.123002          1267.664594 

Dipole components along the rotational axes: 
x,y,z [a.u.] :    -0.487445    -0.045910    -0.782779 
x,y,z [Debye]:    -1.238988    -0.116693    -1.989667 

 

-------------
DIPOLE MOMENT
-------------

Method             : MP2
Type of density    : Electron Density
Multiplicity       :   1
Level              : Unrelaxed density
Irrep              :   0
Energy             :     0.0000000000000000 Eh
Basis              : AO
                                X                 Y                 Z
Electronic contribution:      0.891347458      -4.403286343       1.511590968
Nuclear contribution   :     -0.351775996       4.996075411      -1.099142415
                        -----------------------------------------
Total Dipole Moment    :      0.539571462       0.592789068       0.412448553
                        -----------------------------------------
Magnitude (a.u.)       :      0.901471048
Magnitude (Debye)      :      2.291357307



--------------------
Rotational spectrum 
--------------------
 
Rotational constants in cm-1:             0.091177             0.054508             0.042285 
Rotational constants in MHz :          2733.421705          1634.123002          1267.664594 

Dipole components along the rotational axes: 
x,y,z [a.u.] :    -0.496899    -0.033262    -0.751422 
x,y,z [Debye]:    -1.263016    -0.084545    -1.909963 

 

-------------
DIPOLE MOMENT
-------------

Method             : MP2
Type of density    : Electron Density
Multiplicity       :   1
Level              : Relaxed density
Irrep              :   0
Energy             :     0.0000000000000000 Eh
Basis              : AO
                                X                 Y                 Z
Electronic contribution:      0.947744313      -4.508082607       1.455726941
Nuclear contribution   :     -0.351775996       4.996075411      -1.099142415
                        -----------------------------------------
Total Dipole Moment    :      0.595968317       0.487992804       0.356584526
                        -----------------------------------------
Magnitude (a.u.)       :      0.848803709
Magnitude (Debye)      :      2.157487569



--------------------
Rotational spectrum 
--------------------
 
Rotational constants in cm-1:             0.091177             0.054508             0.042285 
Rotational constants in MHz :          2733.421705          1634.123002          1267.664594 

Dipole components along the rotational axes: 
x,y,z [a.u.] :    -0.539907     0.043228    -0.653528 
x,y,z [Debye]:    -1.372336     0.109877    -1.661136 

 

Dipole moment calculation done in   0.0 sec 

Maximum memory used throughout the entire PROP-calculation: 6.8 MB

--------------------------------
SUGGESTED CITATIONS FOR THIS RUN
--------------------------------

Below you find a list of papers that are relevant to this ORCA run
We neither can nor want to force you to cite these papers, but we appreciate if you do
You receive ORCA, which is the product of decades of hard work by many enthusiastic individuals, for free
The only thing we kindly ask in return is that you cite our papers,
We deeply appreciate it, if you show your appreciation for ORCA by not just citing the generic ORCA reference.

Please note that relegating all ORCA citations to the supporting information does *not* help us.
SI sections are not indexed - citations you put there will not count into any citation statistics
But we need these citations in order to attract the funding resources that allow us to do what we are doing

Therefore, if you are a happy ORCA user, please consider citing a few of the papers listed below in the main body of your paper

In addition to the list printed below, the program has created the file 2.bibtex that contains the list in bibtex format
You can import this file easily into all common literature databanks and citation aid programs


List of essential papers. We consider these as the minimum necessary citations

  1. Neese, F.
     Software update: the ORCA program system, version 6.0
     WIRES Comput. Molec. Sci. 2025 15(1), e70019
     doi.org/10.1002/wcms.7019

List of papers to cite with high priority. The work reported in these papers was absolutely
necessary for this run to complete.
Our perspective: the developers of density functionals and basis sets usually get cited in chemistry papers
Good! But without the algorithms to do something with them, the functionals or basis sets would not do anything.
Hence, in our opinion, the algorithm design and method developments papers are equally worthy of getting cited

  1. Neese, F.
     The SHARK Integral Generation and Digestion System
     J. Comp. Chem. 2022 44(3), 381
     doi.org/10.1002/jcc.26942

List of suggested additional citations. These are papers that are important in the 'surrounding' of 
of this run, or papers that preceded the highly important papers. If you like your results we are grateful for a citation.

  1. Neese, F.
     The ORCA program system
     WIRES Comput. Molec. Sci. 2012 2(1), 73-78
     doi.org/10.1002/wcms.81
  2. Neese, F.
     Software update: the ORCA program system, version 4.0
     WIRES Comput. Molec. Sci. 2018 8(1), 1-6
     doi.org/10.1002/wcms.1327
  3. Neese, F.; Wennmohs, F.; Becker, U.; Riplinger, C.
     The ORCA quantum chemistry program package
     J. Chem. Phys. 2020 152(22), 224108
     doi.org/10.1063/5.0004608
  4. Neese, F.
     Software update: The ORCA program system—Version 5.0
     WIRES Comput. Molec. Sci. 2022 12(1), e1606
     doi.org/10.1002/wcms.1606

List of optional additional citations

  1. Neese, F.
     Approximate second-order SCF convergence for spin unrestricted wavefunctions
     Chem. Phys. Lett. 2000 325(1-3), 93-98
     doi.org/10.1016/s0009-2614(00)00662-x

Timings for individual modules:

Sum of individual times          ...      313.320 sec (=   5.222 min)
Startup calculation              ...        3.235 sec (=   0.054 min)   1.0 %
SCF iterations                   ...       80.473 sec (=   1.341 min)  25.7 %
Property calculations            ...        0.035 sec (=   0.001 min)   0.0 %
MP2 module                       ...      229.559 sec (=   3.826 min)  73.3 %
Geometry relaxation              ...        0.018 sec (=   0.000 min)   0.0 %
                             ****ORCA TERMINATED NORMALLY****
TOTAL RUN TIME: 0 days 0 hours 5 minutes 13 seconds 518 msec
