
                                 *****************
                                 * O   R   C   A *
                                 *****************

                                            #,                                       
                                            ###                                      
                                            ####                                     
                                            #####                                    
                                            ######                                   
                                           ########,                                 
                                     ,,################,,,,,                         
                               ,,#################################,,                 
                          ,,##########################################,,             
                       ,#########################################, ''#####,          
                    ,#############################################,,   '####,        
                  ,##################################################,,,,####,       
                ,###########''''           ''''###############################       
              ,#####''   ,,,,##########,,,,          '''####'''          '####       
            ,##' ,,,,###########################,,,                        '##       
           ' ,,###''''                  '''############,,,                           
         ,,##''                                '''############,,,,        ,,,,,,###''
      ,#''                                            '''#######################'''  
     '                                                          ''''####''''         
             ,#######,   #######,   ,#######,      ##                                
            ,#'     '#,  ##    ##  ,#'     '#,    #''#        ,####,    ,#,          
            ##       ##  ##   ,#'  ##            #'  '#       #'       ,# #          
            ##       ##  #######   ##           ,######,      #####,      #          
            '#,     ,#'  ##    ##  '#,     ,#' ,#      #,     #,   #      #          
             '#######'   ##     ##  '#######'  #'      '#     '####' #    #          



                #########################################################
                #                        -***-                          #
                #          Department of theory and spectroscopy        #
                #                                                       #
                #                      Frank Neese                      #
                #                                                       #
                #     Directorship, Architecture, Infrastructure        #
                #                    SHARK, DRIVERS                     #
                #        Core code/Algorithms in most modules           #
                #                                                       #
                #        Max Planck Institute fuer Kohlenforschung      #
                #                Kaiser Wilhelm Platz 1                 #
                #                 D-45470 Muelheim/Ruhr                 #
                #                      Germany                          #
                #                                                       #
                #                  All rights reserved                  #
                #                        -***-                          #
                #########################################################


                         Program Version 6.1.0  -  RELEASE   -
                                (GIT: $679e74b$)
                          ($2025-06-10 18:02:51 +0200$)


 With contributions from (in alphabetic order):
[Max-Planck-Institut fuer Kohlenforschung]                               
  Daniel Aravena         : Magnetic Suceptibility                        
  Michael Atanasov       : Ab Initio Ligand Field Theory (pilot matlab implementation)
  Alexander A. Auer      : GIAO ZORA, VPT2 properties, NMR spectrum      
  Ute Becker             : All parallelization in ORCA, NUMFREQ, NUMCALC 
  Giovanni Bistoni       : ED, misc. LED, open-shell LED, HFLD           
  Dmytro Bykov           : pre 5.0 version of the SCF Hessian            
  Marcos Casanova-Páez   : Triplet and SCS-CIS(D). UHF-(DLPNO)-IP/EA/STEOM-CCSD. UHF-CVS-IP/STEOM-CCSD   
  Vijay G. Chilkuri      : MRCI spin determinant printing, contributions to CSF-ICE 
  Pauline Colinet        : FMM embedding                                 
  Dipayan Datta          : RHF DLPNO-CCSD density                        
  Achintya Kumar Dutta   : EOM-CC, STEOM-CC                              
  Nicolas Foglia         : Exact transition moments, OPA infrastructure, MCD improvements    
  Dmitry Ganyushin       : Spin-Orbit,Spin-Spin,Magnetic field MRCI      
  Miquel Garcia-Rates    : C-PCM and meta-GGA Hessian, CCSD/C-PCM, Gaussian charge scheme 
  Tiago L. C. Gouveia    : GS-ROHF, GS-ROCIS                             
  Yang Guo               : DLPNO-NEVPT2, F12-NEVPT2, CIM, IAO-localization        
  Andreas Hansen         : Spin unrestricted coupled pair/coupled cluster methods 
  Ingolf Harden          : AUTO-CI MPn and infrastructure                
  Benjamin Helmich-Paris : MC-RPA, TRAH-(SCF,CASSCF), AVAS, COSX integrals, SCF dyn. polar., MC-PDFT, srDFT 
  Lee Huntington         : MR-EOM, pCC                                   
  Robert Izsak           : Overlap fitted RIJCOSX, COSX-SCS-MP3, EOM     
  Riya Kayal             : Wick's Theorem for AUTO-CI, AUTO-CI UHF-CCSDT 
  Emily Kempfer          : AUTO-CI RHF CISDT and CCSDT, approximate NEVPT4
  Christian Kollmar      : KDIIS, OOCD, Brueckner-CCSD(T), CCSD density, CASPT2, CASPT2-K, improved NEVPT2 
  Axel Koslowski         : Symmetry handling                             
  Simone Kossmann        : meta-GGA functionals, TD-DFT gradient, OOMP2, (MP2 Hessian; deprecated post 5.0) 
  Lucas Lang             : DCDCAS, Hyperfine gauge corrections, ICE-SOC+SSC
  Marvin Lechner         : AUTO-CI (C++ implementation), FIC-MRCC        
  Spencer Leger          : CASSCF response                               
  Dagmar Lenk            : GEPOL surface, SMD, ORCA-2-JSON               
  Dimitrios Liakos       : Extrapolation schemes; Compound Job, Property file
  Dimitrios Manganas     : Further ROCIS development; embedding schemes. LFT, Crystal Embedding 
  Dimitrios Pantazis     : SARC Basis sets                               
  Anastasios Papadopoulos: AUTO-CI, single reference methods and gradients 
  Taras Petrenko         : pre 6.0 DFT Hessian and TD-DFT gradient,  ECA, NRVS 
  Petra Pikulova         : Analytic Raman intensities                    
  Peter Pinski           : DLPNO-MP2, DLPNO-MP2 Gradient                 
  Shashank Vittal Rao    : ES-AILFT, MagRelax                            
  Christoph Reimann      : Effective Core Potentials                     
  Marius Retegan         : Local ZFS, SOC                                
  Christoph Riplinger    : Optimizer, TS searches, QM/MM, DLPNO-CCSD(T), (RO)-DLPNO pert. Triples 
  Michael Roemelt        : Original ROCIS implementation, recursive CI coupling coefficients
  Masaaki Saitow         : Open-shell DLPNO-CCSD energy and density      
  Barbara Sandhoefer     : DKH picture change effects                    
  Yorick L. A. Schmerwitz: GMF and freeze-and-release deltaSCF, NEB S-IDPP initial path                    
  Kantharuban Sivalingam : CASSCF convergence/infrastructure, NEVPT2, NEVPT3, NEVPT4(SD), FIC-MRCI and CEPA variants
  Bernardo de Souza      : ESD, SOC TD-DFT                               
  Georgi L. Stoychev     : AutoAux, RI-MP2 NMR, DLPNO-MP2 response, X2C  
  Van Anh Tran           : RI-MP2 g-tensors                              
  Willem Van den Heuvel  : Paramagnetic NMR                              
  Zikuan Wang            : NOTCH, Electric field optimization            
  Frank Wennmohs         : Technical directorship and infrastructure     
  Hang Xu                : AUTO-CI-Response properties                   
                                                                         
[FACCTs GmbH]                                                            
  Markus Bursch, Nicolas Foglia, Miquel Garcia-Rates, Ingolf Harden, Hagen Neugebauer, Anastasios Papadopoulos, 
  Christoph Riplinger, Bernardo de Souza, Georgi L. Stoychev                                                    
                                                                 
  APM, various basis sets, CI-OPT, improved COSX, DLPNO-Multilevel,           
  DOCKER, DRACO, updates on ESD, Fragmentator, GOAT, IRC, LR-CPCM, L-BFGS, MBIS, meta-GGA TD-DFT gradient, ML-optimized integration grids, 
  MM, NACMEs, nearIR, NEB, NEB-TS, NL-DFT gradient (VV10), 2- and 3-layer-ONIOM, interface openCOSMO-RS, QMMM,   
  Crystal-QMMM, RESP, rigid body optimization, SF, symmetry and pop. for TD-DFT, various functionals, SOLVATOR                                   
                                                                         
[Other institutions]                                                     
  V. Asgeirsson          : NEB                                           
  Christoph Bannwarth    : sTDA-DFT, sTD-DFT, PBEh-3c, B97-3c, D3        
  Giovanni Bistoni       : ETS/NOCV, ADLD/ADEX, COVALED                  
  Martin Brehm           : Molecular dynamics                            
  Ronald Cardenas        : ETS/NOCV                                      
  Martina Colucci        : COVALED                                       
  Sebastian Ehlert       : rSCAN, r2SCAN, r2SCAN-3c, D4, dhf basis sets  
  Marvin Friede          : D4 for Fr, Ra, Ac-Lr                          
  Lars Goerigk           : TD-DFT with DH, B97 family of functionals     
  Stefan Grimme          : VdW corrections, initial TS optimization, DFT functionals, gCP, sTDA/sTD-DF 
  Waldemar Hujo          : DFT-NL                                        
  H. Jonsson             : NEB                                           
  Holger Kruse           : gCP                                           
  Marcel Mueller         : wB97X-3c, vDZP basis set                      
  Hagen Neugebauer       : wr2SCAN, Native XTB                           
  Gianluca Regni         : ADLD/ADEX                                     
  Tobias Risthaus        : pre 6.0 range-separated hybrid DFT and stability analysis
  Lukas Wittmann         : regularized MP2, r2SCAN double-hybrids, wr2SCAN        
                                                                         
We gratefully acknowledge several colleagues who have allowed us to      
interface, adapt or use parts of their codes:                            
  Ed Valeev, F. Pavosevic, A. Kumar             : LibInt (2-el integral package), F12 methods 
  Garnet Chan, S. Sharma, J. Yang, R. Olivares  : DMRG                   
  Ulf Ekstrom                                   : XCFun DFT Library      
  Mihaly Kallay                                 : mrcc  (arbitrary order and MRCC methods)
  Frank Weinhold                                : gennbo (NPA and NBO analysis)           
  Simon Mueller                                 : openCOSMO-RS                            
  Christopher J. Cramer and Donald G. Truhlar   : smd solvation model                     
  S Lehtola, MJT Oliveira, MAL Marques          : LibXC Library                           
  Liviu Ungur et al                             : ANISO software                          


 Your calculation uses the libint2 library for the computation of 2-el integrals
 For citations please refer to: http://libint.valeyev.net

 Your ORCA version has been built with support for libXC version: 7.0.0
 For citations please refer to: https://libxc.gitlab.io

 This ORCA versions uses:
   CBLAS   interface :  Fast vector & matrix operations
   LAPACKE interface :  Fast linear algebra routines
   SCALAPACK package :  Parallel linear algebra routines
   Shared memory     :  Shared parallel matrices
   BLAS/LAPACK       :  OpenBLAS 0.3.29  USE64BITINT DYNAMIC_ARCH NO_AFFINITY Haswell SINGLE_THREADED
        Core in use  :  Haswell
   Copyright (c) 2011-2014, The OpenBLAS Project


  ***********************************
  * Starting time: Sat Aug 30 15:34:36 2025
  * Host name:     chemlab03
  * Process ID:    79151
  * Working dir.:  /home/vivek/mm-project/vivek/xtb-goat/B97-D-opt/f/0
  ***********************************



***************************************
The coordinates will be read from file: /home/vivek/mm-project/vivek/xtb-goat/xtb-goat/f/F_CONF/0.xyz
***************************************


Your calculation utilizes empirical dispersion correction


Warning: RI is on but no J-basis has been assigned. Assigning Def2/J (nothing to worry about!)
================================================================================

----- Orbital basis set information -----
Your calculation utilizes the basis: 6-31G**
   H-He, Li-Ne : W. J. Hehre, R. Ditchfield and J.A. Pople, J. Chem. Phys. 56, 2257 (1972).
                 Note: He and Ne are unpublished basis sets taken from the Gaussian program.
                 Note: Li and B from J. D. Dill and J. A. Pople, J. Chem. Phys. 62, 2921 (1975).
   Na - Ar     : M. M. Francl, W. J. Pietro, W. J. Hehre, J. S. Binkley, M. S. Gordon, 
                 D. J. DeFrees and J. A. Pople, J. Chem. Phys. 77, 3654 (1982).
   K - Zn      : V. A. Rassolov, J. A. Pople, M. A. Ratner, and T. L. Windus, J. Chem. Phys. 109, 1223 (1998).

----- AuxJ basis set information -----
Your calculation utilizes the auxiliary basis: def2/J
   H-Rn: F. Weigend, Phys. Chem. Chem. Phys. 8, 1057 (2006).
   Fr-Lr: K. Eichkorn, F. Weigend, O. Treutler, R. Ahlrichs; Theor. Chem. Acc. 97, 119 (1997).

================================================================================
                                        WARNINGS
                       Please study these warnings very carefully!
================================================================================


WARNING: Geometry Optimization
  ===> : Switching off AutoStart
         For restart on a previous wavefunction, please use MOREAD

INFO   : The exchange functional is Grimme's B97(-D)
         As described in S. Grimme, J. Comput. Chem. 27, 1787 (2006).
         Note that this functional defaults to a pure GGA. 

INFO   : The correlation functional is Grimme's B97(-D)
         As described in S. Grimme, J. Comput. Chem. 27, 1787 (2006).

================================================================================
                                       INPUT FILE
================================================================================
NAME = 0.inp
|  1> ! B97-D 6-31G** opt
|  2> 
|  3> * xyzfile 0 1 /home/vivek/mm-project/vivek/xtb-goat/xtb-goat/f/F_CONF/0.xyz
|  4> 
|  5>                          ****END OF INPUT****
================================================================================

                       *****************************
                       * Geometry Optimization Run *
                       *****************************

Geometry optimization settings:
Update method            Update   .... BFGS
Choice of coordinates    CoordSys .... (2022) Redundant Internals
Initial Hessian          InHess   .... Almloef's Model
Max. no of cycles        MaxIter  .... 69

Convergence Tolerances:
Energy Change            TolE     ....  5.0000e-06 Eh
Max. Gradient            TolMAXG  ....  3.0000e-04 Eh/bohr
RMS Gradient             TolRMSG  ....  1.0000e-04 Eh/bohr
Max. Displacement        TolMAXD  ....  4.0000e-03 bohr
RMS Displacement         TolRMSD  ....  2.0000e-03 bohr
Strict Convergence                .... False

------------------------------------------------------------------------------
                        ORCA OPTIMIZATION COORDINATE SETUP
------------------------------------------------------------------------------

The optimization will be done in redundant internal coordinates (2022)
Making redundant internal coordinates   ...  (2022 redundants) done
Evaluating the initial hessian          ...  (Almloef) done
Evaluating the coordinates              ...  done
Calculating the B-matrix                .... done
Calculating the G-matrix                .... done
The number of degrees of freedom        ....  107

    -----------------------------------------------------------------
                    Redundant Internal Coordinates


    -----------------------------------------------------------------
         Definition                    Initial Value    Approx d2E/dq
    -----------------------------------------------------------------
      1. B(C   1,C   0)                  1.3841         0.638454   
      2. B(H   4,C   2)                  1.0812         0.371952   
      3. B(C   5,C   1)                  1.3839         0.638898   
      4. B(H   7,C   1)                  1.0803         0.373150   
      5. B(C   8,C   5)                  1.3896         0.625780   
      6. B(C   8,C   6)                  1.5028         0.412863   
      7. B(C   8,C   2)                  1.3894         0.626161   
      8. B(H   9,C   0)                  1.0800         0.373639   
      9. B(C  10,H   3)                  1.0803         0.373101   
     10. B(C  10,C   2)                  1.3833         0.640378   
     11. B(C  10,C   0)                  1.3843         0.637932   
     12. B(H  11,C   5)                  1.0805         0.372941   
     13. B(C  12,C   6)                  1.5456         0.352715   
     14. B(H  13,C   6)                  1.0903         0.359768   
     15. B(H  14,C   6)                  1.0906         0.359355   
     16. B(C  15,C  12)                  1.5249         0.380705   
     17. B(N  17,C  12)                  1.4471         0.453657   
     18. B(O  18,H  16)                  0.9709         0.499484   
     19. B(O  18,C  15)                  1.3376         0.678426   
     20. B(H  19,N  17)                  1.0148         0.425203   
     21. B(O  20,C  15)                  1.2023         1.115107   
     22. B(H  21,C  12)                  1.0967         0.351309   
     23. B(H  22,N  17)                  1.0163         0.422801   
     24. A(C   1,C   0,C  10)          119.6778         0.438613   
     25. A(C   1,C   0,H   9)          120.1932         0.356895   
     26. A(H   9,C   0,C  10)          120.1285         0.356846   
     27. A(C   0,C   1,C   5)          120.1458         0.438733   
     28. A(C   0,C   1,H   7)          120.0417         0.356816   
     29. A(C   5,C   1,H   7)          119.8125         0.356858   
     30. A(C   8,C   2,C  10)          120.6666         0.437380   
     31. A(H   4,C   2,C   8)          119.5407         0.355446   
     32. A(H   4,C   2,C  10)          119.7913         0.356803   
     33. A(C   1,C   5,C   8)          120.5980         0.437149   
     34. A(C   8,C   5,H  11)          119.3871         0.355569   
     35. A(C   1,C   5,H  11)          120.0146         0.356824   
     36. A(C  12,C   6,H  14)          108.4053         0.321169   
     37. A(H  13,C   6,H  14)          109.3233         0.290703   
     38. A(C   8,C   6,H  14)          110.2828         0.329593   
     39. A(C  12,C   6,H  13)          107.2087         0.321230   
     40. A(C   8,C   6,H  13)          110.3246         0.329655   
     41. A(C   8,C   6,C  12)          111.2149         0.366006   
     42. A(C   5,C   8,C   6)          120.5973         0.404389   
     43. A(C   2,C   8,C   6)          120.5725         0.404432   
     44. A(C   2,C   8,C   5)          118.8007         0.435566   
     45. A(C   0,C  10,H   3)          120.0423         0.356758   
     46. A(C   0,C  10,C   2)          120.1062         0.438852   
     47. A(C   2,C  10,H   3)          119.8515         0.356991   
     48. A(C  15,C  12,N  17)          112.4660         0.374541   
     49. A(C   6,C  12,N  17)          110.3708         0.369648   
     50. A(C   6,C  12,C  15)          109.3415         0.360968   
     51. A(N  17,C  12,H  21)          108.4710         0.331510   
     52. A(C  15,C  12,H  21)          107.7155         0.324010   
     53. A(C   6,C  12,H  21)          108.3543         0.319983   
     54. A(C  12,C  15,O  20)          124.3860         0.439005   
     55. A(C  12,C  15,O  18)          112.7769         0.401771   
     56. A(O  18,C  15,O  20)          122.8308         0.484619   
     57. A(C  12,N  17,H  19)          110.1459         0.339268   
     58. A(H  19,N  17,H  22)          106.8084         0.301295   
     59. A(C  12,N  17,H  22)          109.1814         0.338947   
     60. A(C  15,O  18,H  16)          110.2804         0.373308   
     61. D(C   5,C   1,C   0,C  10)      0.4271         0.028312   
     62. D(C   5,C   1,C   0,H   9)   -179.8316         0.028312   
     63. D(H   7,C   1,C   0,H   9)      0.1474         0.028312   
     64. D(H   7,C   1,C   0,C  10)   -179.5939         0.028312   
     65. D(H  11,C   5,C   1,H   7)      0.3954         0.028354   
     66. D(H  11,C   5,C   1,C   0)   -179.6255         0.028354   
     67. D(C   8,C   5,C   1,C   0)      0.1681         0.028354   
     68. D(C   8,C   5,C   1,H   7)   -179.8109         0.028354   
     69. D(C   6,C   8,C   5,C   1)    177.3493         0.027129   
     70. D(C   6,C   8,C   2,C  10)   -177.4164         0.027164   
     71. D(C   2,C   8,C   5,C   1)     -0.6865         0.027129   
     72. D(C   2,C   8,C   5,H  11)    179.1084         0.027129   
     73. D(C   5,C   8,C   6,C  12)    -86.9333         0.012618   
     74. D(C   5,C   8,C   2,C  10)      0.6200         0.027164   
     75. D(C   5,C   8,C   2,H   4)   -178.9386         0.027164   
     76. D(C   2,C   8,C   6,H  13)   -150.1025         0.012618   
     77. D(C   2,C   8,C   6,C  12)     91.0676         0.012618   
     78. D(C   2,C   8,C   6,H  14)    -29.2331         0.012618   
     79. D(C   6,C   8,C   5,H  11)     -2.8558         0.027129   
     80. D(C   6,C   8,C   2,H   4)      3.0251         0.027164   
     81. D(C   5,C   8,C   6,H  13)     31.8966         0.012618   
     82. D(H   3,C  10,C   2,C   8)    179.9617         0.028494   
     83. D(H   3,C  10,C   2,H   4)     -0.4808         0.028494   
     84. D(C   0,C  10,C   2,C   8)     -0.0343         0.028494   
     85. D(C   0,C  10,C   2,H   4)    179.5231         0.028494   
     86. D(H   3,C  10,C   0,H   9)     -0.2310         0.028263   
     87. D(H   3,C  10,C   0,C   1)    179.5104         0.028263   
     88. D(C   2,C  10,C   0,H   9)    179.7650         0.028263   
     89. D(C   2,C  10,C   0,C   1)     -0.4936         0.028263   
     90. D(C  15,C  12,C   6,H  13)   -176.0212         0.010011   
     91. D(C  15,C  12,C   6,C   8)    -55.3391         0.010011   
     92. D(N  17,C  12,C   6,H  14)   -169.7168         0.010011   
     93. D(N  17,C  12,C   6,H  13)    -51.8030         0.010011   
     94. D(N  17,C  12,C   6,C   8)     68.8791         0.010011   
     95. D(C  15,C  12,C   6,H  14)     66.0650         0.010011   
     96. D(O  20,C  15,C  12,N  17)     -8.8126         0.010813   
     97. D(O  20,C  15,C  12,C   6)    114.1685         0.010813   
     98. D(O  18,C  15,C  12,H  21)     50.8177         0.010813   
     99. D(O  18,C  15,C  12,N  17)    170.2902         0.010813   
    100. D(O  18,C  15,C  12,C   6)    -66.7287         0.010813   
    101. D(H  22,N  17,C  12,C  15)     58.0378         0.017560   
    102. D(H  22,N  17,C  12,C   6)    -64.3641         0.017560   
    103. D(H  19,N  17,C  12,H  21)     60.0856         0.017560   
    104. D(H  19,N  17,C  12,C  15)    -58.9462         0.017560   
    105. D(H  19,N  17,C  12,C   6)    178.6519         0.017560   
    106. D(H  16,O  18,C  15,O  20)     -1.2779         0.034267   
    107. D(H  16,O  18,C  15,C  12)    179.6033         0.034267   
    -----------------------------------------------------------------

Number of atoms                         .... 23
Number of degrees of freedom            .... 107


         *************************************************************
         *                GEOMETRY OPTIMIZATION CYCLE   1            *
         *************************************************************
---------------------------------
CARTESIAN COORDINATES (ANGSTROEM)
---------------------------------
  C     -5.926133    0.082876   -0.942525
  C     -5.228445    0.880172   -1.833211
  C     -4.924124    1.267430    0.886079
  H     -6.323471   -0.331242    1.119425
  H     -4.816370    1.424034    1.950422
  C     -4.377905    1.866115   -1.364442
  C     -3.242895    3.096312    0.509973
  H     -5.346449    0.733883   -2.897046
  C     -4.210849    2.065844    0.000516
  H     -6.587983   -0.688529   -1.307472
  C     -5.775706    0.282435    0.419068
  H     -3.838940    2.491284   -2.061636
  C     -1.819587    2.508751    0.644028
  H     -3.181747    3.934495   -0.184547
  H     -3.558600    3.460544    1.488234
  C     -1.866507    1.268756    1.530248
  H     -2.208304    0.737054    3.328195
  N     -1.263064    2.233498   -0.663147
  O     -2.182637    1.550686    2.798991
  H     -0.320513    1.868767   -0.571976
  O     -1.630851    0.152861    1.149717
  H     -1.184930    3.251399    1.142523
  H     -1.815492    1.510415   -1.115749

----------------------------
CARTESIAN COORDINATES (A.U.)
----------------------------
  NO LB      ZA    FRAG     MASS         X           Y           Z
   0 C     6.0000    0    12.011  -11.198768    0.156613   -1.781113
   1 C     6.0000    0    12.011   -9.880330    1.663284   -3.464267
   2 C     6.0000    0    12.011   -9.305246    2.395095    1.674447
   3 H     1.0000    0     1.008  -11.949628   -0.625956    2.115407
   4 H     1.0000    0     1.008   -9.101620    2.691035    3.685763
   5 C     6.0000    0    12.011   -8.273041    3.526446   -2.578422
   6 C     6.0000    0    12.011   -6.128184    5.851182    0.963709
   7 H     1.0000    0     1.008  -10.103324    1.386837   -5.474623
   8 C     6.0000    0    12.011   -7.957352    3.903880    0.000975
   9 H     1.0000    0     1.008  -12.449484   -1.301131   -2.470764
  10 C     6.0000    0    12.011  -10.914502    0.533726    0.791924
  11 H     1.0000    0     1.008   -7.254545    4.707844   -3.895928
  12 C     6.0000    0    12.011   -3.438521    4.740853    1.217036
  13 H     1.0000    0     1.008   -6.012630    7.435118   -0.348744
  14 H     1.0000    0     1.008   -6.724779    6.539481    2.812355
  15 C     6.0000    0    12.011   -3.527187    2.397601    2.891750
  16 H     1.0000    0     1.008   -4.173090    1.392830    6.289377
  17 N     7.0000    0    14.007   -2.386846    4.220700   -1.253166
  18 O     8.0000    0    15.999   -4.124586    2.930372    5.289326
  19 H     1.0000    0     1.008   -0.605682    3.531459   -1.080877
  20 O     8.0000    0    15.999   -3.081862    0.288865    2.172651
  21 H     1.0000    0     1.008   -2.239193    6.144254    2.159055
  22 H     1.0000    0     1.008   -3.430783    2.854270   -2.108460

--------------------------------
INTERNAL COORDINATES (ANGSTROEM)
--------------------------------
 C      0   0   0     0.000000000000     0.00000000     0.00000000
 C      1   0   0     1.384113822328     0.00000000     0.00000000
 C      1   2   0     2.398120383742    89.74426149     0.00000000
 H      3   1   2     2.137374630626    55.96051957   179.57327231
 H      3   1   2     1.081184797431   149.74893529   178.74968866
 C      2   1   3     1.383924592279   120.14582313     0.18082885
 C      3   1   2     2.512528382837   121.66779278   357.98911421
 H      2   1   3     1.080309946708   120.04170706   180.15981529
 C      3   1   2     1.389406232590    90.70724187   359.54167949
 H      1   2   3     1.079952870455   120.19317808   179.98753938
 C      4   3   1     1.080345225910    34.14732592     0.00000000
 H      6   2   1     1.080462322625   120.01461223   180.37446838
 C      7   3   1     1.545640877650   109.05580335   263.45333405
 H      7   3   1     1.090251358394   133.82832632    43.40012297
 H      7   3   1     1.090563499236    85.13115890   155.64531538
 C     13   7   3     1.524853304241   109.34152717   334.90156378
 H     16  13   7     1.905818764080   141.32266172   293.57465353
 N     13   7   3     1.447130588854   110.37081276    99.11980524
 O     17  16  13     0.970934522684    41.17286518   359.41471659
 H     18  13   7     1.014762889748   110.14594127   178.65188048
 O     16  13   7     1.202314097151   124.38599072   114.16851023
 H     13   7   3     1.096727854435   108.35425629   217.75734963
 H     18  13   7     1.016304783101   109.18144364   295.63592052

---------------------------
INTERNAL COORDINATES (A.U.)
---------------------------
 C      0   0   0     0.000000000000     0.00000000     0.00000000
 C      1   0   0     2.615596062375     0.00000000     0.00000000
 C      1   2   0     4.531790761446    89.74426149     0.00000000
 H      3   1   2     4.039052697473    55.96051957   179.57327231
 H      3   1   2     2.043143167304   149.74893529   178.74968866
 C      2   1   3     2.615238469406   120.14582313     0.18082885
 C      3   1   2     4.747990547266   121.66779278   357.98911421
 H      2   1   3     2.041489939030   120.04170706   180.15981529
 C      3   1   2     2.625597268359    90.70724187   359.54167949
 H      1   2   3     2.040815162702   120.19317808   179.98753938
 C      4   3   1     2.041556607059    34.14732592     0.00000000
 H      6   2   1     2.041777887782   120.01461223   180.37446838
 C      7   3   1     2.920837960153   109.05580335   263.45333405
 H      7   3   1     2.060276484501   133.82832632    43.40012297
 H      7   3   1     2.060866345207    85.13115890   155.64531538
 C     13   7   3     2.881555139421   109.34152717   334.90156378
 H     16  13   7     3.601475524999   141.32266172   293.57465353
 N     13   7   3     2.734680492954   110.37081276    99.11980524
 O     17  16  13     1.834800341843    41.17286518   359.41471659
 H     18  13   7     1.917623952491   110.14594127   178.65188048
 O     16  13   7     2.272044370568   124.38599072   114.16851023
 H     13   7   3     2.072515288326   108.35425629   217.75734963
 H     18  13   7     1.920537708654   109.18144364   295.63592052

---------------------
BASIS SET INFORMATION
---------------------
There are 4 groups of distinct atoms

 Group   1 Type C   : 10s4p1d contracted to 3s2p1d pattern {631/31/1}
 Group   2 Type H   : 4s1p contracted to 2s1p pattern {31/1}
 Group   3 Type N   : 10s4p1d contracted to 3s2p1d pattern {631/31/1}
 Group   4 Type O   : 10s4p1d contracted to 3s2p1d pattern {631/31/1}

Atom   0C    basis set group =>   1
Atom   1C    basis set group =>   1
Atom   2C    basis set group =>   1
Atom   3H    basis set group =>   2
Atom   4H    basis set group =>   2
Atom   5C    basis set group =>   1
Atom   6C    basis set group =>   1
Atom   7H    basis set group =>   2
Atom   8C    basis set group =>   1
Atom   9H    basis set group =>   2
Atom  10C    basis set group =>   1
Atom  11H    basis set group =>   2
Atom  12C    basis set group =>   1
Atom  13H    basis set group =>   2
Atom  14H    basis set group =>   2
Atom  15C    basis set group =>   1
Atom  16H    basis set group =>   2
Atom  17N    basis set group =>   3
Atom  18O    basis set group =>   4
Atom  19H    basis set group =>   2
Atom  20O    basis set group =>   4
Atom  21H    basis set group =>   2
Atom  22H    basis set group =>   2
---------------------------------
AUXILIARY/J BASIS SET INFORMATION
---------------------------------
There are 4 groups of distinct atoms

 Group   1 Type C   : 12s5p4d2f1g contracted to 6s4p3d1f1g pattern {711111/2111/211/2/1}
 Group   2 Type H   : 5s2p1d contracted to 3s1p1d pattern {311/2/1}
 Group   3 Type N   : 12s5p4d2f1g contracted to 6s4p3d1f1g pattern {711111/2111/211/2/1}
 Group   4 Type O   : 12s5p4d2f1g contracted to 6s4p3d1f1g pattern {711111/2111/211/2/1}

Atom   0C    basis set group =>   1
Atom   1C    basis set group =>   1
Atom   2C    basis set group =>   1
Atom   3H    basis set group =>   2
Atom   4H    basis set group =>   2
Atom   5C    basis set group =>   1
Atom   6C    basis set group =>   1
Atom   7H    basis set group =>   2
Atom   8C    basis set group =>   1
Atom   9H    basis set group =>   2
Atom  10C    basis set group =>   1
Atom  11H    basis set group =>   2
Atom  12C    basis set group =>   1
Atom  13H    basis set group =>   2
Atom  14H    basis set group =>   2
Atom  15C    basis set group =>   1
Atom  16H    basis set group =>   2
Atom  17N    basis set group =>   3
Atom  18O    basis set group =>   4
Atom  19H    basis set group =>   2
Atom  20O    basis set group =>   4
Atom  21H    basis set group =>   2
Atom  22H    basis set group =>   2
------------------------------------------------------------------------------
                             ORCA STARTUP CALCULATIONS
                           -- RI-GTO INTEGRALS CHOSEN --
------------------------------------------------------------------------------
------------------------------------------------------------------------------
                   ___                                                        
                  /   \      - P O W E R E D   B Y -                         
                 /     \                                                     
                 |  |  |   _    _      __       _____    __    __             
                 |  |  |  | |  | |    /  \     |  _  \  |  |  /  |          
                  \  \/   | |  | |   /    \    | | | |  |  | /  /          
                 / \  \   | |__| |  /  /\  \   | |_| |  |  |/  /          
                |  |  |   |  __  | /  /__\  \  |    /   |      \           
                |  |  |   | |  | | |   __   |  |    \   |  |\   \          
                \     /   | |  | | |  |  |  |  | |\  \  |  | \   \       
                 \___/    |_|  |_| |__|  |__|  |_| \__\ |__|  \__/        
                                                                              
                      - O R C A' S   B I G   F R I E N D -                    
                                      &                                       
                       - I N T E G R A L  F E E D E R -                       
                                                                              
 v1 FN, 2020, v2 2021, v3 2022-2024                                           
------------------------------------------------------------------------------


----------------------
SHARK INTEGRAL PACKAGE
----------------------

Number of atoms                             ...     23
Number of basis functions                   ...    223
Number of shells                            ...    105
Maximum angular momentum                    ...      2
Integral batch strategy                     ... SHARK/LIBINT Hybrid
RI-J (if used) integral strategy            ... SPLIT-RIJ (Revised 2003 algorithm where possible)
Printlevel                                  ...      1
Contraction scheme used                     ... SEGMENTED contraction
Prescreening option                         ... SCHWARTZ
   Thresh                                   ... 2.500e-11
   Tcut                                     ... 2.500e-12
   Tpresel                                  ... 2.500e-12 
Coulomb Range Separation                    ... NOT USED
Exchange Range Separation                   ... NOT USED
Multipole approximations                    ... NOT USED
Finite Nucleus Model                        ... NOT USED
CABS basis                                  ... NOT available
Auxiliary Coulomb fitting basis             ... AVAILABLE
   # of basis functions in Aux-J            ...    709
   # of shells in Aux-J                     ...    235
   Maximum angular momentum in Aux-J        ...      4
Auxiliary J/K fitting basis                 ... NOT available
Auxiliary Correlation fitting basis         ... NOT available
Auxiliary 'external' fitting basis          ... NOT available

Checking pre-screening integrals            ... done (  0.0 sec) Dimension = 105
   => SHARK Basis and OBASIS are compatible. Storing Pre-screening
Shell pair information
Shell pair cut-off parameter TPreSel        ...   2.5e-12
Total number of shell pairs                 ...      5565
Shell pairs after pre-screening             ...      4892
Total number of primitive shell pairs       ...     28015
Primitive shell pairs kept                  ...     15627
          la=0 lb=0:   1495 shell pairs
          la=1 lb=0:   1780 shell pairs
          la=1 lb=1:    561 shell pairs
          la=2 lb=0:    611 shell pairs
          la=2 lb=1:    373 shell pairs
          la=2 lb=2:     72 shell pairs

Checking whether 4 symmetric matrices of dimension 223 fit in memory
:Max Core in MB      =   4096.00
 MB in use           =     10.06
 MB left             =   4085.94
 MB needed           =      0.76
 Data fit in memory  = YES
Calculating RI/J V-Matrix + Cholesky decomp.... done (  0.0 sec)
Calculating Nuclear repulsion               ... done (  0.0 sec) ENN=    701.648014097803 Eh

Diagonalization of the overlap matrix:
Smallest eigenvalue                        ... 4.379e-04
Time for diagonalization                   ...    0.003 sec
Threshold for overlap eigenvalues          ... 1.000e-07
Number of eigenvalues below threshold      ... 0
Time for construction of square roots      ...    0.001 sec
Total time needed                          ...    0.004 sec

-------------------
DFT GRID GENERATION
-------------------

General Integration Accuracy     IntAcc      ... 4.388
Radial Grid Type                 RadialGrid  ... OptM3 with GC (2021)
Angular Grid (max. ang.)         AngularGrid ... 4 (Lebedev-302)
Angular grid pruning method      GridPruning ... 4 (adaptive)
Weight generation scheme         WeightScheme... mBecke (2022)
Basis function cutoff            BFCut       ... 1.0000e-11
Integration weight cutoff        WCut        ... 1.0000e-14
Partially contracted basis set               ... off
Rotationally invariant grid construction     ... off
Angular grids for H and He will be reduced by one unit

Total number of grid points                  ...   107127
Total number of batches                      ...     1685
Average number of points per batch           ...       63
Average number of grid points per atom       ...     4658
Grids setup in   0.5 sec
Initializing property integral containers    ... done (  0.0 sec)

SHARK setup successfully completed in   0.6 seconds

Maximum memory used throughout the entire STARTUP-calculation: 46.2 MB
-------------------------------------------------------------------------------
                                 ORCA GUESS
                   Start orbitals & Density for SCF / CASSCF
-------------------------------------------------------------------------------

------------
SCF SETTINGS
------------
Hamiltonian:
 Density Functional     Method          .... DFT(GTOs)
 Exchange Functional    Exchange        .... B97(D)
 Correlation Functional Correlation     .... B97(D)
 Gradients option       PostSCFGGA      .... off
 RI-approximation to the Coulomb term is turned on
   Number of AuxJ basis functions       .... 709


General Settings:
 Integral files         IntName         .... 0
 Hartree-Fock type      HFTyp           .... RHF
 Total Charge           Charge          ....    0
 Multiplicity           Mult            ....    1
 Number of Electrons    NEL             ....   88
 Basis Dimension        Dim             ....  223
 Nuclear Repulsion      ENuc            ....    701.6480140978 Eh

Convergence Acceleration:
 AO-DIIS                CNVDIIS         .... on
   Start iteration      DIISMaxIt       ....    12
   Startup error        DIISStart       ....  0.200000
   # of expansion vecs  DIISMaxEq       ....     5
   Bias factor          DIISBfac        ....   1.050
   Max. coefficient     DIISMaxC        ....  10.000
 MO-DIIS                CNVKDIIS        .... off
 Trust-Rad. Augm. Hess. CNVTRAH         .... auto
   Auto Start mean grad. ratio tolernc. ....  1.125000
   Auto Start start iteration           ....    50
   Auto Start num. interpolation iter.  ....    10
   Max. Number of Micro iterations      ....    24
   Max. Number of Macro iterations      .... Maxiter - #DIIS iter
   Number of Davidson start vectors     ....     2
   Converg. threshold    (grad. norm)   ....   1.000e-05
   Grad. Scal. Fac. for Micro threshold ....   0.100
   Minimum threshold for Micro iter.    ....   1.000e-02
   NR start threshold (gradient norm)   ....   1.000e-04
   Initial trust radius                 ....   0.400
   Minimum AH scaling param. (alpha)    ....   1.000
   Maximum AH scaling param. (alpha)    .... 1000.000
   Quad. conv. algorithm                .... NR
   White noise on init. David. guess    .... on
   Maximum white noise                  ....   0.010
   Pseudo random numbers                .... off
   Inactive MOs                         .... canonical
   Orbital update algorithm             .... Taylor
   Preconditioner                       .... Diag
   Full preconditioner red. dimension   ....   250
 SOSCF                 CNVSOSCF           .... on
   Start iteration     SOSCFMaxIt         ....   150
   Startup grad/error  SOSCFStart         ....  0.003300
   Hessian update      SOSCFHessUp        .... L-BFGS
   Autom. constraints  SOSCFAutoConstrain .... off
 Level Shifting         CNVShift        .... on
   Level shift para.    LevelShift      ....    0.2500
   Turn off err/grad.   ShiftErr        ....    0.0010
 Zerner damping         CNVZerner       .... off
 Static damping         CNVDamp         .... on
   Fraction old density DampFac         ....    0.7000
   Max. Damping (<1)    DampMax         ....    0.9800
   Min. Damping (>=0)   DampMin         ....    0.0000
   Turn off err/grad.   DampErr         ....    0.1000

SCF Procedure:
 Maximum # iterations   MaxIter         ....   125
 SCF integral mode      SCFMode         .... Direct
   Integral package                     .... SHARK and LIBINT hybrid scheme
 Reset frequency        DirectResetFreq ....    20
 Integral Threshold     Thresh          ....  2.500e-11 Eh
 Primitive CutOff       TCut            ....  2.500e-12 Eh

Convergence Tolerance:
 Convergence Check Mode ConvCheckMode   .... Total+1el-Energy
 Convergence forced     ConvForced      .... 0
 Energy Change          TolE            ....  1.000e-08 Eh
 1-El. energy change                    ....  1.000e-05 Eh
 Orbital Gradient       TolG            ....  1.000e-05
 Orbital Rotation angle TolX            ....  1.000e-05
 DIIS Error             TolErr          ....  5.000e-07

------------------------------
INITIAL GUESS: MODEL POTENTIAL
------------------------------
Loading Hartree-Fock densities                     ... done
Calculating cut-offs                               ... done
Initializing the effective Hamiltonian             ... done
Setting up the integral package (SHARK)            ... done
Starting the Coulomb interaction                   ... done (   0.1 sec)
Making the grid                                    ... done (   0.1 sec)
Mapping shells                                     ... done
Starting the XC term evaluation                    ... done (   0.1 sec)
  promolecular density results
     # of electrons  =     87.992253878
     EX              =    -71.439971225
     EC              =     -3.856197058
     EX+EC           =    -75.296168283
Transforming the Hamiltonian                       ... done (   0.0 sec)
Diagonalizing the Hamiltonian                      ... done (   0.0 sec)
Back transforming the eigenvectors                 ... done (   0.0 sec)
Now organizing SCF variables                       ... done
                      ------------------
                      INITIAL GUESS DONE (   0.4 sec)
                      ------------------
             **** ENERGY FILE WAS UPDATED (0.en.tmp) ****
Finished Guess after   0.4 sec
Maximum memory used throughout the entire GUESS-calculation: 16.5 MB

-------------------------------------------------------------------------------------------
                                      ORCA LEAN-SCF
                              memory conserving SCF solver
-------------------------------------------------------------------------------------------

----------------------------------------D-I-I-S--------------------------------------------
Iteration    Energy (Eh)           Delta-E    RMSDP     MaxDP     DIISErr   Damp  Time(sec)
-------------------------------------------------------------------------------------------
               ***  Starting incremental Fock matrix formation  ***
    1    -554.0322991789940943     0.00e+00  3.11e-03  1.11e-01  2.60e-01  0.700   0.8
    2    -554.2066124197357340    -1.74e-01  2.04e-03  5.86e-02  9.53e-02  0.700   0.7
                               ***Turning on AO-DIIS***
    3    -554.2631139764442878    -5.65e-02  8.00e-04  1.63e-02  2.80e-02  0.700   0.7
    4    -554.2995923165038903    -3.65e-02  1.13e-03  2.09e-02  1.44e-02  0.000   0.7
    5    -554.3825814178986775    -8.30e-02  3.51e-04  9.26e-03  7.77e-03  0.000   0.7
    6    -554.3833445710425849    -7.63e-04  1.29e-04  2.70e-03  3.36e-03  0.000   0.7
                              *** Initializing SOSCF ***
---------------------------------------S-O-S-C-F--------------------------------------
Iteration    Energy (Eh)           Delta-E    RMSDP     MaxDP     MaxGrad    Time(sec)
--------------------------------------------------------------------------------------
    7    -554.3834007270562552    -5.62e-05  4.40e-05  1.03e-03  1.40e-03     0.7
               *** Restarting incremental Fock matrix formation ***
    8    -554.3834093341275775    -8.61e-06  2.64e-05  5.93e-04  1.08e-04     0.8
    9    -554.3834091142747411     2.20e-07  1.28e-05  4.41e-04  2.06e-04     0.6
   10    -554.3834099550266501    -8.41e-07  1.13e-05  3.69e-04  1.26e-04     0.6
   11    -554.3834098262501584     1.29e-07  5.72e-06  1.93e-04  1.22e-04     0.6
   12    -554.3834101046417118    -2.78e-07  3.93e-06  9.20e-05  1.88e-05     0.6
   13    -554.3834100870002430     1.76e-08  1.94e-06  4.09e-05  3.98e-05     0.6
   14    -554.3834101179974141    -3.10e-08  1.81e-06  4.24e-05  8.55e-06     0.6
   15    -554.3834101187154602    -7.18e-10  9.45e-07  2.21e-05  8.50e-06     0.6
                 **** Energy Check signals convergence ****

               *****************************************************
               *                     SUCCESS                       *
               *           SCF CONVERGED AFTER  15 CYCLES          *
               *****************************************************

             **** ENERGY FILE WAS UPDATED (0.en.tmp) ****

----------------
TOTAL SCF ENERGY
----------------

Total Energy       :       -554.38341011921386 Eh          -15085.53952 eV

Components:
Nuclear Repulsion  :        701.64801409780341 Eh           19092.81312 eV
Electronic Energy  :      -1256.03142421701727 Eh          -34178.35265 eV
One Electron Energy:      -2146.01366922078159 Eh          -58396.00073 eV
Two Electron Energy:        889.98224500376432 Eh           24217.64809 eV

Virial components:
Potential Energy   :      -1106.05640870828120 Eh          -30097.32500 eV
Kinetic Energy     :        551.67299858906722 Eh           15011.78548 eV
Virial Ratio       :          2.00491307629171

DFT components:
N(Alpha)           :       44.000057423931 electrons
N(Beta)            :       44.000057423931 electrons
N(Total)           :       88.000114847862 electrons
E(X)               :      -72.999968531165 Eh       
E(C)               :       -3.856689509232 Eh       
E(XC)              :      -76.856658040397 Eh       

---------------
SCF CONVERGENCE
---------------

  Last Energy change         ...    7.1805e-10  Tolerance :   1.0000e-08
  Last MAX-Density change    ...    2.2147e-05  Tolerance :   1.0000e-07
  Last RMS-Density change    ...    9.4466e-07  Tolerance :   5.0000e-09
  Last DIIS Error            ...    1.4037e-03  Tolerance :   5.0000e-07
  Last Orbital Gradient      ...    8.4976e-06  Tolerance :   1.0000e-05
  Last Orbital Rotation      ...    1.5461e-05  Tolerance :   1.0000e-05


----------------
ORBITAL ENERGIES
----------------

  NO   OCC          E(Eh)            E(eV) 
   0   2.0000     -18.814120      -511.9582 
   1   2.0000     -18.751571      -510.2562 
   2   2.0000     -13.983336      -380.5059 
   3   2.0000     -10.025569      -272.8096 
   4   2.0000      -9.948944      -270.7245 
   5   2.0000      -9.912590      -269.7353 
   6   2.0000      -9.912357      -269.7289 
   7   2.0000      -9.905543      -269.5435 
   8   2.0000      -9.905499      -269.5423 
   9   2.0000      -9.904186      -269.5066 
  10   2.0000      -9.903457      -269.4868 
  11   2.0000      -9.903205      -269.4799 
  12   2.0000      -1.020163       -27.7600 
  13   2.0000      -0.930388       -25.3172 
  14   2.0000      -0.816087       -22.2069 
  15   2.0000      -0.779962       -21.2238 
  16   2.0000      -0.708888       -19.2898 
  17   2.0000      -0.674452       -18.3528 
  18   2.0000      -0.657225       -17.8840 
  19   2.0000      -0.602838       -16.4040 
  20   2.0000      -0.544582       -14.8188 
  21   2.0000      -0.542730       -14.7684 
  22   2.0000      -0.515427       -14.0255 
  23   2.0000      -0.465103       -12.6561 
  24   2.0000      -0.449531       -12.2324 
  25   2.0000      -0.439229       -11.9520 
  26   2.0000      -0.419350       -11.4111 
  27   2.0000      -0.407165       -11.0795 
  28   2.0000      -0.400783       -10.9059 
  29   2.0000      -0.387794       -10.5524 
  30   2.0000      -0.375540       -10.2190 
  31   2.0000      -0.367851       -10.0097 
  32   2.0000      -0.357330        -9.7234 
  33   2.0000      -0.334229        -9.0948 
  34   2.0000      -0.331934        -9.0324 
  35   2.0000      -0.327449        -8.9103 
  36   2.0000      -0.310128        -8.4390 
  37   2.0000      -0.292194        -7.9510 
  38   2.0000      -0.285586        -7.7712 
  39   2.0000      -0.272495        -7.4150 
  40   2.0000      -0.223063        -6.0699 
  41   2.0000      -0.217949        -5.9307 
  42   2.0000      -0.213125        -5.7994 
  43   2.0000      -0.193930        -5.2771 
  44   0.0000      -0.027375        -0.7449 
  45   0.0000      -0.023032        -0.6267 
  46   0.0000      -0.010743        -0.2923 
  47   0.0000       0.050080         1.3627 
  48   0.0000       0.073442         1.9985 
  49   0.0000       0.085783         2.3343 
  50   0.0000       0.102099         2.7783 
  51   0.0000       0.115479         3.1423 
  52   0.0000       0.133969         3.6455 
  53   0.0000       0.139458         3.7948 
  54   0.0000       0.148546         4.0421 
*Only the first 10 virtual orbitals were printed.

                    ********************************
                    * MULLIKEN POPULATION ANALYSIS *
                    ********************************

-----------------------
MULLIKEN ATOMIC CHARGES
-----------------------
   0 C :   -0.086401
   1 C :   -0.088763
   2 C :   -0.113539
   3 H :    0.087983
   4 H :    0.085409
   5 C :   -0.133222
   6 C :   -0.240056
   7 H :    0.090052
   8 C :    0.083437
   9 H :    0.088583
  10 C :   -0.087807
  11 H :    0.099362
  12 C :   -0.049386
  13 H :    0.127880
  14 H :    0.122399
  15 C :    0.500483
  16 H :    0.317115
  17 N :   -0.556487
  18 O :   -0.458472
  19 H :    0.244686
  20 O :   -0.412625
  21 H :    0.128373
  22 H :    0.250993
Sum of atomic charges:    0.0000000

--------------------------------
MULLIKEN REDUCED ORBITAL CHARGES
--------------------------------
  0 C s       :     3.175964  s :     3.175964
      pz      :     0.932552  p :     2.875755
      px      :     0.974216
      py      :     0.968987
      dz2     :     0.009704  d :     0.034682
      dxz     :     0.008168
      dyz     :     0.009011
      dx2y2   :     0.002662
      dxy     :     0.005136

  1 C s       :     3.179888  s :     3.179888
      pz      :     0.959720  p :     2.874008
      px      :     0.960234
      py      :     0.954054
      dz2     :     0.010557  d :     0.034867
      dxz     :     0.005729
      dyz     :     0.006926
      dx2y2   :     0.006328
      dxy     :     0.005327

  2 C s       :     3.182667  s :     3.182667
      pz      :     0.961794  p :     2.896235
      px      :     0.968947
      py      :     0.965494
      dz2     :     0.010435  d :     0.034638
      dxz     :     0.005729
      dyz     :     0.007002
      dx2y2   :     0.006148
      dxy     :     0.005324

  3 H s       :     0.899575  s :     0.899575
      pz      :     0.004306  p :     0.012442
      px      :     0.003956
      py      :     0.004179

  4 H s       :     0.901996  s :     0.901996
      pz      :     0.007075  p :     0.012595
      px      :     0.002872
      py      :     0.002649

  5 C s       :     3.192803  s :     3.192803
      pz      :     0.958182  p :     2.905723
      px      :     0.972075
      py      :     0.975466
      dz2     :     0.008424  d :     0.034695
      dxz     :     0.008239
      dyz     :     0.009549
      dx2y2   :     0.003882
      dxy     :     0.004601

  6 C s       :     3.233281  s :     3.233281
      pz      :     1.043901  p :     2.970421
      px      :     0.934648
      py      :     0.991872
      dz2     :     0.006485  d :     0.036354
      dxz     :     0.004980
      dyz     :     0.008778
      dx2y2   :     0.008066
      dxy     :     0.008045

  7 H s       :     0.897512  s :     0.897512
      pz      :     0.007076  p :     0.012436
      px      :     0.002721
      py      :     0.002639

  8 C s       :     3.139662  s :     3.139662
      pz      :     0.889304  p :     2.735340
      px      :     0.942025
      py      :     0.904011
      dz2     :     0.010571  d :     0.041561
      dxz     :     0.009277
      dyz     :     0.010465
      dx2y2   :     0.005638
      dxy     :     0.005610

  9 H s       :     0.898955  s :     0.898955
      pz      :     0.002761  p :     0.012462
      px      :     0.004569
      py      :     0.005132

 10 C s       :     3.179495  s :     3.179495
      pz      :     0.936916  p :     2.873435
      px      :     0.971719
      py      :     0.964800
      dz2     :     0.008293  d :     0.034877
      dxz     :     0.008417
      dyz     :     0.009579
      dx2y2   :     0.003949
      dxy     :     0.004639

 11 H s       :     0.888102  s :     0.888102
      pz      :     0.004214  p :     0.012536
      px      :     0.004077
      py      :     0.004246

 12 C s       :     3.199392  s :     3.199392
      pz      :     0.863851  p :     2.792328
      px      :     0.971750
      py      :     0.956727
      dz2     :     0.012180  d :     0.057665
      dxz     :     0.011569
      dyz     :     0.017491
      dx2y2   :     0.007458
      dxy     :     0.008968

 13 H s       :     0.860540  s :     0.860540
      pz      :     0.004242  p :     0.011579
      px      :     0.002421
      py      :     0.004916

 14 H s       :     0.866054  s :     0.866054
      pz      :     0.005883  p :     0.011548
      px      :     0.002744
      py      :     0.002921

 15 C s       :     2.985932  s :     2.985932
      pz      :     0.747244  p :     2.389090
      px      :     0.779388
      py      :     0.862459
      dz2     :     0.032903  d :     0.124495
      dxz     :     0.016693
      dyz     :     0.039159
      dx2y2   :     0.017470
      dxy     :     0.018270

 16 H s       :     0.644940  s :     0.644940
      pz      :     0.011185  p :     0.037945
      px      :     0.009257
      py      :     0.017503

 17 N s       :     3.586849  s :     3.586849
      pz      :     1.267120  p :     3.941241
      px      :     1.136284
      py      :     1.537838
      dz2     :     0.007912  d :     0.028396
      dxz     :     0.004421
      dyz     :     0.004543
      dx2y2   :     0.003238
      dxy     :     0.008282

 18 O s       :     3.826953  s :     3.826953
      pz      :     1.301977  p :     4.608782
      px      :     1.751547
      py      :     1.555257
      dz2     :     0.004805  d :     0.022737
      dxz     :     0.003648
      dyz     :     0.007916
      dx2y2   :     0.004314
      dxy     :     0.002054

 19 H s       :     0.731441  s :     0.731441
      pz      :     0.005328  p :     0.023873
      px      :     0.010954
      py      :     0.007591

 20 O s       :     3.858988  s :     3.858988
      pz      :     1.708757  p :     4.525411
      px      :     1.418318
      py      :     1.398335
      dz2     :     0.003546  d :     0.028225
      dxz     :     0.001434
      dyz     :     0.007363
      dx2y2   :     0.006825
      dxy     :     0.009058

 21 H s       :     0.860649  s :     0.860649
      pz      :     0.002818  p :     0.010978
      px      :     0.003666
      py      :     0.004494

 22 H s       :     0.724840  s :     0.724840
      pz      :     0.007251  p :     0.024167
      px      :     0.007086
      py      :     0.009829



                     *******************************
                     * LOEWDIN POPULATION ANALYSIS *
                     *******************************

----------------------
LOEWDIN ATOMIC CHARGES
----------------------
   0 C :   -0.073404
   1 C :   -0.069714
   2 C :   -0.077340
   3 H :    0.072575
   4 H :    0.070612
   5 C :   -0.081319
   6 C :   -0.111138
   7 H :    0.073261
   8 C :   -0.020474
   9 H :    0.072732
  10 C :   -0.068084
  11 H :    0.075520
  12 C :   -0.045638
  13 H :    0.083899
  14 H :    0.080683
  15 C :    0.101038
  16 H :    0.180977
  17 N :   -0.247361
  18 O :   -0.143343
  19 H :    0.128258
  20 O :   -0.214527
  21 H :    0.084302
  22 H :    0.128484

-------------------------------
LOEWDIN REDUCED ORBITAL CHARGES
-------------------------------
  0 C s       :     2.895902  s :     2.895902
      pz      :     1.062239  p :     3.091294
      px      :     1.009604
      py      :     1.019451
      dz2     :     0.027411  d :     0.086208
      dxz     :     0.020456
      dyz     :     0.023179
      dx2y2   :     0.004927
      dxy     :     0.010235

  1 C s       :     2.896310  s :     2.896310
      pz      :     1.051749  p :     3.086696
      px      :     1.010398
      py      :     1.024548
      dz2     :     0.024729  d :     0.086709
      dxz     :     0.014674
      dyz     :     0.018317
      dx2y2   :     0.014100
      dxy     :     0.014888

  2 C s       :     2.895860  s :     2.895860
      pz      :     1.050271  p :     3.095286
      px      :     1.018413
      py      :     1.026602
      dz2     :     0.024578  d :     0.086194
      dxz     :     0.014698
      dyz     :     0.018327
      dx2y2   :     0.013447
      dxy     :     0.015145

  3 H s       :     0.886806  s :     0.886806
      pz      :     0.014647  p :     0.040620
      px      :     0.012458
      py      :     0.013514

  4 H s       :     0.887951  s :     0.887951
      pz      :     0.026066  p :     0.041438
      px      :     0.007849
      py      :     0.007523

  5 C s       :     2.896897  s :     2.896897
      pz      :     1.052615  p :     3.098326
      px      :     1.016785
      py      :     1.028926
      dz2     :     0.023068  d :     0.086096
      dxz     :     0.020259
      dyz     :     0.023857
      dx2y2   :     0.007971
      dxy     :     0.010941

  6 C s       :     2.896362  s :     2.896362
      pz      :     1.078331  p :     3.133380
      px      :     1.007472
      py      :     1.047577
      dz2     :     0.014313  d :     0.081395
      dxz     :     0.010449
      dyz     :     0.018915
      dx2y2   :     0.018145
      dxy     :     0.019573

  7 H s       :     0.886050  s :     0.886050
      pz      :     0.025659  p :     0.040689
      px      :     0.007583
      py      :     0.007447

  8 C s       :     2.873736  s :     2.873736
      pz      :     1.065705  p :     3.042180
      px      :     0.982234
      py      :     0.994241
      dz2     :     0.029935  d :     0.104558
      dxz     :     0.023576
      dyz     :     0.026767
      dx2y2   :     0.010956
      dxy     :     0.013323

  9 H s       :     0.886509  s :     0.886509
      pz      :     0.008567  p :     0.040760
      px      :     0.014898
      py      :     0.017295

 10 C s       :     2.896023  s :     2.896023
      pz      :     1.059157  p :     3.085335
      px      :     1.007578
      py      :     1.018601
      dz2     :     0.023128  d :     0.086726
      dxz     :     0.020568
      dyz     :     0.024003
      dx2y2   :     0.008176
      dxy     :     0.010850

 11 H s       :     0.882776  s :     0.882776
      pz      :     0.014823  p :     0.041705
      px      :     0.012825
      py      :     0.014057

 12 C s       :     2.883983  s :     2.883983
      pz      :     0.970623  p :     3.030684
      px      :     1.027675
      py      :     1.032386
      dz2     :     0.027507  d :     0.130971
      dxz     :     0.024063
      dyz     :     0.041741
      dx2y2   :     0.017830
      dxy     :     0.019830

 13 H s       :     0.875826  s :     0.875826
      pz      :     0.014972  p :     0.040274
      px      :     0.007036
      py      :     0.018266

 14 H s       :     0.879193  s :     0.879193
      pz      :     0.022331  p :     0.040124
      px      :     0.008689
      py      :     0.009104

 15 C s       :     2.859344  s :     2.859344
      pz      :     0.903956  p :     2.741390
      px      :     0.791930
      py      :     1.045504
      dz2     :     0.080552  d :     0.298228
      dxz     :     0.037986
      dyz     :     0.098158
      dx2y2   :     0.043470
      dxy     :     0.038062

 16 H s       :     0.703237  s :     0.703237
      pz      :     0.032985  p :     0.115786
      px      :     0.025949
      py      :     0.056851

 17 N s       :     3.194491  s :     3.194491
      pz      :     1.302817  p :     3.995213
      px      :     1.160290
      py      :     1.532105
      dz2     :     0.017384  d :     0.057657
      dxz     :     0.011964
      dyz     :     0.008451
      dx2y2   :     0.006404
      dxy     :     0.013454

 18 O s       :     3.470481  s :     3.470481
      pz      :     1.340578  p :     4.621898
      px      :     1.722209
      py      :     1.559111
      dz2     :     0.015773  d :     0.050964
      dxz     :     0.008214
      dyz     :     0.018580
      dx2y2   :     0.006430
      dxy     :     0.001966

 19 H s       :     0.792841  s :     0.792841
      pz      :     0.015406  p :     0.078900
      px      :     0.039911
      py      :     0.023583

 20 O s       :     3.554039  s :     3.554039
      pz      :     1.700415  p :     4.602290
      px      :     1.407558
      py      :     1.494317
      dz2     :     0.008176  d :     0.058197
      dxz     :     0.002426
      dyz     :     0.015981
      dx2y2   :     0.017667
      dxy     :     0.013947

 21 H s       :     0.876322  s :     0.876322
      pz      :     0.009367  p :     0.039377
      px      :     0.013319
      py      :     0.016690

 22 H s       :     0.790632  s :     0.790632
      pz      :     0.023116  p :     0.080883
      px      :     0.022195
      py      :     0.035573



                      *****************************
                      * MAYER POPULATION ANALYSIS *
                      *****************************

  NA   - Mulliken gross atomic population
  ZA   - Total nuclear charge
  QA   - Mulliken gross atomic charge
  VA   - Mayer's total valence
  BVA  - Mayer's bonded valence
  FA   - Mayer's free valence

  ATOM       NA         ZA         QA         VA         BVA        FA
  0 C      6.0864     6.0000    -0.0864     3.9498     3.9498     0.0000
  1 C      6.0888     6.0000    -0.0888     3.9400     3.9400    -0.0000
  2 C      6.1135     6.0000    -0.1135     3.9398     3.9398     0.0000
  3 H      0.9120     1.0000     0.0880     0.9565     0.9565    -0.0000
  4 H      0.9146     1.0000     0.0854     0.9676     0.9676     0.0000
  5 C      6.1332     6.0000    -0.1332     3.9377     3.9377    -0.0000
  6 C      6.2401     6.0000    -0.2401     3.8708     3.8708     0.0000
  7 H      0.9099     1.0000     0.0901     0.9563     0.9563    -0.0000
  8 C      5.9166     6.0000     0.0834     3.9945     3.9945    -0.0000
  9 H      0.9114     1.0000     0.0886     0.9564     0.9564    -0.0000
 10 C      6.0878     6.0000    -0.0878     3.9436     3.9436     0.0000
 11 H      0.9006     1.0000     0.0994     0.9619     0.9619     0.0000
 12 C      6.0494     6.0000    -0.0494     3.8782     3.8782     0.0000
 13 H      0.8721     1.0000     0.1279     0.9557     0.9557     0.0000
 14 H      0.8776     1.0000     0.1224     0.9539     0.9539     0.0000
 15 C      5.4995     6.0000     0.5005     3.9489     3.9489     0.0000
 16 H      0.6829     1.0000     0.3171     0.9193     0.9193    -0.0000
 17 N      7.5565     7.0000    -0.5565     2.9060     2.9060    -0.0000
 18 O      8.4585     8.0000    -0.4585     2.0236     2.0236     0.0000
 19 H      0.7553     1.0000     0.2447     0.9232     0.9232     0.0000
 20 O      8.4126     8.0000    -0.4126     2.1197     2.1197     0.0000
 21 H      0.8716     1.0000     0.1284     0.9472     0.9472     0.0000
 22 H      0.7490     1.0000     0.2510     0.9338     0.9338    -0.0000

  Mayer bond orders larger than 0.100000
B(  0-C ,  1-C ) :   1.4471 B(  0-C ,  9-H ) :   0.9396 B(  0-C , 10-C ) :   1.4454 
B(  1-C ,  5-C ) :   1.4282 B(  1-C ,  7-H ) :   0.9381 B(  2-C ,  4-H ) :   0.9297 
B(  2-C ,  8-C ) :   1.4269 B(  2-C , 10-C ) :   1.4338 B(  3-H , 10-C ) :   0.9381 
B(  5-C ,  8-C ) :   1.4267 B(  5-C , 11-H ) :   0.9306 B(  6-C ,  8-C ) :   1.0005 
B(  6-C , 12-C ) :   0.9560 B(  6-C , 13-H ) :   0.9338 B(  6-C , 14-H ) :   0.9358 
B( 12-C , 15-C ) :   0.8963 B( 12-C , 17-N ) :   1.0676 B( 12-C , 21-H ) :   0.9220 
B( 15-C , 18-O ) :   1.0645 B( 15-C , 20-O ) :   1.9332 B( 16-H , 18-O ) :   0.8511 
B( 17-N , 19-H ) :   0.9066 B( 17-N , 22-H ) :   0.8850 

-------
TIMINGS
-------

Total SCF time: 0 days 0 hours 0 min 10 sec 

Total time                  ....      10.771 sec
Sum of individual times     ....      10.133 sec  ( 94.1%)

SCF preparation             ....       0.031 sec  (  0.3%)
Fock matrix formation       ....       9.989 sec  ( 92.7%)
  Startup                   ....       0.001 sec  (  0.0% of F)
  Split-RI-J                ....       3.969 sec  ( 39.7% of F)
  XC integration            ....       6.570 sec  ( 65.8% of F)
    XC Preparation          ....       0.000 sec  (  0.0% of XC)
    Basis function eval.    ....       2.342 sec  ( 35.6% of XC)
    Density eval.           ....       1.528 sec  ( 23.3% of XC)
    XC-Functional eval.     ....       1.048 sec  ( 16.0% of XC)
    XC-Potential eval.      ....       1.488 sec  ( 22.7% of XC)
Diagonalization             ....       0.000 sec  (  0.0%)
Density matrix formation    ....       0.007 sec  (  0.1%)
Total Energy calculation    ....       0.001 sec  (  0.0%)
Population analysis         ....       0.003 sec  (  0.0%)
Orbital Transformation      ....       0.027 sec  (  0.2%)
Orbital Orthonormalization  ....       0.000 sec  (  0.0%)
DIIS solution               ....       0.045 sec  (  0.4%)
SOSCF solution              ....       0.030 sec  (  0.3%)
Finished LeanSCF after  10.8 sec

Maximum memory used throughout the entire LEANSCF-calculation: 25.8 MB



-------------------------------------------------------------------------------
                          DFT DISPERSION CORRECTION                            
-------------------------------------------------------------------------------
Active option DFTDOPT                   ...         2   
Final C6-coefficient scaling factor     ...     1.250
Final VDW-radii scaling factor          ...     1.100
Damping factor alpha                    ...    20.000
-------------------------   ----------------
Dispersion correction           -0.034489683
-------------------------   ----------------


-------------------------   --------------------
FINAL SINGLE POINT ENERGY      -554.417899802201
-------------------------   --------------------

------------------------------------------------------------------------------
                         ORCA SCF GRADIENT CALCULATION
------------------------------------------------------------------------------

Nuc. rep. gradient        (SHARK) ... done (  0.0 sec)
HCore & Overlap gradient  (SHARK) ... done (  0.2 sec)
Split-RIJ-J gradient      (SHARK) ... done (  1.0 sec)
XC gradient                       ... done (  3.5 sec)
Dispersion correction             ... done (  0.0 sec)

-------------------
DISPERSION GRADIENT
-------------------

   1   C   :    0.000451043    0.000644038    0.000273651
   2   C   :   -0.000255031   -0.000013457    0.000802292
   3   C   :   -0.001759627   -0.000638913   -0.001177372
   4   H   :   -0.000042369   -0.000019166   -0.000023357
   5   H   :   -0.001161384   -0.000356866    0.000021613
   6   C   :   -0.001803902   -0.000936542   -0.000253724
   7   C   :    0.000686418    0.000330361    0.000264775
   8   H   :   -0.000037255   -0.000018958   -0.000008102
   9   C   :   -0.000507210    0.000115834    0.000100570
  10   H   :    0.000005353    0.000013346    0.000002850
  11   C   :    0.000098173    0.000396207   -0.000757022
  12   H   :   -0.000868583   -0.000066653   -0.000751195
  13   C   :    0.000208976    0.000191097    0.000080696
  14   H   :   -0.000331837    0.000341519    0.000976231
  15   H   :   -0.000175548    0.001079621   -0.000933342
  16   C   :    0.000621676    0.000455682    0.000117728
  17   H   :    0.000305516   -0.000321232   -0.000135534
  18   N   :    0.000962712   -0.000119733    0.000986318
  19   O   :    0.000949451   -0.000547591    0.000803018
  20   H   :    0.000372887   -0.000025720   -0.000806943
  21   O   :    0.000570613   -0.000357502    0.001118490
  22   H   :    0.000265958    0.000029272   -0.000031869
  23   H   :    0.001443970   -0.000174642   -0.000669772

Difference to translation invariance:
           :   -0.0000000000   -0.0000000000    0.0000000000

Difference to rotation invariance:
           :    0.0000000000    0.0000000000    0.0000000000

Norm of the Dispersion gradient    ...    0.0052927088
RMS gradient                       ...    0.0006371673
MAX gradient                       ...    0.0018039023

------------------
CARTESIAN GRADIENT
------------------

   1   C   :    0.007147970    0.008481821    0.003915986
   2   C   :    0.000947401    0.002030295    0.011435178
   3   C   :    0.000560199   -0.001120074   -0.010428209
   4   H   :    0.003975587    0.004227324   -0.004959721
   5   H   :   -0.001731852   -0.001329654   -0.006639812
   6   C   :   -0.004489306   -0.005512589    0.007096842
   7   C   :    0.000064521   -0.000102851   -0.001092497
   8   H   :    0.000921098    0.000909030    0.007557815
   9   C   :   -0.003714294   -0.010787615   -0.003190256
  10   H   :    0.004851691    0.005375439    0.002684612
  11   C   :    0.005312565    0.006495796   -0.007244434
  12   H   :   -0.004315100   -0.004664208    0.004314161
  13   C   :   -0.002685752   -0.001773183    0.001407926
  14   H   :   -0.000995774   -0.005029812    0.002503919
  15   H   :    0.001543084   -0.002366233   -0.004457244
  16   C   :   -0.004755073   -0.006160582    0.002133997
  17   H   :   -0.001196311    0.005582025    0.002970800
  18   N   :   -0.001184758   -0.008678451    0.008262638
  19   O   :    0.007914270   -0.018181618   -0.023139812
  20   H   :   -0.002022931    0.003201872   -0.001085655
  21   O   :   -0.005757138    0.028212647    0.010381631
  22   H   :   -0.001117600   -0.002855079   -0.002013071
  23   H   :    0.000727502    0.004045698   -0.000414795

Difference to translation invariance:
           :   -0.0000000000    0.0000000000   -0.0000000000

Difference to rotation invariance:
           :    0.0003120614    0.0000685527   -0.0000082482

Norm of the Cartesian gradient     ...    0.0571859559
RMS gradient                       ...    0.0068843801
MAX gradient                       ...    0.0282126474

-------
TIMINGS
-------

Total SCF gradient time     ....        4.708 sec

Densities                   ....       0.000 sec  (  0.0%)
One electron gradient       ....       0.190 sec  (  4.0%)
RI-J Coulomb gradient       ....       0.981 sec  ( 20.8%)
XC gradient                 ....       3.537 sec  ( 75.1%)

Maximum memory used throughout the entire SCFGRAD-calculation: 32.7 MB
------------------------------------------------------------------------------
                         ORCA GEOMETRY RELAXATION STEP
------------------------------------------------------------------------------

Reading the OPT-File                    .... done
Getting information on internals        .... done
Copying old internal coords+grads       .... done
Making the new internal coordinates     .... (2022 redundants) done
Validating the new internal coordinates .... (2022 redundants) done
Calculating the B-matrix                .... done
Calculating the G,G- and P matrices     .... done
Transforming gradient to internals      .... done
Projecting the internal gradient        .... done
Number of atoms                         ....  23
Number of internal coordinates          .... 107
Current Energy                          ....  -554.417899802 Eh
Current gradient norm                   ....     0.057185956 Eh/bohr
Maximum allowed component of the step   ....  0.300
Current trust radius                    ....  0.300
Evaluating the initial hessian          ....  (Almloef) done
Projecting the Hessian                  .... done
Forming the augmented Hessian           .... done
Diagonalizing the augmented Hessian     .... done
Last element of RFO vector              ....  0.979321002
Lowest eigenvalues of augmented Hessian:
 -0.008830922  0.010379105  0.010829867  0.012623464  0.017557120
Length of the computed step             ....  0.206584527
The final length of the internal step   ....  0.206584527
Converting the step to Cartesian space:
 Initial RMS(Int)=    0.0199712800
Transforming coordinates:
 Iter   0:  RMS(Cart)=    0.1003810106 RMS(Int)=    1.0476859563
 Iter   5:  RMS(Cart)=    0.0000000473 RMS(Int)=    0.0000000243
done
Storing new coordinates                 .... done

                                .--------------------.
          ----------------------|Geometry convergence|-------------------------
          Item                value                   Tolerance       Converged
          ---------------------------------------------------------------------
          RMS gradient        0.0067013614            0.0001000000      NO
          MAX gradient        0.0306019071            0.0003000000      NO
          RMS step            0.0199712800            0.0020000000      NO
          MAX step            0.0778919041            0.0040000000      NO
          -------------------------------------------------------------------------
          ........................................................
          Max(Bonds)      0.0180      Max(Angles)    1.65
          Max(Dihed)        4.46      Max(Improp)    0.00
          ---------------------------------------------------------------------

The optimization has not yet converged - more geometry cycles are needed


    ---------------------------------------------------------------------------
                         Redundant Internal Coordinates
                            (Angstroem and degrees)

        Definition                    Value    dE/dq     Step     New-Value
    ----------------------------------------------------------------------------
     1. B(C   1,C   0)                1.3841 -0.018944  0.0155    1.3996   
     2. B(H   4,C   2)                1.0812 -0.006902  0.0096    1.0908   
     3. B(C   5,C   1)                1.3839 -0.019234  0.0157    1.3996   
     4. B(H   7,C   1)                1.0803 -0.007666  0.0106    1.0909   
     5. B(C   8,C   5)                1.3896 -0.018778  0.0156    1.4052   
     6. B(C   8,C   6)                1.5028 -0.010448  0.0131    1.5159   
     7. B(C   8,C   2)                1.3894 -0.018548  0.0154    1.4048   
     8. B(H   9,C   0)                1.0800 -0.007720  0.0107    1.0906   
     9. B(C  10,H   3)                1.0803 -0.007632  0.0106    1.0909   
    10. B(C  10,C   2)                1.3833 -0.019136  0.0156    1.3989   
    11. B(C  10,C   0)                1.3843 -0.019129  0.0157    1.4000   
    12. B(H  11,C   5)                1.0805 -0.007635  0.0106    1.0910   
    13. B(C  12,C   6)                1.5456 -0.010706  0.0157    1.5613   
    14. B(H  13,C   6)                1.0903 -0.005515  0.0079    1.0982   
    15. B(H  14,C   6)                1.0906 -0.005238  0.0075    1.0981   
    16. B(C  15,C  12)                1.5249 -0.012024  0.0163    1.5412   
    17. B(N  17,C  12)                1.4471 -0.006790  0.0078    1.4549   
    18. B(O  18,H  16)                0.9709 -0.003031  0.0032    0.9741   
    19. B(O  18,C  15)                1.3376 -0.023367  0.0180    1.3556   
    20. B(H  19,N  17)                1.0148 -0.003126  0.0038    1.0186   
    21. B(O  20,C  15)                1.2023 -0.030602  0.0144    1.2167   
    22. B(H  21,C  12)                1.0967 -0.003495  0.0051    1.1019   
    23. B(H  22,N  17)                1.0163 -0.003088  0.0038    1.0201   
    24. A(C   1,C   0,C  10)          119.68  0.000442   -0.05    119.63   
    25. A(C   1,C   0,H   9)          120.19 -0.000138    0.01    120.20   
    26. A(H   9,C   0,C  10)          120.13 -0.000304    0.04    120.17   
    27. A(C   0,C   1,C   5)          120.15  0.000256   -0.03    120.12   
    28. A(C   0,C   1,H   7)          120.04 -0.000176    0.02    120.06   
    29. A(C   5,C   1,H   7)          119.81 -0.000080    0.01    119.82   
    30. A(C   8,C   2,C  10)          120.67 -0.000609    0.08    120.74   
    31. A(H   4,C   2,C   8)          119.54  0.001271   -0.19    119.35   
    32. A(H   4,C   2,C  10)          119.79 -0.000663    0.11    119.91   
    33. A(C   1,C   5,C   8)          120.60 -0.000941    0.12    120.72   
    34. A(C   8,C   5,H  11)          119.39  0.001292   -0.19    119.20   
    35. A(C   1,C   5,H  11)          120.01 -0.000351    0.07    120.08   
    36. A(C  12,C   6,H  14)          108.41  0.001845   -0.09    108.32   
    37. A(H  13,C   6,H  14)          109.32 -0.000011   -0.54    108.79   
    38. A(C   8,C   6,H  14)          110.28  0.001499    0.09    110.37   
    39. A(C  12,C   6,H  13)          107.21  0.003342   -0.69    106.52   
    40. A(C   8,C   6,H  13)          110.32  0.002524   -0.47    109.85   
    41. A(C   8,C   6,C  12)          111.21 -0.009082    1.65    112.87   
    42. A(C   5,C   8,C   6)          120.60  0.000583   -0.08    120.52   
    43. A(C   2,C   8,C   6)          120.57 -0.001572    0.22    120.79   
    44. A(C   2,C   8,C   5)          118.80  0.000980   -0.14    118.66   
    45. A(C   0,C  10,H   3)          120.04  0.000047   -0.01    120.03   
    46. A(C   0,C  10,C   2)          120.11 -0.000127    0.02    120.13   
    47. A(C   2,C  10,H   3)          119.85  0.000079   -0.01    119.84   
[...]
      dx2y2   :     0.002854
      dxy     :     0.009461

 18 O s       :     3.844733  s :     3.844733
      pz      :     1.297795  p :     4.599607
      px      :     1.744597
      py      :     1.557215
      dz2     :     0.004075  d :     0.022950
      dxz     :     0.003505
      dyz     :     0.008212
      dx2y2   :     0.004579
      dxy     :     0.002579

 19 H s       :     0.730351  s :     0.730351
      pz      :     0.005494  p :     0.023587
      px      :     0.010656
      py      :     0.007437

 20 O s       :     3.871015  s :     3.871015
      pz      :     1.724058  p :     4.519052
      px      :     1.416168
      py      :     1.378826
      dz2     :     0.003123  d :     0.027543
      dxz     :     0.001210
      dyz     :     0.006801
      dx2y2   :     0.007650
      dxy     :     0.008760

 21 H s       :     0.855142  s :     0.855142
      pz      :     0.002528  p :     0.010909
      px      :     0.003666
      py      :     0.004715

 22 H s       :     0.726179  s :     0.726179
      pz      :     0.006868  p :     0.023875
      px      :     0.007368
      py      :     0.009639



                     *******************************
                     * LOEWDIN POPULATION ANALYSIS *
                     *******************************

----------------------
LOEWDIN ATOMIC CHARGES
----------------------
   0 C :   -0.074924
   1 C :   -0.072221
   2 C :   -0.079137
   3 H :    0.074557
   4 H :    0.073066
   5 C :   -0.081343
   6 C :   -0.113632
   7 H :    0.075132
   8 C :   -0.021686
   9 H :    0.074527
  10 C :   -0.070392
  11 H :    0.077933
  12 C :   -0.045103
  13 H :    0.084287
  14 H :    0.082922
  15 C :    0.124801
  16 H :    0.182779
  17 N :   -0.253245
  18 O :   -0.165126
  19 H :    0.130484
  20 O :   -0.221706
  21 H :    0.087464
  22 H :    0.130562

-------------------------------
LOEWDIN REDUCED ORBITAL CHARGES
-------------------------------
  0 C s       :     2.908695  s :     2.908695
      pz      :     1.056356  p :     3.085128
      px      :     1.009911
      py      :     1.018861
      dz2     :     0.025657  d :     0.081101
      dxz     :     0.019265
      dyz     :     0.021825
      dx2y2   :     0.004662
      dxy     :     0.009691

  1 C s       :     2.908899  s :     2.908899
      pz      :     1.050429  p :     3.081753
      px      :     1.009563
      py      :     1.021762
      dz2     :     0.023172  d :     0.081569
      dxz     :     0.014026
      dyz     :     0.017132
      dx2y2   :     0.013092
      dxy     :     0.014146

  2 C s       :     2.908333  s :     2.908333
      pz      :     1.050440  p :     3.089666
      px      :     1.016584
      py      :     1.022642
      dz2     :     0.022959  d :     0.081138
      dxz     :     0.014090
      dyz     :     0.017177
      dx2y2   :     0.012572
      dxy     :     0.014340

  3 H s       :     0.885844  s :     0.885844
      pz      :     0.013923  p :     0.039598
      px      :     0.011866
      py      :     0.013810

  4 H s       :     0.886420  s :     0.886420
      pz      :     0.025927  p :     0.040514
      px      :     0.007668
      py      :     0.006919

  5 C s       :     2.909814  s :     2.909814
      pz      :     1.049149  p :     3.090501
      px      :     1.014873
      py      :     1.026478
      dz2     :     0.022178  d :     0.081028
      dxz     :     0.019108
      dyz     :     0.022100
      dx2y2   :     0.007283
      dxy     :     0.010359

  6 C s       :     2.904573  s :     2.904573
      pz      :     1.079124  p :     3.130264
      px      :     1.002797
      py      :     1.048343
      dz2     :     0.014330  d :     0.078795
      dxz     :     0.009994
      dyz     :     0.017732
      dx2y2   :     0.018153
      dxy     :     0.018586

  7 H s       :     0.885209  s :     0.885209
      pz      :     0.025496  p :     0.039659
      px      :     0.007295
      py      :     0.006867

  8 C s       :     2.886328  s :     2.886328
      pz      :     1.058970  p :     3.036753
      px      :     0.982438
      py      :     0.995344
      dz2     :     0.028382  d :     0.098605
      dxz     :     0.022092
      dyz     :     0.025236
      dx2y2   :     0.010240
      dxy     :     0.012655

  9 H s       :     0.885769  s :     0.885769
      pz      :     0.008405  p :     0.039705
      px      :     0.014884
      py      :     0.016416

 10 C s       :     2.908538  s :     2.908538
      pz      :     1.054919  p :     3.080246
      px      :     1.008008
      py      :     1.017319
      dz2     :     0.022173  d :     0.081608
      dxz     :     0.019343
      dyz     :     0.022418
      dx2y2   :     0.007441
      dxy     :     0.010233

 11 H s       :     0.881451  s :     0.881451
      pz      :     0.013907  p :     0.040616
      px      :     0.012454
      py      :     0.014256

 12 C s       :     2.894138  s :     2.894138
      pz      :     0.963396  p :     3.025248
      px      :     1.030144
      py      :     1.031708
      dz2     :     0.028908  d :     0.125717
      dxz     :     0.021281
      dyz     :     0.040756
      dx2y2   :     0.015847
      dxy     :     0.018924

 13 H s       :     0.876495  s :     0.876495
      pz      :     0.014001  p :     0.039218
      px      :     0.006702
      py      :     0.018515

 14 H s       :     0.877601  s :     0.877601
      pz      :     0.022599  p :     0.039478
      px      :     0.008242
      py      :     0.008637

 15 C s       :     2.877000  s :     2.877000
      pz      :     0.898417  p :     2.721196
      px      :     0.800702
      py      :     1.022077
      dz2     :     0.062117  d :     0.277003
      dxz     :     0.037325
      dyz     :     0.095405
      dx2y2   :     0.043595
      dxy     :     0.038560

 16 H s       :     0.703051  s :     0.703051
      pz      :     0.033680  p :     0.114170
      px      :     0.025556
      py      :     0.054934

 17 N s       :     3.217245  s :     3.217245
      pz      :     1.328868  p :     3.978615
      px      :     1.165555
      py      :     1.484191
      dz2     :     0.018143  d :     0.057385
      dxz     :     0.010697
      dyz     :     0.007458
      dx2y2   :     0.005564
      dxy     :     0.015524

 18 O s       :     3.498691  s :     3.498691
      pz      :     1.332213  p :     4.618252
      px      :     1.722522
      py      :     1.563518
      dz2     :     0.013053  d :     0.048183
      dxz     :     0.008208
      dyz     :     0.017758
      dx2y2   :     0.006464
      dxy     :     0.002700

 19 H s       :     0.792028  s :     0.792028
      pz      :     0.015833  p :     0.077488
      px      :     0.038460
      py      :     0.023194

 20 O s       :     3.567666  s :     3.567666
      pz      :     1.712577  p :     4.598086
      px      :     1.412674
      py      :     1.472835
      dz2     :     0.007624  d :     0.055953
      dxz     :     0.002291
      dyz     :     0.013317
      dx2y2   :     0.017219
      dxy     :     0.015503

 21 H s       :     0.873747  s :     0.873747
      pz      :     0.008160  p :     0.038789
      px      :     0.013102
      py      :     0.017526

 22 H s       :     0.790409  s :     0.790409
      pz      :     0.020862  p :     0.079029
      px      :     0.022945
      py      :     0.035222



                      *****************************
                      * MAYER POPULATION ANALYSIS *
                      *****************************

  NA   - Mulliken gross atomic population
  ZA   - Total nuclear charge
  QA   - Mulliken gross atomic charge
  VA   - Mayer's total valence
  BVA  - Mayer's bonded valence
  FA   - Mayer's free valence

  ATOM       NA         ZA         QA         VA         BVA        FA
  0 C      6.0906     6.0000    -0.0906     3.9376     3.9376    -0.0000
  1 C      6.0926     6.0000    -0.0926     3.9279     3.9279    -0.0000
  2 C      6.1181     6.0000    -0.1181     3.9280     3.9280    -0.0000
  3 H      0.9079     1.0000     0.0921     0.9575     0.9575    -0.0000
  4 H      0.9096     1.0000     0.0904     0.9685     0.9685    -0.0000
  5 C      6.1309     6.0000    -0.1309     3.9256     3.9256    -0.0000
  6 C      6.2436     6.0000    -0.2436     3.8712     3.8712    -0.0000
  7 H      0.9062     1.0000     0.0938     0.9573     0.9573    -0.0000
  8 C      5.9207     6.0000     0.0793     3.9729     3.9729     0.0000
  9 H      0.9077     1.0000     0.0923     0.9575     0.9575    -0.0000
 10 C      6.0918     6.0000    -0.0918     3.9312     3.9312    -0.0000
 11 H      0.8965     1.0000     0.1035     0.9623     0.9623     0.0000
 12 C      6.0510     6.0000    -0.0510     3.8719     3.8719     0.0000
 13 H      0.8733     1.0000     0.1267     0.9540     0.9540    -0.0000
 14 H      0.8733     1.0000     0.1267     0.9544     0.9544    -0.0000
 15 C      5.4961     6.0000     0.5039     3.9175     3.9175    -0.0000
 16 H      0.6806     1.0000     0.3194     0.9174     0.9174     0.0000
 17 N      7.5549     7.0000    -0.5549     2.8997     2.8997    -0.0000
 18 O      8.4673     8.0000    -0.4673     2.0166     2.0166    -0.0000
 19 H      0.7539     1.0000     0.2461     0.9239     0.9239    -0.0000
 20 O      8.4176     8.0000    -0.4176     2.1151     2.1151    -0.0000
 21 H      0.8661     1.0000     0.1339     0.9451     0.9451    -0.0000
 22 H      0.7501     1.0000     0.2499     0.9305     0.9305    -0.0000

  Mayer bond orders larger than 0.100000
B(  0-C ,  1-C ) :   1.4400 B(  0-C ,  9-H ) :   0.9393 B(  0-C , 10-C ) :   1.4377 
B(  1-C ,  5-C ) :   1.4232 B(  1-C ,  7-H ) :   0.9381 B(  2-C ,  4-H ) :   0.9294 
B(  2-C ,  8-C ) :   1.4209 B(  2-C , 10-C ) :   1.4287 B(  3-H , 10-C ) :   0.9381 
B(  5-C ,  8-C ) :   1.4165 B(  5-C , 11-H ) :   0.9305 B(  6-C ,  8-C ) :   0.9988 
B(  6-C , 12-C ) :   0.9549 B(  6-C , 13-H ) :   0.9339 B(  6-C , 14-H ) :   0.9343 
B( 12-C , 15-C ) :   0.8957 B( 12-C , 17-N ) :   1.0614 B( 12-C , 21-H ) :   0.9190 
B( 15-C , 18-O ) :   1.0453 B( 15-C , 20-O ) :   1.9204 B( 16-H , 18-O ) :   0.8515 
B( 17-N , 19-H ) :   0.9031 B( 17-N , 22-H ) :   0.8863 

-------
TIMINGS
-------

Total SCF time: 0 days 0 hours 0 min 4 sec 

Total time                  ....       4.525 sec
Sum of individual times     ....       3.903 sec  ( 86.3%)

SCF preparation             ....       0.033 sec  (  0.7%)
Fock matrix formation       ....       3.813 sec  ( 84.3%)
  Startup                   ....       0.001 sec  (  0.0% of F)
  Split-RI-J                ....       1.645 sec  ( 43.1% of F)
  XC integration            ....       2.713 sec  ( 71.1% of F)
    Basis function eval.    ....       0.997 sec  ( 36.8% of XC)
    Density eval.           ....       0.644 sec  ( 23.7% of XC)
    XC-Functional eval.     ....       0.452 sec  ( 16.7% of XC)
    XC-Potential eval.      ....       0.554 sec  ( 20.4% of XC)
Diagonalization             ....       0.000 sec  (  0.0%)
Density matrix formation    ....       0.003 sec  (  0.1%)
Total Energy calculation    ....       0.001 sec  (  0.0%)
Population analysis         ....       0.018 sec  (  0.4%)
Orbital Transformation      ....       0.010 sec  (  0.2%)
Orbital Orthonormalization  ....       0.000 sec  (  0.0%)
DIIS solution               ....       0.005 sec  (  0.1%)
SOSCF solution              ....       0.020 sec  (  0.4%)
Finished LeanSCF after   4.5 sec

Maximum memory used throughout the entire LEANSCF-calculation: 26.2 MB



-------------------------------------------------------------------------------
                          DFT DISPERSION CORRECTION                            
-------------------------------------------------------------------------------
Active option DFTDOPT                   ...         2   
Final C6-coefficient scaling factor     ...     1.250
Final VDW-radii scaling factor          ...     1.100
Damping factor alpha                    ...    20.000
-------------------------   ----------------
Dispersion correction           -0.033696812
-------------------------   ----------------


-------------------------   --------------------
FINAL SINGLE POINT ENERGY      -554.423659735784
-------------------------   --------------------

                                *** OPTIMIZATION RUN DONE ***


------------------------------------------------------------------------------
                              ORCA PROPERTY CALCULATIONS
------------------------------------------------------------------------------

GBWName                                 ... 0.gbw
Number of atoms                         ...     23
Number of basis functions               ...    223
Max core memory                         ...   4096 MB

Electric properties:
Dipole moment                           ... YES
Quadrupole moment                       ...  NO
Static polarizability (Dipole/Dipole)   ...  NO
Static polarizability (Dipole/Quad.)    ...  NO
Static polarizability (Quad./Quad.)     ...  NO
Static polarizability (Velocity)        ...  NO
Static hyperpolarizability              ...  NO

Atomic electric properties:
Dipole moment                           ...  NO
Quadrupole moment                       ...  NO
Static polarizability                   ...  NO

Choice of electric origin               ... Center of mass
Position of electric origin             ...    -6.455329     2.729422     0.633611

General magnetic properties:
Magnetizability                         ...  NO

EPR properties:
g-Tensor (aka g-matrix)                 ...  NO
Zero-Field splitting spin-orbit         ...  NO
Zero-field splitting spin-spin          ...  NO
Hyperfine couplings                     ...  NO (   0 nuclei)
Quadrupole couplings                    ...  NO (   0 nuclei)
Contact density                         ...  NO (   0 nuclei)

NMR properties:
Chemical shifts                         ...  NO (   0 nuclei)
Spin-rotation constants                 ...  NO (   0 nuclei)
Spin-spin couplings                     ...  NO (   0 nuclei,    0 pairs)

Choice of magnetic origin               ... GIAO
Position of magnetic origin             ...     0.000000     0.000000     0.000000

Properties with geometric perturbations:
SCF Hessian                             ...  NO
IR spectrum                             ...  NO
VCD spectrum                            ...  NO
X-ray spectroscopy properties:
SCF XES/XAS/RIXS spectra                ...  NO

SCF SOC stabilization energy            ...  NO
Diagonal Born-Oppenheimer correction    ...  NO

-------------
DIPOLE MOMENT
-------------

Method             : SCF
Type of density    : Electron Density
Multiplicity       :   1
Irrep              :   0
Energy             :  -554.3899629238062516 Eh
Basis              : AO
                                X                 Y                 Z
Electronic contribution:      1.397506161      -2.205180375       3.134808415
Nuclear contribution   :     -1.592168427       2.252274983      -2.685869135
                        -----------------------------------------
Total Dipole Moment    :     -0.194662266       0.047094608       0.448939280
                        -----------------------------------------
Magnitude (a.u.)       :      0.491586999
Magnitude (Debye)      :      1.249514850



--------------------
Rotational spectrum 
--------------------
 
Rotational constants in cm-1:             0.052129             0.022250             0.019399 
Rotational constants in MHz :          1562.774336           667.031838           581.582223 

Dipole components along the rotational axes: 
x,y,z [a.u.] :    -0.075779     0.399413    -0.276377 
x,y,z [Debye]:    -0.192614     1.015228    -0.702495 

 

Dipole moment calculation done in   0.0 sec 

Maximum memory used throughout the entire PROP-calculation: 15.1 MB

--------------------------------
SUGGESTED CITATIONS FOR THIS RUN
--------------------------------

Below you find a list of papers that are relevant to this ORCA run
We neither can nor want to force you to cite these papers, but we appreciate if you do
You receive ORCA, which is the product of decades of hard work by many enthusiastic individuals, for free
The only thing we kindly ask in return is that you cite our papers,
We deeply appreciate it, if you show your appreciation for ORCA by not just citing the generic ORCA reference.

Please note that relegating all ORCA citations to the supporting information does *not* help us.
SI sections are not indexed - citations you put there will not count into any citation statistics
But we need these citations in order to attract the funding resources that allow us to do what we are doing

Therefore, if you are a happy ORCA user, please consider citing a few of the papers listed below in the main body of your paper

In addition to the list printed below, the program has created the file 0.bibtex that contains the list in bibtex format
You can import this file easily into all common literature databanks and citation aid programs


List of essential papers. We consider these as the minimum necessary citations

  1. Neese, F.
     Software update: the ORCA program system, version 6.0
     WIRES Comput. Molec. Sci. 2025 15(1), e70019
     doi.org/10.1002/wcms.7019

List of papers to cite with high priority. The work reported in these papers was absolutely
necessary for this run to complete.
Our perspective: the developers of density functionals and basis sets usually get cited in chemistry papers
Good! But without the algorithms to do something with them, the functionals or basis sets would not do anything.
Hence, in our opinion, the algorithm design and method developments papers are equally worthy of getting cited

  1. Neese, F.
     An improvement of the resolution of the identity approximation for the formation of the Coulomb matrix
     J. Comp. Chem. 2003 24(14), 1740-1747
     doi.org/10.1002/jcc.10318
  2. Grimme, S.
     Semiempirical GGA-type density functional constructed with a long-range dispersion correction
     J.Comput.Chem. 2006 27(15), 1787-1799
     doi.org/10.1002/jcc.20495
  3. Neese, F.
     The SHARK Integral Generation and Digestion System
     J. Comp. Chem. 2022 44(3), 381
     doi.org/10.1002/jcc.26942

List of suggested additional citations. These are papers that are important in the 'surrounding' of 
of this run, or papers that preceded the highly important papers. If you like your results we are grateful for a citation.

  1. Neese, F.
     The ORCA program system
     WIRES Comput. Molec. Sci. 2012 2(1), 73-78
     doi.org/10.1002/wcms.81
  2. Neese, F.
     Software update: the ORCA program system, version 4.0
     WIRES Comput. Molec. Sci. 2018 8(1), 1-6
     doi.org/10.1002/wcms.1327
  3. Neese, F.; Wennmohs, F.; Becker, U.; Riplinger, C.
     The ORCA quantum chemistry program package
     J. Chem. Phys. 2020 152(22), 224108
     doi.org/10.1063/5.0004608
  4. Neese, F.
     Software update: The ORCA program system—Version 5.0
     WIRES Comput. Molec. Sci. 2022 12(1), e1606
     doi.org/10.1002/wcms.1606

List of optional additional citations

  1. Neese, F.
     Approximate second-order SCF convergence for spin unrestricted wavefunctions
     Chem. Phys. Lett. 2000 325(1-3), 93-98
     doi.org/10.1016/s0009-2614(00)00662-x

Timings for individual modules:

Sum of individual times          ...      129.664 sec (=   2.161 min)
Startup calculation              ...        6.629 sec (=   0.110 min)   5.1 %
SCF iterations                   ...       76.035 sec (=   1.267 min)  58.6 %
Property calculations            ...        0.044 sec (=   0.001 min)   0.0 %
SCF Gradient evaluation          ...       46.934 sec (=   0.782 min)  36.2 %
Geometry relaxation              ...        0.021 sec (=   0.000 min)   0.0 %
                             ****ORCA TERMINATED NORMALLY****
TOTAL RUN TIME: 0 days 0 hours 2 minutes 9 seconds 952 msec
