
                                 *****************
                                 * O   R   C   A *
                                 *****************

                                            #,                                       
                                            ###                                      
                                            ####                                     
                                            #####                                    
                                            ######                                   
                                           ########,                                 
                                     ,,################,,,,,                         
                               ,,#################################,,                 
                          ,,##########################################,,             
                       ,#########################################, ''#####,          
                    ,#############################################,,   '####,        
                  ,##################################################,,,,####,       
                ,###########''''           ''''###############################       
              ,#####''   ,,,,##########,,,,          '''####'''          '####       
            ,##' ,,,,###########################,,,                        '##       
           ' ,,###''''                  '''############,,,                           
         ,,##''                                '''############,,,,        ,,,,,,###''
      ,#''                                            '''#######################'''  
     '                                                          ''''####''''         
             ,#######,   #######,   ,#######,      ##                                
            ,#'     '#,  ##    ##  ,#'     '#,    #''#        ,####,    ,#,          
            ##       ##  ##   ,#'  ##            #'  '#       #'       ,# #          
            ##       ##  #######   ##           ,######,      #####,      #          
            '#,     ,#'  ##    ##  '#,     ,#' ,#      #,     #,   #      #          
             '#######'   ##     ##  '#######'  #'      '#     '####' #    #          



                #########################################################
                #                        -***-                          #
                #          Department of theory and spectroscopy        #
                #                                                       #
                #                      Frank Neese                      #
                #                                                       #
                #     Directorship, Architecture, Infrastructure        #
                #                    SHARK, DRIVERS                     #
                #        Core code/Algorithms in most modules           #
                #                                                       #
                #        Max Planck Institute fuer Kohlenforschung      #
                #                Kaiser Wilhelm Platz 1                 #
                #                 D-45470 Muelheim/Ruhr                 #
                #                      Germany                          #
                #                                                       #
                #                  All rights reserved                  #
                #                        -***-                          #
                #########################################################


                         Program Version 6.1.0  -  RELEASE   -
                                (GIT: $679e74b$)
                          ($2025-06-10 18:02:51 +0200$)


 With contributions from (in alphabetic order):
[Max-Planck-Institut fuer Kohlenforschung]                               
  Daniel Aravena         : Magnetic Suceptibility                        
  Michael Atanasov       : Ab Initio Ligand Field Theory (pilot matlab implementation)
  Alexander A. Auer      : GIAO ZORA, VPT2 properties, NMR spectrum      
  Ute Becker             : All parallelization in ORCA, NUMFREQ, NUMCALC 
  Giovanni Bistoni       : ED, misc. LED, open-shell LED, HFLD           
  Dmytro Bykov           : pre 5.0 version of the SCF Hessian            
  Marcos Casanova-Páez   : Triplet and SCS-CIS(D). UHF-(DLPNO)-IP/EA/STEOM-CCSD. UHF-CVS-IP/STEOM-CCSD   
  Vijay G. Chilkuri      : MRCI spin determinant printing, contributions to CSF-ICE 
  Pauline Colinet        : FMM embedding                                 
  Dipayan Datta          : RHF DLPNO-CCSD density                        
  Achintya Kumar Dutta   : EOM-CC, STEOM-CC                              
  Nicolas Foglia         : Exact transition moments, OPA infrastructure, MCD improvements    
  Dmitry Ganyushin       : Spin-Orbit,Spin-Spin,Magnetic field MRCI      
  Miquel Garcia-Rates    : C-PCM and meta-GGA Hessian, CCSD/C-PCM, Gaussian charge scheme 
  Tiago L. C. Gouveia    : GS-ROHF, GS-ROCIS                             
  Yang Guo               : DLPNO-NEVPT2, F12-NEVPT2, CIM, IAO-localization        
  Andreas Hansen         : Spin unrestricted coupled pair/coupled cluster methods 
  Ingolf Harden          : AUTO-CI MPn and infrastructure                
  Benjamin Helmich-Paris : MC-RPA, TRAH-(SCF,CASSCF), AVAS, COSX integrals, SCF dyn. polar., MC-PDFT, srDFT 
  Lee Huntington         : MR-EOM, pCC                                   
  Robert Izsak           : Overlap fitted RIJCOSX, COSX-SCS-MP3, EOM     
  Riya Kayal             : Wick's Theorem for AUTO-CI, AUTO-CI UHF-CCSDT 
  Emily Kempfer          : AUTO-CI RHF CISDT and CCSDT, approximate NEVPT4
  Christian Kollmar      : KDIIS, OOCD, Brueckner-CCSD(T), CCSD density, CASPT2, CASPT2-K, improved NEVPT2 
  Axel Koslowski         : Symmetry handling                             
  Simone Kossmann        : meta-GGA functionals, TD-DFT gradient, OOMP2, (MP2 Hessian; deprecated post 5.0) 
  Lucas Lang             : DCDCAS, Hyperfine gauge corrections, ICE-SOC+SSC
  Marvin Lechner         : AUTO-CI (C++ implementation), FIC-MRCC        
  Spencer Leger          : CASSCF response                               
  Dagmar Lenk            : GEPOL surface, SMD, ORCA-2-JSON               
  Dimitrios Liakos       : Extrapolation schemes; Compound Job, Property file
  Dimitrios Manganas     : Further ROCIS development; embedding schemes. LFT, Crystal Embedding 
  Dimitrios Pantazis     : SARC Basis sets                               
  Anastasios Papadopoulos: AUTO-CI, single reference methods and gradients 
  Taras Petrenko         : pre 6.0 DFT Hessian and TD-DFT gradient,  ECA, NRVS 
  Petra Pikulova         : Analytic Raman intensities                    
  Peter Pinski           : DLPNO-MP2, DLPNO-MP2 Gradient                 
  Shashank Vittal Rao    : ES-AILFT, MagRelax                            
  Christoph Reimann      : Effective Core Potentials                     
  Marius Retegan         : Local ZFS, SOC                                
  Christoph Riplinger    : Optimizer, TS searches, QM/MM, DLPNO-CCSD(T), (RO)-DLPNO pert. Triples 
  Michael Roemelt        : Original ROCIS implementation, recursive CI coupling coefficients
  Masaaki Saitow         : Open-shell DLPNO-CCSD energy and density      
  Barbara Sandhoefer     : DKH picture change effects                    
  Yorick L. A. Schmerwitz: GMF and freeze-and-release deltaSCF, NEB S-IDPP initial path                    
  Kantharuban Sivalingam : CASSCF convergence/infrastructure, NEVPT2, NEVPT3, NEVPT4(SD), FIC-MRCI and CEPA variants
  Bernardo de Souza      : ESD, SOC TD-DFT                               
  Georgi L. Stoychev     : AutoAux, RI-MP2 NMR, DLPNO-MP2 response, X2C  
  Van Anh Tran           : RI-MP2 g-tensors                              
  Willem Van den Heuvel  : Paramagnetic NMR                              
  Zikuan Wang            : NOTCH, Electric field optimization            
  Frank Wennmohs         : Technical directorship and infrastructure     
  Hang Xu                : AUTO-CI-Response properties                   
                                                                         
[FACCTs GmbH]                                                            
  Markus Bursch, Nicolas Foglia, Miquel Garcia-Rates, Ingolf Harden, Hagen Neugebauer, Anastasios Papadopoulos, 
  Christoph Riplinger, Bernardo de Souza, Georgi L. Stoychev                                                    
                                                                 
  APM, various basis sets, CI-OPT, improved COSX, DLPNO-Multilevel,           
  DOCKER, DRACO, updates on ESD, Fragmentator, GOAT, IRC, LR-CPCM, L-BFGS, MBIS, meta-GGA TD-DFT gradient, ML-optimized integration grids, 
  MM, NACMEs, nearIR, NEB, NEB-TS, NL-DFT gradient (VV10), 2- and 3-layer-ONIOM, interface openCOSMO-RS, QMMM,   
  Crystal-QMMM, RESP, rigid body optimization, SF, symmetry and pop. for TD-DFT, various functionals, SOLVATOR                                   
                                                                         
[Other institutions]                                                     
  V. Asgeirsson          : NEB                                           
  Christoph Bannwarth    : sTDA-DFT, sTD-DFT, PBEh-3c, B97-3c, D3        
  Giovanni Bistoni       : ETS/NOCV, ADLD/ADEX, COVALED                  
  Martin Brehm           : Molecular dynamics                            
  Ronald Cardenas        : ETS/NOCV                                      
  Martina Colucci        : COVALED                                       
  Sebastian Ehlert       : rSCAN, r2SCAN, r2SCAN-3c, D4, dhf basis sets  
  Marvin Friede          : D4 for Fr, Ra, Ac-Lr                          
  Lars Goerigk           : TD-DFT with DH, B97 family of functionals     
  Stefan Grimme          : VdW corrections, initial TS optimization, DFT functionals, gCP, sTDA/sTD-DF 
  Waldemar Hujo          : DFT-NL                                        
  H. Jonsson             : NEB                                           
  Holger Kruse           : gCP                                           
  Marcel Mueller         : wB97X-3c, vDZP basis set                      
  Hagen Neugebauer       : wr2SCAN, Native XTB                           
  Gianluca Regni         : ADLD/ADEX                                     
  Tobias Risthaus        : pre 6.0 range-separated hybrid DFT and stability analysis
  Lukas Wittmann         : regularized MP2, r2SCAN double-hybrids, wr2SCAN        
                                                                         
We gratefully acknowledge several colleagues who have allowed us to      
interface, adapt or use parts of their codes:                            
  Ed Valeev, F. Pavosevic, A. Kumar             : LibInt (2-el integral package), F12 methods 
  Garnet Chan, S. Sharma, J. Yang, R. Olivares  : DMRG                   
  Ulf Ekstrom                                   : XCFun DFT Library      
  Mihaly Kallay                                 : mrcc  (arbitrary order and MRCC methods)
  Frank Weinhold                                : gennbo (NPA and NBO analysis)           
  Simon Mueller                                 : openCOSMO-RS                            
  Christopher J. Cramer and Donald G. Truhlar   : smd solvation model                     
  S Lehtola, MJT Oliveira, MAL Marques          : LibXC Library                           
  Liviu Ungur et al                             : ANISO software                          


 Your calculation uses the libint2 library for the computation of 2-el integrals
 For citations please refer to: http://libint.valeyev.net

 Your ORCA version has been built with support for libXC version: 7.0.0
 For citations please refer to: https://libxc.gitlab.io

 This ORCA versions uses:
   CBLAS   interface :  Fast vector & matrix operations
   LAPACKE interface :  Fast linear algebra routines
   SCALAPACK package :  Parallel linear algebra routines
   Shared memory     :  Shared parallel matrices
   BLAS/LAPACK       :  OpenBLAS 0.3.29  USE64BITINT DYNAMIC_ARCH NO_AFFINITY Haswell SINGLE_THREADED
        Core in use  :  Haswell
   Copyright (c) 2011-2014, The OpenBLAS Project


  ***********************************
  * Starting time: Wed Aug 13 23:48:01 2025
  * Host name:     CHEMLAB02
  * Process ID:    1540944
  * Working dir.:  /home/vivek/mm-project/vivek/B97-D/l/0
  ***********************************



***************************************
The coordinates will be read from file: /home/vivek/mm-project/vivek/xtb-goat/l/L_CONF/0.xyz
***************************************


Your calculation utilizes empirical dispersion correction


Warning: RI is on but no J-basis has been assigned. Assigning Def2/J (nothing to worry about!)
================================================================================

----- Orbital basis set information -----
Your calculation utilizes the basis: 6-31G**
   H-He, Li-Ne : W. J. Hehre, R. Ditchfield and J.A. Pople, J. Chem. Phys. 56, 2257 (1972).
                 Note: He and Ne are unpublished basis sets taken from the Gaussian program.
                 Note: Li and B from J. D. Dill and J. A. Pople, J. Chem. Phys. 62, 2921 (1975).
   Na - Ar     : M. M. Francl, W. J. Pietro, W. J. Hehre, J. S. Binkley, M. S. Gordon, 
                 D. J. DeFrees and J. A. Pople, J. Chem. Phys. 77, 3654 (1982).
   K - Zn      : V. A. Rassolov, J. A. Pople, M. A. Ratner, and T. L. Windus, J. Chem. Phys. 109, 1223 (1998).

----- AuxJ basis set information -----
Your calculation utilizes the auxiliary basis: def2/J
   H-Rn: F. Weigend, Phys. Chem. Chem. Phys. 8, 1057 (2006).
   Fr-Lr: K. Eichkorn, F. Weigend, O. Treutler, R. Ahlrichs; Theor. Chem. Acc. 97, 119 (1997).

================================================================================
                                        WARNINGS
                       Please study these warnings very carefully!
================================================================================


INFO   : The exchange functional is Grimme's B97(-D)
         As described in S. Grimme, J. Comput. Chem. 27, 1787 (2006).
         Note that this functional defaults to a pure GGA. 

INFO   : The correlation functional is Grimme's B97(-D)
         As described in S. Grimme, J. Comput. Chem. 27, 1787 (2006).

================================================================================
                                       INPUT FILE
================================================================================
NAME = 0.inp
|  1> ! B97-D 6-31G** 
|  2> 
|  3> * xyzfile 0 1 /home/vivek/mm-project/vivek/xtb-goat/l/L_CONF/0.xyz
|  4> 
|  5>                          ****END OF INPUT****
================================================================================

                       ****************************
                       * Single Point Calculation *
                       ****************************

---------------------------------
CARTESIAN COORDINATES (ANGSTROEM)
---------------------------------
  C     -9.345886    6.327348   -1.635352
  C     -9.015832    7.061830   -0.342720
  H     -8.631837    7.735151   -2.922553
  H     -7.530798    6.612077   -2.488805
  C     -9.177789    4.819640   -1.381305
  O     -9.952039    6.897634    0.598847
  H    -11.270282    3.318299   -3.708250
  N     -8.506277    6.745191   -2.739510
  C     -9.533715    3.970427   -2.606171
  H     -8.133893    4.637865   -1.113323
  H     -9.803933    4.531852   -0.535027
  C     -9.020266    2.545549   -2.409301
  H     -7.941551    2.537755   -2.271456
  C    -11.039015    3.952502   -2.855720
  H     -9.482050    2.093029   -1.533834
  H     -9.257466    1.933263   -3.275969
  H     -9.037222    4.413197   -3.474101
  H    -11.565241    3.562966   -1.986254
  H    -11.412234    4.950043   -3.069228
  H    -10.389864    6.540965   -1.885464
  H     -9.699637    7.362374    1.413038
  O     -8.022769    7.718070   -0.166055

----------------------------
CARTESIAN COORDINATES (A.U.)
----------------------------
  NO LB      ZA    FRAG     MASS         X           Y           Z
   0 C     6.0000    0    12.011  -17.661164   11.956955   -3.090368
   1 C     6.0000    0    12.011  -17.037454   13.344925   -0.647648
   2 H     1.0000    0     1.008  -16.311808   14.617317   -5.522824
   3 H     1.0000    0     1.008  -14.231146   12.495016   -4.703159
   4 C     6.0000    0    12.011  -17.343508    9.107800   -2.610287
   5 O     8.0000    0    15.999  -18.806627   13.034639    1.131658
   6 H     1.0000    0     1.008  -21.297746    6.270676   -7.007576
   7 N     7.0000    0    14.007  -16.074533   12.746563   -5.176924
   8 C     6.0000    0    12.011  -18.016110    7.503021   -4.924950
   9 H     1.0000    0     1.008  -15.370830    8.764295   -2.103875
  10 H     1.0000    0     1.008  -18.526749    8.563959   -1.011055
  11 C     6.0000    0    12.011  -17.045832    4.810390   -4.552919
  12 H     1.0000    0     1.008  -15.007357    4.795662   -4.292430
  13 C     6.0000    0    12.011  -20.860715    7.469146   -5.396529
  14 H     1.0000    0     1.008  -17.918478    3.955251   -2.898527
  15 H     1.0000    0     1.008  -17.494075    3.653337   -6.190684
  16 H     1.0000    0     1.008  -17.077875    8.339733   -6.565100
  17 H     1.0000    0     1.008  -21.855138    6.733030   -3.753475
  18 H     1.0000    0     1.008  -21.565997    9.354226   -5.800000
  19 H     1.0000    0     1.008  -19.633997   12.360633   -3.563011
  20 H     1.0000    0     1.008  -18.329658   13.912871    2.670254
  21 O     8.0000    0    15.999  -15.160836   14.585038   -0.313799

--------------------------------
INTERNAL COORDINATES (ANGSTROEM)
--------------------------------
 C      0   0   0     0.000000000000     0.00000000     0.00000000
 C      1   0   0     1.522923526129     0.00000000     0.00000000
 H      1   2   0     2.036826215306    97.30092621     0.00000000
 H      3   1   2     1.631477535304    65.96995612    90.74779776
 C      1   2   3     1.538174012838   107.99060896   146.07496582
 O      2   1   3     1.337906100972   112.73684718   142.50044258
 H      5   1   2     3.470911400391   104.32207868   154.51789986
 N      3   1   2     1.014540127694    41.83562788   125.62112598
 C      5   1   2     1.532365545062   112.69373336   177.95044048
 H      5   1   2     1.092966172595   107.93223733   298.37091420
 H      5   1   2     1.091358671141   108.89574603    55.73143208
 C      9   5   1     1.527307388746   109.62720650   165.92639277
 H     12   9   5     1.087514186583   110.88437606   300.56335454
 C      7   5   1     1.087430079879    25.03142902   298.36944609
 H     12   9   5     1.088329371545   110.42338842    60.75562827
 H     12   9   5     1.087322735601   110.44257465   180.55148455
 H      9   5   1     1.093550185340   107.73249136    47.30747278
 H     14   7   5     1.088404769915   108.34447957   240.80570780
 H     14   7   5     1.086263004006   107.96368738   123.32626362
 H      1   2   3     1.094567650374   107.85042633   264.28460181
 H      6   2   1     0.970873466453   110.45808078   178.75914334
 O      2   1   3     1.203343519806   124.50482483   322.15155657

---------------------------
INTERNAL COORDINATES (A.U.)
---------------------------
 C      0   0   0     0.000000000000     0.00000000     0.00000000
 C      1   0   0     2.877908387289     0.00000000     0.00000000
 H      1   2   0     3.849043729320    97.30092621     0.00000000
 H      3   1   2     3.083045735369    65.96995612    90.74779776
 C      1   2   3     2.906727630578   107.99060896   146.07496582
 O      2   1   3     2.528276123739   112.73684718   142.50044258
 H      5   1   2     6.559071981843   104.32207868   154.51789986
 N      3   1   2     1.917202993214    41.83562788   125.62112598
 C      5   1   2     2.895751217224   112.69373336   177.95044048
 H      5   1   2     2.065406739844   107.93223733   298.37091420
 H      5   1   2     2.062369002337   108.89574603    55.73143208
 C      9   5   1     2.886192687045   109.62720650   165.92639277
 H     12   9   5     2.055103979397   110.88437606   300.56335454
 C      7   5   1     2.054945040760    25.03142902   298.36944609
 H     12   9   5     2.056644455723   110.42338842    60.75562827
 H     12   9   5     2.054742189473   110.44257465   180.55148455
 H      9   5   1     2.066510363991   107.73249136    47.30747278
 H     14   7   5     2.056786937992   108.34447957   240.80570780
 H     14   7   5     2.052739586982   107.96368738   123.32626362
 H      1   2   3     2.068433094257   107.85042633   264.28460181
 H      6   2   1     1.834684962288   110.45808078   178.75914334
 O      2   1   3     2.273989697462   124.50482483   322.15155657

---------------------
BASIS SET INFORMATION
---------------------
There are 4 groups of distinct atoms

 Group   1 Type C   : 10s4p1d contracted to 3s2p1d pattern {631/31/1}
 Group   2 Type H   : 4s1p contracted to 2s1p pattern {31/1}
 Group   3 Type O   : 10s4p1d contracted to 3s2p1d pattern {631/31/1}
 Group   4 Type N   : 10s4p1d contracted to 3s2p1d pattern {631/31/1}

Atom   0C    basis set group =>   1
Atom   1C    basis set group =>   1
Atom   2H    basis set group =>   2
Atom   3H    basis set group =>   2
Atom   4C    basis set group =>   1
Atom   5O    basis set group =>   3
Atom   6H    basis set group =>   2
Atom   7N    basis set group =>   4
Atom   8C    basis set group =>   1
Atom   9H    basis set group =>   2
Atom  10H    basis set group =>   2
Atom  11C    basis set group =>   1
Atom  12H    basis set group =>   2
Atom  13C    basis set group =>   1
Atom  14H    basis set group =>   2
Atom  15H    basis set group =>   2
Atom  16H    basis set group =>   2
Atom  17H    basis set group =>   2
Atom  18H    basis set group =>   2
Atom  19H    basis set group =>   2
Atom  20H    basis set group =>   2
Atom  21O    basis set group =>   3
---------------------------------
AUXILIARY/J BASIS SET INFORMATION
---------------------------------
There are 4 groups of distinct atoms

 Group   1 Type C   : 12s5p4d2f1g contracted to 6s4p3d1f1g pattern {711111/2111/211/2/1}
 Group   2 Type H   : 5s2p1d contracted to 3s1p1d pattern {311/2/1}
 Group   3 Type O   : 12s5p4d2f1g contracted to 6s4p3d1f1g pattern {711111/2111/211/2/1}
 Group   4 Type N   : 12s5p4d2f1g contracted to 6s4p3d1f1g pattern {711111/2111/211/2/1}

Atom   0C    basis set group =>   1
Atom   1C    basis set group =>   1
Atom   2H    basis set group =>   2
Atom   3H    basis set group =>   2
Atom   4C    basis set group =>   1
Atom   5O    basis set group =>   3
Atom   6H    basis set group =>   2
Atom   7N    basis set group =>   4
Atom   8C    basis set group =>   1
Atom   9H    basis set group =>   2
Atom  10H    basis set group =>   2
Atom  11C    basis set group =>   1
Atom  12H    basis set group =>   2
Atom  13C    basis set group =>   1
Atom  14H    basis set group =>   2
Atom  15H    basis set group =>   2
Atom  16H    basis set group =>   2
Atom  17H    basis set group =>   2
Atom  18H    basis set group =>   2
Atom  19H    basis set group =>   2
Atom  20H    basis set group =>   2
Atom  21O    basis set group =>   3
------------------------------------------------------------------------------
                             ORCA STARTUP CALCULATIONS
                           -- RI-GTO INTEGRALS CHOSEN --
------------------------------------------------------------------------------
------------------------------------------------------------------------------
                   ___                                                        
                  /   \      - P O W E R E D   B Y -                         
                 /     \                                                     
                 |  |  |   _    _      __       _____    __    __             
                 |  |  |  | |  | |    /  \     |  _  \  |  |  /  |          
                  \  \/   | |  | |   /    \    | | | |  |  | /  /          
                 / \  \   | |__| |  /  /\  \   | |_| |  |  |/  /          
                |  |  |   |  __  | /  /__\  \  |    /   |      \           
                |  |  |   | |  | | |   __   |  |    \   |  |\   \          
                \     /   | |  | | |  |  |  |  | |\  \  |  | \   \       
                 \___/    |_|  |_| |__|  |__|  |_| \__\ |__|  \__/        
                                                                              
                      - O R C A' S   B I G   F R I E N D -                    
                                      &                                       
                       - I N T E G R A L  F E E D E R -                       
                                                                              
 v1 FN, 2020, v2 2021, v3 2022-2024                                           
------------------------------------------------------------------------------


----------------------
SHARK INTEGRAL PACKAGE
----------------------

Number of atoms                             ...     22
Number of basis functions                   ...    191
Number of shells                            ...     93
Maximum angular momentum                    ...      2
Integral batch strategy                     ... SHARK/LIBINT Hybrid
RI-J (if used) integral strategy            ... SPLIT-RIJ (Revised 2003 algorithm where possible)
Printlevel                                  ...      1
Contraction scheme used                     ... SEGMENTED contraction
Prescreening option                         ... SCHWARTZ
   Thresh                                   ... 1.000e-10
   Tcut                                     ... 1.000e-11
   Tpresel                                  ... 1.000e-11 
Coulomb Range Separation                    ... NOT USED
Exchange Range Separation                   ... NOT USED
Multipole approximations                    ... NOT USED
Finite Nucleus Model                        ... NOT USED
CABS basis                                  ... NOT available
Auxiliary Coulomb fitting basis             ... AVAILABLE
   # of basis functions in Aux-J            ...    584
   # of shells in Aux-J                     ...    200
   Maximum angular momentum in Aux-J        ...      4
Auxiliary J/K fitting basis                 ... NOT available
Auxiliary Correlation fitting basis         ... NOT available
Auxiliary 'external' fitting basis          ... NOT available

Checking pre-screening integrals            ... done (  0.0 sec) Dimension = 93
   => SHARK Basis and OBASIS are compatible. Storing Pre-screening
Shell pair information
Shell pair cut-off parameter TPreSel        ...   1.0e-11
Total number of shell pairs                 ...      4371
Shell pairs after pre-screening             ...      3845
Total number of primitive shell pairs       ...     20328
Primitive shell pairs kept                  ...     11831
          la=0 lb=0:   1275 shell pairs
          la=1 lb=0:   1443 shell pairs
          la=1 lb=1:    432 shell pairs
          la=2 lb=0:    417 shell pairs
          la=2 lb=1:    238 shell pairs
          la=2 lb=2:     40 shell pairs

Checking whether 4 symmetric matrices of dimension 191 fit in memory
:Max Core in MB      =   4096.00
 MB in use           =      8.51
 MB left             =   4087.49
 MB needed           =      0.56
 Data fit in memory  = YES
Calculating RI/J V-Matrix + Cholesky decomp.... done (  0.0 sec)
Calculating Nuclear repulsion               ... done (  0.0 sec) ENN=    482.466008099650 Eh

Diagonalization of the overlap matrix:
Smallest eigenvalue                        ... 2.700e-03
Time for diagonalization                   ...    0.002 sec
Threshold for overlap eigenvalues          ... 1.000e-07
Number of eigenvalues below threshold      ... 0
Time for construction of square roots      ...    0.001 sec
Total time needed                          ...    0.003 sec

-------------------
DFT GRID GENERATION
-------------------

General Integration Accuracy     IntAcc      ... 4.388
Radial Grid Type                 RadialGrid  ... OptM3 with GC (2021)
Angular Grid (max. ang.)         AngularGrid ... 4 (Lebedev-302)
Angular grid pruning method      GridPruning ... 4 (adaptive)
Weight generation scheme         WeightScheme... mBecke (2022)
Basis function cutoff            BFCut       ... 1.0000e-10
Integration weight cutoff        WCut        ... 1.0000e-14
Partially contracted basis set               ... off
Rotationally invariant grid construction     ... off
Angular grids for H and He will be reduced by one unit

Total number of grid points                  ...    95603
Total number of batches                      ...     1507
Average number of points per batch           ...       63
Average number of grid points per atom       ...     4346
Grids setup in   0.4 sec
Initializing property integral containers    ... done (  0.0 sec)

SHARK setup successfully completed in   0.4 seconds

Maximum memory used throughout the entire STARTUP-calculation: 40.4 MB
-------------------------------------------------------------------------------
                                 ORCA GUESS
                   Start orbitals & Density for SCF / CASSCF
-------------------------------------------------------------------------------

------------
SCF SETTINGS
------------
Hamiltonian:
 Density Functional     Method          .... DFT(GTOs)
 Exchange Functional    Exchange        .... B97(D)
 Correlation Functional Correlation     .... B97(D)
 Gradients option       PostSCFGGA      .... off
 RI-approximation to the Coulomb term is turned on
   Number of AuxJ basis functions       .... 584


General Settings:
 Integral files         IntName         .... 0
 Hartree-Fock type      HFTyp           .... RHF
 Total Charge           Charge          ....    0
 Multiplicity           Mult            ....    1
 Number of Electrons    NEL             ....   72
 Basis Dimension        Dim             ....  191
 Nuclear Repulsion      ENuc            ....    482.4660080996 Eh

Convergence Acceleration:
 AO-DIIS                CNVDIIS         .... on
   Start iteration      DIISMaxIt       ....    12
   Startup error        DIISStart       ....  0.200000
   # of expansion vecs  DIISMaxEq       ....     5
   Bias factor          DIISBfac        ....   1.050
   Max. coefficient     DIISMaxC        ....  10.000
 MO-DIIS                CNVKDIIS        .... off
 Trust-Rad. Augm. Hess. CNVTRAH         .... auto
   Auto Start mean grad. ratio tolernc. ....  1.125000
   Auto Start start iteration           ....    50
   Auto Start num. interpolation iter.  ....    10
   Max. Number of Micro iterations      ....    24
   Max. Number of Macro iterations      .... Maxiter - #DIIS iter
   Number of Davidson start vectors     ....     2
   Converg. threshold    (grad. norm)   ....   5.000e-05
   Grad. Scal. Fac. for Micro threshold ....   0.100
   Minimum threshold for Micro iter.    ....   1.000e-02
   NR start threshold (gradient norm)   ....   1.000e-04
   Initial trust radius                 ....   0.400
   Minimum AH scaling param. (alpha)    ....   1.000
   Maximum AH scaling param. (alpha)    .... 1000.000
   Quad. conv. algorithm                .... NR
   White noise on init. David. guess    .... on
   Maximum white noise                  ....   0.010
   Pseudo random numbers                .... off
   Inactive MOs                         .... canonical
   Orbital update algorithm             .... Taylor
   Preconditioner                       .... Diag
   Full preconditioner red. dimension   ....   250
 SOSCF                 CNVSOSCF           .... on
   Start iteration     SOSCFMaxIt         ....   150
   Startup grad/error  SOSCFStart         ....  0.003300
   Hessian update      SOSCFHessUp        .... L-BFGS
   Autom. constraints  SOSCFAutoConstrain .... off
 Level Shifting         CNVShift        .... on
   Level shift para.    LevelShift      ....    0.2500
   Turn off err/grad.   ShiftErr        ....    0.0010
 Zerner damping         CNVZerner       .... off
 Static damping         CNVDamp         .... on
   Fraction old density DampFac         ....    0.7000
   Max. Damping (<1)    DampMax         ....    0.9800
   Min. Damping (>=0)   DampMin         ....    0.0000
   Turn off err/grad.   DampErr         ....    0.1000

SCF Procedure:
 Maximum # iterations   MaxIter         ....   125
 SCF integral mode      SCFMode         .... Direct
   Integral package                     .... SHARK and LIBINT hybrid scheme
 Reset frequency        DirectResetFreq ....    20
 Integral Threshold     Thresh          ....  1.000e-10 Eh
 Primitive CutOff       TCut            ....  1.000e-11 Eh

Convergence Tolerance:
 Convergence Check Mode ConvCheckMode   .... Total+1el-Energy
 Convergence forced     ConvForced      .... 0
 Energy Change          TolE            ....  1.000e-06 Eh
 1-El. energy change                    ....  1.000e-03 Eh
 Orbital Gradient       TolG            ....  5.000e-05
 Orbital Rotation angle TolX            ....  5.000e-05
 DIIS Error             TolErr          ....  1.000e-06

------------------------------
INITIAL GUESS: MODEL POTENTIAL
------------------------------
Loading Hartree-Fock densities                     ... done
Calculating cut-offs                               ... done
Initializing the effective Hamiltonian             ... done
Setting up the integral package (SHARK)            ... done
Starting the Coulomb interaction                   ... done (   0.1 sec)
Making the grid                                    ... done (   0.1 sec)
Mapping shells                                     ... done
Starting the XC term evaluation                    ... done (   0.1 sec)
  promolecular density results
     # of electrons  =     71.991160157
     EX              =    -56.846645586
     EC              =     -3.116609297
     EX+EC           =    -59.963254883
Transforming the Hamiltonian                       ... done (   0.0 sec)
Diagonalizing the Hamiltonian                      ... done (   0.0 sec)
Back transforming the eigenvectors                 ... done (   0.0 sec)
Now organizing SCF variables                       ... done
                      ------------------
                      INITIAL GUESS DONE (   0.3 sec)
                      ------------------
             **** ENERGY FILE WAS UPDATED (0.en.tmp) ****
Finished Guess after   0.3 sec
Maximum memory used throughout the entire GUESS-calculation: 13.5 MB

-------------------------------------------------------------------------------------------
                                      ORCA LEAN-SCF
                              memory conserving SCF solver
-------------------------------------------------------------------------------------------

----------------------------------------D-I-I-S--------------------------------------------
Iteration    Energy (Eh)           Delta-E    RMSDP     MaxDP     DIISErr   Damp  Time(sec)
-------------------------------------------------------------------------------------------
               ***  Starting incremental Fock matrix formation  ***
    1    -441.0157661890845588     0.00e+00  3.61e-03  1.01e-01  2.56e-01  0.700   0.5
    2    -441.1967684468178845    -1.81e-01  2.37e-03  5.13e-02  9.41e-02  0.700   0.5
                               ***Turning on AO-DIIS***
    3    -441.2529669859339378    -5.62e-02  9.02e-04  1.71e-02  2.93e-02  0.700   0.5
    4    -441.2890423790299224    -3.61e-02  1.17e-03  1.92e-02  1.31e-02  0.000   0.5
    5    -441.3727321249445481    -8.37e-02  4.12e-04  8.51e-03  1.08e-02  0.000   0.5
                              *** Initializing SOSCF ***
---------------------------------------S-O-S-C-F--------------------------------------
Iteration    Energy (Eh)           Delta-E    RMSDP     MaxDP     MaxGrad    Time(sec)
--------------------------------------------------------------------------------------
    6    -441.3736558179011240    -9.24e-04  1.52e-04  3.05e-03  3.11e-03     0.5
               *** Restarting incremental Fock matrix formation ***
    7    -441.3737269829751426    -7.12e-05  1.24e-04  4.09e-03  8.84e-04     0.5
    8    -441.3736935633439202     3.34e-05  6.98e-05  3.00e-03  2.65e-03     0.4
    9    -441.3737370356631686    -4.35e-05  3.99e-05  7.22e-04  2.20e-04     0.4
   10    -441.3737352104873821     1.83e-06  2.24e-05  4.39e-04  2.03e-04     0.4
   11    -441.3737385548434418    -3.34e-06  5.42e-06  1.74e-04  2.62e-05     0.4
   12    -441.3737384931309293     6.17e-08  3.16e-06  1.15e-04  4.08e-05     0.4
                 **** Energy Check signals convergence ****

               *****************************************************
               *                     SUCCESS                       *
               *           SCF CONVERGED AFTER  12 CYCLES          *
               *****************************************************

             **** ENERGY FILE WAS UPDATED (0.en.tmp) ****

----------------
TOTAL SCF ENERGY
----------------

Total Energy       :       -441.37373857786253 Eh          -12010.39002 eV

Components:
Nuclear Repulsion  :        482.46600809964997 Eh           13128.56752 eV
Electronic Energy  :       -923.83974667751249 Eh          -25138.95755 eV
One Electron Energy:      -1556.99826237991761 Eh          -42368.07667 eV
Two Electron Energy:        633.15851570240511 Eh           17229.11912 eV

Virial components:
Potential Energy   :       -880.48116252175373 Eh          -23959.11049 eV
Kinetic Energy     :        439.10742394389126 Eh           11948.72047 eV
Virial Ratio       :          2.00516118496384

DFT components:
N(Alpha)           :       36.000009838562 electrons
N(Beta)            :       36.000009838562 electrons
N(Total)           :       72.000019677124 electrons
E(X)               :      -58.279300582309 Eh       
E(C)               :       -3.113709628659 Eh       
E(XC)              :      -61.393010210968 Eh       

---------------
SCF CONVERGENCE
---------------

  Last Energy change         ...   -6.1713e-08  Tolerance :   1.0000e-06
  Last MAX-Density change    ...    1.1494e-04  Tolerance :   1.0000e-05
  Last RMS-Density change    ...    3.1621e-06  Tolerance :   1.0000e-06
  Last DIIS Error            ...    3.1065e-03  Tolerance :   1.0000e-06
  Last Orbital Gradient      ...    4.0780e-05  Tolerance :   5.0000e-05
  Last Orbital Rotation      ...    3.8622e-05  Tolerance :   5.0000e-05


----------------
ORBITAL ENERGIES
----------------

  NO   OCC          E(Eh)            E(eV) 
   0   2.0000     -18.812672      -511.9188 
   1   2.0000     -18.751871      -510.2643 
   2   2.0000     -13.986393      -380.5891 
   3   2.0000     -10.025175      -272.7989 
   4   2.0000      -9.945175      -270.6220 
   5   2.0000      -9.904911      -269.5263 
   6   2.0000      -9.901005      -269.4200 
   7   2.0000      -9.888062      -269.0679 
   8   2.0000      -9.887933      -269.0643 
   9   2.0000      -1.019071       -27.7303 
  10   2.0000      -0.930028       -25.3073 
  11   2.0000      -0.815627       -22.1943 
  12   2.0000      -0.729162       -19.8415 
  13   2.0000      -0.666487       -18.1360 
  14   2.0000      -0.612786       -16.6747 
  15   2.0000      -0.598737       -16.2925 
  16   2.0000      -0.535105       -14.5610 
  17   2.0000      -0.498350       -13.5608 
  18   2.0000      -0.456803       -12.4302 
  19   2.0000      -0.439050       -11.9472 
  20   2.0000      -0.418748       -11.3947 
  21   2.0000      -0.398589       -10.8462 
  22   2.0000      -0.395422       -10.7600 
  23   2.0000      -0.384504       -10.4629 
  24   2.0000      -0.374228       -10.1833 
  25   2.0000      -0.349304        -9.5051 
  26   2.0000      -0.336158        -9.1473 
  27   2.0000      -0.331377        -9.0172 
  28   2.0000      -0.324872        -8.8402 
  29   2.0000      -0.310079        -8.4377 
  30   2.0000      -0.281047        -7.6477 
  31   2.0000      -0.277453        -7.5499 
  32   2.0000      -0.275231        -7.4894 
  33   2.0000      -0.270273        -7.3545 
  34   2.0000      -0.222019        -6.0415 
  35   2.0000      -0.194959        -5.3051 
  36   0.0000      -0.013985        -0.3806 
  37   0.0000       0.052176         1.4198 
  38   0.0000       0.064992         1.7685 
  39   0.0000       0.088488         2.4079 
  40   0.0000       0.097090         2.6420 
  41   0.0000       0.116881         3.1805 
  42   0.0000       0.127122         3.4592 
  43   0.0000       0.134883         3.6703 
  44   0.0000       0.145760         3.9663 
  45   0.0000       0.155944         4.2434 
  46   0.0000       0.169453         4.6111 
*Only the first 10 virtual orbitals were printed.

                    ********************************
                    * MULLIKEN POPULATION ANALYSIS *
                    ********************************

-----------------------
MULLIKEN ATOMIC CHARGES
-----------------------
   0 C :   -0.049964
   1 C :    0.483084
   2 H :    0.244332
   3 H :    0.245149
   4 C :   -0.179951
   5 O :   -0.455200
   6 H :    0.105173
   7 N :   -0.549366
   8 C :   -0.065356
   9 H :    0.095620
  10 H :    0.113874
  11 C :   -0.321565
  12 H :    0.101502
  13 C :   -0.323614
  14 H :    0.100463
  15 H :    0.103252
  16 H :    0.121413
  17 H :    0.100851
  18 H :    0.106198
  19 H :    0.126232
  20 H :    0.317162
  21 O :   -0.419289
Sum of atomic charges:    0.0000000

--------------------------------
MULLIKEN REDUCED ORBITAL CHARGES
--------------------------------
  0 C s       :     3.197887  s :     3.197887
      pz      :     0.840694  p :     2.794529
      px      :     0.984094
      py      :     0.969742
      dz2     :     0.016598  d :     0.057548
      dxz     :     0.009813
      dyz     :     0.012839
      dx2y2   :     0.011232
      dxy     :     0.007066

  1 C s       :     2.989119  s :     2.989119
      pz      :     0.840293  p :     2.403423
      px      :     0.747137
      py      :     0.815993
      dz2     :     0.018582  d :     0.124375
      dxz     :     0.039737
      dyz     :     0.018878
      dx2y2   :     0.026745
      dxy     :     0.020433

  2 H s       :     0.731744  s :     0.731744
      pz      :     0.007431  p :     0.023923
      px      :     0.004889
      py      :     0.011604

  3 H s       :     0.730906  s :     0.730906
      pz      :     0.006864  p :     0.023945
      px      :     0.011206
      py      :     0.005875

  4 C s       :     3.233586  s :     3.233586
      pz      :     0.997590  p :     2.910117
      px      :     1.021611
      py      :     0.890917
      dz2     :     0.007306  d :     0.036247
      dxz     :     0.007577
      dyz     :     0.006822
      dx2y2   :     0.010558
      dxy     :     0.003983

  5 O s       :     3.824427  s :     3.824427
      pz      :     1.279080  p :     4.608055
      px      :     1.627558
      py      :     1.701416
      dz2     :     0.003085  d :     0.022718
      dxz     :     0.006278
      dyz     :     0.004528
      dx2y2   :     0.004618
      dxy     :     0.004210

  6 H s       :     0.883200  s :     0.883200
      pz      :     0.004953  p :     0.011627
      px      :     0.002710
      py      :     0.003964

  7 N s       :     3.585620  s :     3.585620
      pz      :     1.502708  p :     3.935308
      px      :     1.146659
      py      :     1.285941
      dz2     :     0.007117  d :     0.028439
      dxz     :     0.006490
      dyz     :     0.002524
      dx2y2   :     0.011745
      dxy     :     0.000561

  8 C s       :     3.204761  s :     3.204761
      pz      :     0.979585  p :     2.817343
      px      :     0.929361
      py      :     0.908397
      dz2     :     0.007644  d :     0.043253
      dxz     :     0.008357
      dyz     :     0.009548
      dx2y2   :     0.009923
      dxy     :     0.007781

  9 H s       :     0.892745  s :     0.892745
      pz      :     0.002865  p :     0.011635
      px      :     0.006123
      py      :     0.002646

 10 H s       :     0.874498  s :     0.874498
      pz      :     0.005060  p :     0.011627
      px      :     0.003874
      py      :     0.002693

 11 C s       :     3.248300  s :     3.248300
      pz      :     1.036803  p :     3.042705
      px      :     1.029587
      py      :     0.976314
      dz2     :     0.005326  d :     0.030560
      dxz     :     0.003211
      dyz     :     0.009259
      dx2y2   :     0.008703
      dxy     :     0.004061

 12 H s       :     0.886896  s :     0.886896
      pz      :     0.002755  p :     0.011602
      px      :     0.006337
      py      :     0.002510

 13 C s       :     3.246697  s :     3.246697
      pz      :     1.035423  p :     3.046488
      px      :     0.965982
      py      :     1.045082
      dz2     :     0.004866  d :     0.030429
      dxz     :     0.006860
      dyz     :     0.006162
      dx2y2   :     0.006646
      dxy     :     0.005896

 14 H s       :     0.887942  s :     0.887942
      pz      :     0.005042  p :     0.011595
      px      :     0.003280
      py      :     0.003274

 15 H s       :     0.885151  s :     0.885151
      pz      :     0.004987  p :     0.011597
      px      :     0.002817
      py      :     0.003793

 16 H s       :     0.866655  s :     0.866655
      pz      :     0.004918  p :     0.011932
      px      :     0.003323
      py      :     0.003691

 17 H s       :     0.887573  s :     0.887573
      pz      :     0.004953  p :     0.011576
      px      :     0.003476
      py      :     0.003147

 18 H s       :     0.882057  s :     0.882057
      pz      :     0.002886  p :     0.011746
      px      :     0.003030
      py      :     0.005830

 19 H s       :     0.862617  s :     0.862617
      pz      :     0.002303  p :     0.011151
      px      :     0.006236
      py      :     0.002611

 20 H s       :     0.644923  s :     0.644923
      pz      :     0.017251  p :     0.037915
      px      :     0.008683
      py      :     0.011981

 21 O s       :     3.855084  s :     3.855084
      pz      :     1.717410  p :     4.536181
      px      :     1.408193
      py      :     1.410578
      dz2     :     0.002902  d :     0.028024
      dxz     :     0.005569
      dyz     :     0.002361
      dx2y2   :     0.009407
      dxy     :     0.007786



                     *******************************
                     * LOEWDIN POPULATION ANALYSIS *
                     *******************************

----------------------
LOEWDIN ATOMIC CHARGES
----------------------
   0 C :   -0.051675
   1 C :    0.101155
   2 H :    0.127916
   3 H :    0.127503
   4 C :   -0.113862
   5 O :   -0.141816
   6 H :    0.069946
   7 N :   -0.241682
   8 C :   -0.071288
   9 H :    0.067275
  10 H :    0.073695
  11 C :   -0.196117
  12 H :    0.066408
  13 C :   -0.196930
  14 H :    0.065083
  15 H :    0.068271
  16 H :    0.075505
  17 H :    0.065216
  18 H :    0.067041
  19 H :    0.081764
  20 H :    0.181324
  21 O :   -0.224732

-------------------------------
LOEWDIN REDUCED ORBITAL CHARGES
-------------------------------
  0 C s       :     2.879315  s :     2.879315
      pz      :     0.973026  p :     3.041322
      px      :     1.034457
      py      :     1.033838
      dz2     :     0.038370  d :     0.131038
      dxz     :     0.023117
      dyz     :     0.029984
      dx2y2   :     0.025647
      dxy     :     0.013920

  1 C s       :     2.858202  s :     2.858202
      pz      :     0.940692  p :     2.743036
      px      :     0.930153
      py      :     0.872191
      dz2     :     0.043722  d :     0.297607
      dxz     :     0.098523
      dyz     :     0.044581
      dx2y2   :     0.060757
      dxy     :     0.050025

  2 H s       :     0.793221  s :     0.793221
      pz      :     0.021871  p :     0.078862
      px      :     0.012438
      py      :     0.044553

  3 H s       :     0.793342  s :     0.793342
      pz      :     0.021226  p :     0.079155
      px      :     0.042476
      py      :     0.015453

  4 C s       :     2.906317  s :     2.906317
      pz      :     1.060462  p :     3.126511
      px      :     1.075356
      py      :     0.990693
      dz2     :     0.015881  d :     0.081035
      dxz     :     0.015384
      dyz     :     0.016494
      dx2y2   :     0.024960
      dxy     :     0.008315

  5 O s       :     3.470407  s :     3.470407
      pz      :     1.305412  p :     4.620476
      px      :     1.636639
      py      :     1.678425
      dz2     :     0.010692  d :     0.050932
      dxz     :     0.016632
      dyz     :     0.010298
      dx2y2   :     0.007336
      dxy     :     0.005974

  6 H s       :     0.890489  s :     0.890489
      pz      :     0.018152  p :     0.039565
      px      :     0.008153
      py      :     0.013259

  7 N s       :     3.194654  s :     3.194654
      pz      :     1.505641  p :     3.989151
      px      :     1.182474
      py      :     1.301036
      dz2     :     0.012992  d :     0.057877
      dxz     :     0.013623
      dyz     :     0.005449
      dx2y2   :     0.022714
      dxy     :     0.003100

  8 C s       :     2.878683  s :     2.878683
      pz      :     1.049681  p :     3.093150
      px      :     1.028406
      py      :     1.015063
      dz2     :     0.018269  d :     0.099455
      dxz     :     0.017162
      dyz     :     0.021948
      dx2y2   :     0.025177
      dxy     :     0.016899

  9 H s       :     0.893168  s :     0.893168
      pz      :     0.008427  p :     0.039558
      px      :     0.023590
      py      :     0.007541

 10 H s       :     0.886130  s :     0.886130
      pz      :     0.018797  p :     0.040175
      px      :     0.013107
      py      :     0.008272

 11 C s       :     2.918711  s :     2.918711
      pz      :     1.088670  p :     3.212678
      px      :     1.079528
      py      :     1.044480
      dz2     :     0.011440  d :     0.064728
      dxz     :     0.006324
      dyz     :     0.018904
      dx2y2   :     0.019029
      dxy     :     0.009031

 12 H s       :     0.894129  s :     0.894129
      pz      :     0.007458  p :     0.039463
      px      :     0.024780
      py      :     0.007226

 13 C s       :     2.916990  s :     2.916990
      pz      :     1.087467  p :     3.215488
      px      :     1.041168
      py      :     1.086853
      dz2     :     0.010445  d :     0.064452
      dxz     :     0.014044
      dyz     :     0.012317
      dx2y2   :     0.015958
      dxy     :     0.011689

 14 H s       :     0.895352  s :     0.895352
      pz      :     0.018721  p :     0.039565
      px      :     0.010302
      py      :     0.010543

 15 H s       :     0.892175  s :     0.892175
      pz      :     0.018446  p :     0.039554
      px      :     0.007941
      py      :     0.013167

 16 H s       :     0.883607  s :     0.883607
      pz      :     0.018872  p :     0.040888
      px      :     0.010854
      py      :     0.011162

 17 H s       :     0.895230  s :     0.895230
      pz      :     0.018440  p :     0.039554
      px      :     0.011615
      py      :     0.009500

 18 H s       :     0.892829  s :     0.892829
      pz      :     0.008032  p :     0.040130
      px      :     0.009597
      py      :     0.022501

 19 H s       :     0.878128  s :     0.878128
      pz      :     0.007227  p :     0.040108
      px      :     0.024715
      py      :     0.008166

 20 H s       :     0.702911  s :     0.702911
      pz      :     0.053705  p :     0.115764
      px      :     0.025801
      py      :     0.036258

 21 O s       :     3.554580  s :     3.554580
      pz      :     1.704941  p :     4.612192
      px      :     1.474519
      py      :     1.432731
      dz2     :     0.007292  d :     0.057960
      dxz     :     0.010995
      dyz     :     0.004838
      dx2y2   :     0.015140
      dxy     :     0.019695



                      *****************************
                      * MAYER POPULATION ANALYSIS *
                      *****************************

  NA   - Mulliken gross atomic population
  ZA   - Total nuclear charge
  QA   - Mulliken gross atomic charge
  VA   - Mayer's total valence
  BVA  - Mayer's bonded valence
  FA   - Mayer's free valence

  ATOM       NA         ZA         QA         VA         BVA        FA
  0 C      6.0500     6.0000    -0.0500     3.8655     3.8655     0.0000
  1 C      5.5169     6.0000     0.4831     3.9612     3.9612    -0.0000
  2 H      0.7557     1.0000     0.2443     0.9217     0.9217     0.0000
  3 H      0.7549     1.0000     0.2451     0.9295     0.9295    -0.0000
  4 C      6.1800     6.0000    -0.1800     3.8652     3.8652     0.0000
  5 O      8.4552     8.0000    -0.4552     2.0293     2.0293    -0.0000
  6 H      0.8948     1.0000     0.1052     0.9574     0.9574     0.0000
  7 N      7.5494     7.0000    -0.5494     2.9198     2.9198     0.0000
  8 C      6.0654     6.0000    -0.0654     3.9123     3.9123    -0.0000
  9 H      0.9044     1.0000     0.0956     0.9585     0.9585     0.0000
 10 H      0.8861     1.0000     0.1139     0.9601     0.9601     0.0000
 11 C      6.3216     6.0000    -0.3216     3.8875     3.8875     0.0000
 12 H      0.8985     1.0000     0.1015     0.9570     0.9570    -0.0000
 13 C      6.3236     6.0000    -0.3236     3.8894     3.8894    -0.0000
 14 H      0.8995     1.0000     0.1005     0.9574     0.9574     0.0000
 15 H      0.8967     1.0000     0.1033     0.9571     0.9571    -0.0000
 16 H      0.8786     1.0000     0.1214     0.9621     0.9621    -0.0000
 17 H      0.8991     1.0000     0.1009     0.9583     0.9583     0.0000
 18 H      0.8938     1.0000     0.1062     0.9571     0.9571    -0.0000
 19 H      0.8738     1.0000     0.1262     0.9527     0.9527     0.0000
 20 H      0.6828     1.0000     0.3172     0.9182     0.9182     0.0000
 21 O      8.4193     8.0000    -0.4193     2.1163     2.1163     0.0000

  Mayer bond orders larger than 0.100000
B(  0-C ,  1-C ) :   0.8981 B(  0-C ,  4-C ) :   0.9752 B(  0-C ,  7-N ) :   1.0521 
B(  0-C , 19-H ) :   0.9175 B(  1-C ,  5-O ) :   1.0799 B(  1-C , 21-O ) :   1.9313 
B(  2-H ,  7-N ) :   0.9076 B(  3-H ,  7-N ) :   0.9003 B(  4-C ,  8-C ) :   0.9941 
B(  4-C ,  9-H ) :   0.9404 B(  4-C , 10-H ) :   0.9377 B(  5-O , 20-H ) :   0.8517 
B(  6-H , 13-C ) :   0.9597 B(  8-C , 11-C ) :   1.0044 B(  8-C , 13-C ) :   1.0107 
B(  8-C , 16-H ) :   0.9275 B( 11-C , 12-H ) :   0.9598 B( 11-C , 14-H ) :   0.9590 
B( 11-C , 15-H ) :   0.9596 B( 13-C , 17-H ) :   0.9584 B( 13-C , 18-H ) :   0.9565 


-------
TIMINGS
-------

Total SCF time: 0 days 0 hours 0 min 6 sec 

Total time                  ....       6.030 sec
Sum of individual times     ....       5.630 sec  ( 93.4%)

SCF preparation             ....       0.026 sec  (  0.4%)
Fock matrix formation       ....       5.546 sec  ( 92.0%)
  Startup                   ....       0.001 sec  (  0.0% of F)
  Split-RI-J                ....       1.969 sec  ( 35.5% of F)
  XC integration            ....       3.960 sec  ( 71.4% of F)
    XC Preparation          ....       0.000 sec  (  0.0% of XC)
    Basis function eval.    ....       1.407 sec  ( 35.5% of XC)
    Density eval.           ....       0.880 sec  ( 22.2% of XC)
    XC-Functional eval.     ....       0.727 sec  ( 18.4% of XC)
    XC-Potential eval.      ....       0.842 sec  ( 21.3% of XC)
Diagonalization             ....       0.000 sec  (  0.0%)
Density matrix formation    ....       0.004 sec  (  0.1%)
Total Energy calculation    ....       0.001 sec  (  0.0%)
Population analysis         ....       0.003 sec  (  0.0%)
Orbital Transformation      ....       0.006 sec  (  0.1%)
Orbital Orthonormalization  ....       0.000 sec  (  0.0%)
DIIS solution               ....       0.028 sec  (  0.5%)
SOSCF solution              ....       0.016 sec  (  0.3%)
Finished LeanSCF after   6.0 sec

Maximum memory used throughout the entire LEANSCF-calculation: 21.1 MB



-------------------------------------------------------------------------------
                          DFT DISPERSION CORRECTION                            
-------------------------------------------------------------------------------
Active option DFTDOPT                   ...         2   
Final C6-coefficient scaling factor     ...     1.250
Final VDW-radii scaling factor          ...     1.100
Damping factor alpha                    ...    20.000
-------------------------   ----------------
Dispersion correction           -0.033036172
-------------------------   ----------------


-------------------------   --------------------
FINAL SINGLE POINT ENERGY      -441.406774750272
-------------------------   --------------------


------------------------------------------------------------------------------
                              ORCA PROPERTY CALCULATIONS
------------------------------------------------------------------------------

GBWName                                 ... 0.gbw
Number of atoms                         ...     22
Number of basis functions               ...    191
Max core memory                         ...   4096 MB

Electric properties:
Dipole moment                           ... YES
Quadrupole moment                       ...  NO
Static polarizability (Dipole/Dipole)   ...  NO
Static polarizability (Dipole/Quad.)    ...  NO
Static polarizability (Quad./Quad.)     ...  NO
Static polarizability (Velocity)        ...  NO
Static hyperpolarizability              ...  NO

Atomic electric properties:
Dipole moment                           ...  NO
Quadrupole moment                       ...  NO
Static polarizability                   ...  NO

Choice of electric origin               ... Center of mass
Position of electric origin             ...   -17.548041    10.566478    -2.786213

General magnetic properties:
Magnetizability                         ...  NO

EPR properties:
g-Tensor (aka g-matrix)                 ...  NO
Zero-Field splitting spin-orbit         ...  NO
Zero-field splitting spin-spin          ...  NO
Hyperfine couplings                     ...  NO (   0 nuclei)
Quadrupole couplings                    ...  NO (   0 nuclei)
Contact density                         ...  NO (   0 nuclei)

NMR properties:
Chemical shifts                         ...  NO (   0 nuclei)
Spin-rotation constants                 ...  NO (   0 nuclei)
Spin-spin couplings                     ...  NO (   0 nuclei,    0 pairs)

Choice of magnetic origin               ... GIAO
Position of magnetic origin             ...     0.000000     0.000000     0.000000

Properties with geometric perturbations:
SCF Hessian                             ...  NO
IR spectrum                             ...  NO
VCD spectrum                            ...  NO
X-ray spectroscopy properties:
SCF XES/XAS/RIXS spectra                ...  NO

SCF SOC stabilization energy            ...  NO
Diagonal Born-Oppenheimer correction    ...  NO

-------------
DIPOLE MOMENT
-------------

Method             : SCF
Type of density    : Electron Density
Multiplicity       :   1
Irrep              :   0
Energy             :  -441.3737385778625253 Eh
Basis              : AO
                                X                 Y                 Z
Electronic contribution:      2.878049974      11.605184456       7.490395325
Nuclear contribution   :     -3.212048306     -11.633664457      -7.165920911
                        -----------------------------------------
Total Dipole Moment    :     -0.333998332      -0.028480001       0.324474414
                        -----------------------------------------
Magnitude (a.u.)       :      0.466529358
Magnitude (Debye)      :      1.185823388



--------------------
Rotational spectrum 
--------------------
 
Rotational constants in cm-1:             0.093398             0.028305             0.026506 
Rotational constants in MHz :          2800.000034           848.554475           794.624707 

Dipole components along the rotational axes: 
x,y,z [a.u.] :     0.077521     0.450439     0.093516 
x,y,z [Debye]:     0.197043     1.144924     0.237699 

 

Dipole moment calculation done in   0.0 sec 

Maximum memory used throughout the entire PROP-calculation: 11.9 MB

--------------------------------
SUGGESTED CITATIONS FOR THIS RUN
--------------------------------

Below you find a list of papers that are relevant to this ORCA run
We neither can nor want to force you to cite these papers, but we appreciate if you do
You receive ORCA, which is the product of decades of hard work by many enthusiastic individuals, for free
The only thing we kindly ask in return is that you cite our papers,
We deeply appreciate it, if you show your appreciation for ORCA by not just citing the generic ORCA reference.

Please note that relegating all ORCA citations to the supporting information does *not* help us.
SI sections are not indexed - citations you put there will not count into any citation statistics
But we need these citations in order to attract the funding resources that allow us to do what we are doing

Therefore, if you are a happy ORCA user, please consider citing a few of the papers listed below in the main body of your paper

In addition to the list printed below, the program has created the file 0.bibtex that contains the list in bibtex format
You can import this file easily into all common literature databanks and citation aid programs


List of essential papers. We consider these as the minimum necessary citations

  1. Neese, F.
     Software update: the ORCA program system, version 6.0
     WIRES Comput. Molec. Sci. 2025 15(1), e70019
     doi.org/10.1002/wcms.7019

List of papers to cite with high priority. The work reported in these papers was absolutely
necessary for this run to complete.
Our perspective: the developers of density functionals and basis sets usually get cited in chemistry papers
Good! But without the algorithms to do something with them, the functionals or basis sets would not do anything.
Hence, in our opinion, the algorithm design and method developments papers are equally worthy of getting cited

  1. Neese, F.
     An improvement of the resolution of the identity approximation for the formation of the Coulomb matrix
     J. Comp. Chem. 2003 24(14), 1740-1747
     doi.org/10.1002/jcc.10318
  2. Grimme, S.
     Semiempirical GGA-type density functional constructed with a long-range dispersion correction
     J.Comput.Chem. 2006 27(15), 1787-1799
     doi.org/10.1002/jcc.20495
  3. Neese, F.
     The SHARK Integral Generation and Digestion System
     J. Comp. Chem. 2022 44(3), 381
     doi.org/10.1002/jcc.26942

List of suggested additional citations. These are papers that are important in the 'surrounding' of 
of this run, or papers that preceded the highly important papers. If you like your results we are grateful for a citation.

  1. Neese, F.
     The ORCA program system
     WIRES Comput. Molec. Sci. 2012 2(1), 73-78
     doi.org/10.1002/wcms.81
  2. Neese, F.
     Software update: the ORCA program system, version 4.0
     WIRES Comput. Molec. Sci. 2018 8(1), 1-6
     doi.org/10.1002/wcms.1327
  3. Neese, F.; Wennmohs, F.; Becker, U.; Riplinger, C.
     The ORCA quantum chemistry program package
     J. Chem. Phys. 2020 152(22), 224108
     doi.org/10.1063/5.0004608
  4. Neese, F.
     Software update: The ORCA program system—Version 5.0
     WIRES Comput. Molec. Sci. 2022 12(1), e1606
     doi.org/10.1002/wcms.1606

List of optional additional citations

  1. Neese, F.
     Approximate second-order SCF convergence for spin unrestricted wavefunctions
     Chem. Phys. Lett. 2000 325(1-3), 93-98
     doi.org/10.1016/s0009-2614(00)00662-x

Timings for individual modules:

Sum of individual times          ...        6.829 sec (=   0.114 min)
Startup calculation              ...        0.452 sec (=   0.008 min)   6.6 %
SCF iterations                   ...        6.346 sec (=   0.106 min)  92.9 %
Property calculations            ...        0.031 sec (=   0.001 min)   0.5 %
                             ****ORCA TERMINATED NORMALLY****
TOTAL RUN TIME: 0 days 0 hours 0 minutes 6 seconds 871 msec
