
                                 *****************
                                 * O   R   C   A *
                                 *****************

                                            #,                                       
                                            ###                                      
                                            ####                                     
                                            #####                                    
                                            ######                                   
                                           ########,                                 
                                     ,,################,,,,,                         
                               ,,#################################,,                 
                          ,,##########################################,,             
                       ,#########################################, ''#####,          
                    ,#############################################,,   '####,        
                  ,##################################################,,,,####,       
                ,###########''''           ''''###############################       
              ,#####''   ,,,,##########,,,,          '''####'''          '####       
            ,##' ,,,,###########################,,,                        '##       
           ' ,,###''''                  '''############,,,                           
         ,,##''                                '''############,,,,        ,,,,,,###''
      ,#''                                            '''#######################'''  
     '                                                          ''''####''''         
             ,#######,   #######,   ,#######,      ##                                
            ,#'     '#,  ##    ##  ,#'     '#,    #''#        ,####,    ,#,          
            ##       ##  ##   ,#'  ##            #'  '#       #'       ,# #          
            ##       ##  #######   ##           ,######,      #####,      #          
            '#,     ,#'  ##    ##  '#,     ,#' ,#      #,     #,   #      #          
             '#######'   ##     ##  '#######'  #'      '#     '####' #    #          



                #########################################################
                #                        -***-                          #
                #          Department of theory and spectroscopy        #
                #                                                       #
                #                      Frank Neese                      #
                #                                                       #
                #     Directorship, Architecture, Infrastructure        #
                #                    SHARK, DRIVERS                     #
                #        Core code/Algorithms in most modules           #
                #                                                       #
                #        Max Planck Institute fuer Kohlenforschung      #
                #                Kaiser Wilhelm Platz 1                 #
                #                 D-45470 Muelheim/Ruhr                 #
                #                      Germany                          #
                #                                                       #
                #                  All rights reserved                  #
                #                        -***-                          #
                #########################################################


                         Program Version 6.1.0  -  RELEASE   -
                                (GIT: $679e74b$)
                          ($2025-06-10 18:02:51 +0200$)


 With contributions from (in alphabetic order):
[Max-Planck-Institut fuer Kohlenforschung]                               
  Daniel Aravena         : Magnetic Suceptibility                        
  Michael Atanasov       : Ab Initio Ligand Field Theory (pilot matlab implementation)
  Alexander A. Auer      : GIAO ZORA, VPT2 properties, NMR spectrum      
  Ute Becker             : All parallelization in ORCA, NUMFREQ, NUMCALC 
  Giovanni Bistoni       : ED, misc. LED, open-shell LED, HFLD           
  Dmytro Bykov           : pre 5.0 version of the SCF Hessian            
  Marcos Casanova-Páez   : Triplet and SCS-CIS(D). UHF-(DLPNO)-IP/EA/STEOM-CCSD. UHF-CVS-IP/STEOM-CCSD   
  Vijay G. Chilkuri      : MRCI spin determinant printing, contributions to CSF-ICE 
  Pauline Colinet        : FMM embedding                                 
  Dipayan Datta          : RHF DLPNO-CCSD density                        
  Achintya Kumar Dutta   : EOM-CC, STEOM-CC                              
  Nicolas Foglia         : Exact transition moments, OPA infrastructure, MCD improvements    
  Dmitry Ganyushin       : Spin-Orbit,Spin-Spin,Magnetic field MRCI      
  Miquel Garcia-Rates    : C-PCM and meta-GGA Hessian, CCSD/C-PCM, Gaussian charge scheme 
  Tiago L. C. Gouveia    : GS-ROHF, GS-ROCIS                             
  Yang Guo               : DLPNO-NEVPT2, F12-NEVPT2, CIM, IAO-localization        
  Andreas Hansen         : Spin unrestricted coupled pair/coupled cluster methods 
  Ingolf Harden          : AUTO-CI MPn and infrastructure                
  Benjamin Helmich-Paris : MC-RPA, TRAH-(SCF,CASSCF), AVAS, COSX integrals, SCF dyn. polar., MC-PDFT, srDFT 
  Lee Huntington         : MR-EOM, pCC                                   
  Robert Izsak           : Overlap fitted RIJCOSX, COSX-SCS-MP3, EOM     
  Riya Kayal             : Wick's Theorem for AUTO-CI, AUTO-CI UHF-CCSDT 
  Emily Kempfer          : AUTO-CI RHF CISDT and CCSDT, approximate NEVPT4
  Christian Kollmar      : KDIIS, OOCD, Brueckner-CCSD(T), CCSD density, CASPT2, CASPT2-K, improved NEVPT2 
  Axel Koslowski         : Symmetry handling                             
  Simone Kossmann        : meta-GGA functionals, TD-DFT gradient, OOMP2, (MP2 Hessian; deprecated post 5.0) 
  Lucas Lang             : DCDCAS, Hyperfine gauge corrections, ICE-SOC+SSC
  Marvin Lechner         : AUTO-CI (C++ implementation), FIC-MRCC        
  Spencer Leger          : CASSCF response                               
  Dagmar Lenk            : GEPOL surface, SMD, ORCA-2-JSON               
  Dimitrios Liakos       : Extrapolation schemes; Compound Job, Property file
  Dimitrios Manganas     : Further ROCIS development; embedding schemes. LFT, Crystal Embedding 
  Dimitrios Pantazis     : SARC Basis sets                               
  Anastasios Papadopoulos: AUTO-CI, single reference methods and gradients 
  Taras Petrenko         : pre 6.0 DFT Hessian and TD-DFT gradient,  ECA, NRVS 
  Petra Pikulova         : Analytic Raman intensities                    
  Peter Pinski           : DLPNO-MP2, DLPNO-MP2 Gradient                 
  Shashank Vittal Rao    : ES-AILFT, MagRelax                            
  Christoph Reimann      : Effective Core Potentials                     
  Marius Retegan         : Local ZFS, SOC                                
  Christoph Riplinger    : Optimizer, TS searches, QM/MM, DLPNO-CCSD(T), (RO)-DLPNO pert. Triples 
  Michael Roemelt        : Original ROCIS implementation, recursive CI coupling coefficients
  Masaaki Saitow         : Open-shell DLPNO-CCSD energy and density      
  Barbara Sandhoefer     : DKH picture change effects                    
  Yorick L. A. Schmerwitz: GMF and freeze-and-release deltaSCF, NEB S-IDPP initial path                    
  Kantharuban Sivalingam : CASSCF convergence/infrastructure, NEVPT2, NEVPT3, NEVPT4(SD), FIC-MRCI and CEPA variants
  Bernardo de Souza      : ESD, SOC TD-DFT                               
  Georgi L. Stoychev     : AutoAux, RI-MP2 NMR, DLPNO-MP2 response, X2C  
  Van Anh Tran           : RI-MP2 g-tensors                              
  Willem Van den Heuvel  : Paramagnetic NMR                              
  Zikuan Wang            : NOTCH, Electric field optimization            
  Frank Wennmohs         : Technical directorship and infrastructure     
  Hang Xu                : AUTO-CI-Response properties                   
                                                                         
[FACCTs GmbH]                                                            
  Markus Bursch, Nicolas Foglia, Miquel Garcia-Rates, Ingolf Harden, Hagen Neugebauer, Anastasios Papadopoulos, 
  Christoph Riplinger, Bernardo de Souza, Georgi L. Stoychev                                                    
                                                                 
  APM, various basis sets, CI-OPT, improved COSX, DLPNO-Multilevel,           
  DOCKER, DRACO, updates on ESD, Fragmentator, GOAT, IRC, LR-CPCM, L-BFGS, MBIS, meta-GGA TD-DFT gradient, ML-optimized integration grids, 
  MM, NACMEs, nearIR, NEB, NEB-TS, NL-DFT gradient (VV10), 2- and 3-layer-ONIOM, interface openCOSMO-RS, QMMM,   
  Crystal-QMMM, RESP, rigid body optimization, SF, symmetry and pop. for TD-DFT, various functionals, SOLVATOR                                   
                                                                         
[Other institutions]                                                     
  V. Asgeirsson          : NEB                                           
  Christoph Bannwarth    : sTDA-DFT, sTD-DFT, PBEh-3c, B97-3c, D3        
  Giovanni Bistoni       : ETS/NOCV, ADLD/ADEX, COVALED                  
  Martin Brehm           : Molecular dynamics                            
  Ronald Cardenas        : ETS/NOCV                                      
  Martina Colucci        : COVALED                                       
  Sebastian Ehlert       : rSCAN, r2SCAN, r2SCAN-3c, D4, dhf basis sets  
  Marvin Friede          : D4 for Fr, Ra, Ac-Lr                          
  Lars Goerigk           : TD-DFT with DH, B97 family of functionals     
  Stefan Grimme          : VdW corrections, initial TS optimization, DFT functionals, gCP, sTDA/sTD-DF 
  Waldemar Hujo          : DFT-NL                                        
  H. Jonsson             : NEB                                           
  Holger Kruse           : gCP                                           
  Marcel Mueller         : wB97X-3c, vDZP basis set                      
  Hagen Neugebauer       : wr2SCAN, Native XTB                           
  Gianluca Regni         : ADLD/ADEX                                     
  Tobias Risthaus        : pre 6.0 range-separated hybrid DFT and stability analysis
  Lukas Wittmann         : regularized MP2, r2SCAN double-hybrids, wr2SCAN        
                                                                         
We gratefully acknowledge several colleagues who have allowed us to      
interface, adapt or use parts of their codes:                            
  Ed Valeev, F. Pavosevic, A. Kumar             : LibInt (2-el integral package), F12 methods 
  Garnet Chan, S. Sharma, J. Yang, R. Olivares  : DMRG                   
  Ulf Ekstrom                                   : XCFun DFT Library      
  Mihaly Kallay                                 : mrcc  (arbitrary order and MRCC methods)
  Frank Weinhold                                : gennbo (NPA and NBO analysis)           
  Simon Mueller                                 : openCOSMO-RS                            
  Christopher J. Cramer and Donald G. Truhlar   : smd solvation model                     
  S Lehtola, MJT Oliveira, MAL Marques          : LibXC Library                           
  Liviu Ungur et al                             : ANISO software                          


 Your calculation uses the libint2 library for the computation of 2-el integrals
 For citations please refer to: http://libint.valeyev.net

 Your ORCA version has been built with support for libXC version: 7.0.0
 For citations please refer to: https://libxc.gitlab.io

 This ORCA versions uses:
   CBLAS   interface :  Fast vector & matrix operations
   LAPACKE interface :  Fast linear algebra routines
   SCALAPACK package :  Parallel linear algebra routines
   Shared memory     :  Shared parallel matrices
   BLAS/LAPACK       :  OpenBLAS 0.3.29  USE64BITINT DYNAMIC_ARCH NO_AFFINITY Haswell SINGLE_THREADED
        Core in use  :  Haswell
   Copyright (c) 2011-2014, The OpenBLAS Project


  ***********************************
  * Starting time: Wed Sep  3 19:36:29 2025
  * Host name:     chemlab03
  * Process ID:    146326
  * Working dir.:  /home/vivek/mm-project/vivek/xtb-goat/MP2-opt/k/0
  ***********************************



***************************************
The coordinates will be read from file: /home/vivek/mm-project/vivek/xtb-goat/xtb-goat/k/K_CONF/0.xyz
***************************************


================================================================================

----- Orbital basis set information -----
Your calculation utilizes the basis: 6-31G**
   H-He, Li-Ne : W. J. Hehre, R. Ditchfield and J.A. Pople, J. Chem. Phys. 56, 2257 (1972).
                 Note: He and Ne are unpublished basis sets taken from the Gaussian program.
                 Note: Li and B from J. D. Dill and J. A. Pople, J. Chem. Phys. 62, 2921 (1975).
   Na - Ar     : M. M. Francl, W. J. Pietro, W. J. Hehre, J. S. Binkley, M. S. Gordon, 
                 D. J. DeFrees and J. A. Pople, J. Chem. Phys. 77, 3654 (1982).
   K - Zn      : V. A. Rassolov, J. A. Pople, M. A. Ratner, and T. L. Windus, J. Chem. Phys. 109, 1223 (1998).

================================================================================
                                        WARNINGS
                       Please study these warnings very carefully!
================================================================================


WARNING: The frozen-core approximation for MP2-gradient calculations is turned on by default.

WARNING: Geometry Optimization
  ===> : Switching off AutoStart
         For restart on a previous wavefunction, please use MOREAD

WARNING: Post HF methods need fully converged wavefunctions
  ===> : Setting SCFConvForced true
         You can overwrite this default with %scf ConvForced false 


================================================================================
                                       INPUT FILE
================================================================================
NAME = 0.inp
|  1> ! MP2 6-31G** opt
|  2> 
|  3> * xyzfile 0 1 /home/vivek/mm-project/vivek/xtb-goat/xtb-goat/k/K_CONF/0.xyz
|  4> 
|  5>                          ****END OF INPUT****
================================================================================

                       *****************************
                       * Geometry Optimization Run *
                       *****************************

Geometry optimization settings:
Update method            Update   .... BFGS
Choice of coordinates    CoordSys .... (2022) Redundant Internals
Initial Hessian          InHess   .... Almloef's Model
Max. no of cycles        MaxIter  .... 72

Convergence Tolerances:
Energy Change            TolE     ....  5.0000e-06 Eh
Max. Gradient            TolMAXG  ....  3.0000e-04 Eh/bohr
RMS Gradient             TolRMSG  ....  1.0000e-04 Eh/bohr
Max. Displacement        TolMAXD  ....  4.0000e-03 bohr
RMS Displacement         TolRMSD  ....  2.0000e-03 bohr
Strict Convergence                .... False

------------------------------------------------------------------------------
                        ORCA OPTIMIZATION COORDINATE SETUP
------------------------------------------------------------------------------

The optimization will be done in redundant internal coordinates (2022)
Making redundant internal coordinates   ...  (2022 redundants) done
Evaluating the initial hessian          ...  (Almloef) done
Evaluating the coordinates              ...  done
Calculating the B-matrix                .... done
Calculating the G-matrix                .... done
The number of degrees of freedom        ....  104

    -----------------------------------------------------------------
                    Redundant Internal Coordinates


    -----------------------------------------------------------------
         Definition                    Initial Value    Approx d2E/dq
    -----------------------------------------------------------------
      1. B(C   1,C   0)                  1.5355         0.366118   
      2. B(N   4,H   2)                  1.0151         0.424711   
      3. B(N   4,C   0)                  1.4516         0.446299   
      4. B(N   4,H   3)                  1.0150         0.424808   
      5. B(C   5,C   1)                  1.5252         0.380276   
      6. B(H   6,C   1)                  1.0943         0.354433   
      7. B(H   7,C   1)                  1.0939         0.355024   
      8. B(C   8,C   5)                  1.5260         0.379126   
      9. B(H   9,C   5)                  1.0902         0.359791   
     10. B(H  10,C   5)                  1.0917         0.357877   
     11. B(C  11,C   8)                  1.5379         0.362895   
     12. B(H  12,C   8)                  1.0913         0.358325   
     13. B(H  13,C   8)                  1.0927         0.356554   
     14. B(C  14,C  11)                  1.5238         0.382236   
     15. B(N  16,C  11)                  1.4485         0.451438   
     16. B(O  17,H  15)                  0.9710         0.499407   
     17. B(O  17,C  14)                  1.3374         0.678833   
     18. B(H  18,C   0)                  1.0935         0.355489   
     19. B(H  19,C   0)                  1.0933         0.355761   
     20. B(H  20,N  16)                  1.0160         0.423320   
     21. B(O  21,C  14)                  1.2030         1.112167   
     22. B(H  22,C  11)                  1.0956         0.352774   
     23. B(H  23,N  16)                  1.0144         0.425749   
     24. A(C   1,C   0,H  19)          109.4212         0.322606   
     25. A(C   1,C   0,N   4)          114.8192         0.370982   
     26. A(N   4,C   0,H  18)          107.4637         0.331262   
     27. A(C   1,C   0,H  18)          109.4656         0.322565   
     28. A(H  18,C   0,H  19)          107.9205         0.289700   
     29. A(N   4,C   0,H  19)          107.5224         0.331304   
     30. A(C   5,C   1,H   6)          109.5537         0.324421   
     31. A(C   5,C   1,H   7)          109.4959         0.324510   
     32. A(C   0,C   1,H   6)          109.1044         0.322408   
     33. A(C   0,C   1,C   5)          111.8753         0.363204   
     34. A(H   6,C   1,H   7)          107.6566         0.289471   
     35. A(C   0,C   1,H   7)          109.0583         0.322496   
     36. A(C   0,N   4,H   3)          110.1476         0.338291   
     37. A(C   0,N   4,H   2)          110.1663         0.338278   
     38. A(H   2,N   4,H   3)          107.4887         0.301466   
     39. A(C   8,C   5,H  10)          109.2347         0.324775   
     40. A(C   1,C   5,H  10)          109.3790         0.324937   
     41. A(C   8,C   5,H   9)          108.6538         0.325060   
     42. A(C   1,C   5,H   9)          109.8926         0.325222   
     43. A(C   1,C   5,C   8)          111.7892         0.365379   
     44. A(H   9,C   5,H  10)          107.8025         0.290518   
     45. A(H  12,C   8,H  13)          108.3699         0.290163   
     46. A(C  11,C   8,H  12)          108.9226         0.322518   
     47. A(C  11,C   8,H  13)          108.6008         0.322256   
     48. A(C   5,C   8,H  13)          109.5696         0.324578   
     49. A(C   5,C   8,H  12)          110.1605         0.324842   
     50. A(C   5,C   8,C  11)          111.1564         0.362468   
     51. A(C  14,C  11,N  16)          112.4406         0.374484   
     52. A(C   8,C  11,N  16)          110.1120         0.371148   
     53. A(C   8,C  11,C  14)          108.4010         0.362974   
     54. A(N  16,C  11,H  22)          108.7789         0.331470   
     55. A(C  14,C  11,H  22)          108.1793         0.324445   
     56. A(C   8,C  11,H  22)          108.8526         0.321694   
     57. A(C  11,C  14,O  17)          112.7244         0.402098   
     58. A(O  17,C  14,O  21)          122.8337         0.484436   
     59. A(C  11,C  14,O  21)          124.4403         0.439113   
     60. A(H  20,N  16,H  23)          106.9241         0.301415   
     61. A(C  11,N  16,H  23)          110.3351         0.339063   
     62. A(C  11,N  16,H  20)          109.2984         0.338739   
     63. A(C  14,O  17,H  15)          110.5040         0.373337   
     64. D(H   6,C   1,C   0,H  19)    179.9898         0.010730   
     65. D(H   6,C   1,C   0,N   4)    -59.0271         0.010730   
     66. D(H   6,C   1,C   0,H  18)     61.9130         0.010730   
     67. D(C   5,C   1,C   0,N   4)    179.5905         0.010730   
     68. D(C   5,C   1,C   0,H  18)    -59.4693         0.010730   
     69. D(C   5,C   1,C   0,H  19)     58.6075         0.010730   
     70. D(H   2,N   4,C   0,C   1)     58.9935         0.016989   
     71. D(H   3,N   4,C   0,H  18)    178.5534         0.016989   
     72. D(H   3,N   4,C   0,C   1)    -59.4149         0.016989   
     73. D(H   2,N   4,C   0,H  19)   -178.9883         0.016989   
     74. D(H   2,N   4,C   0,H  18)    -63.0381         0.016989   
     75. D(H   9,C   5,C   1,C   0)    -59.7960         0.011525   
     76. D(C   8,C   5,C   1,H   6)     58.3532         0.011525   
     77. D(C   8,C   5,C   1,C   0)    179.4759         0.011525   
     78. D(C   8,C   5,C   1,H   7)    -59.4992         0.011525   
     79. D(H   9,C   5,C   1,H   7)     61.2290         0.011525   
     80. D(H   9,C   5,C   1,H   6)    179.0814         0.011525   
     81. D(H  12,C   8,C   5,H   9)    174.9746         0.011459   
     82. D(H  12,C   8,C   5,C   1)    -63.5788         0.011459   
     83. D(C  11,C   8,C   5,H  10)    -63.2148         0.011459   
     84. D(C  11,C   8,C   5,H   9)     54.1436         0.011459   
     85. D(H  12,C   8,C   5,H  10)     57.6162         0.011459   
     86. D(C  11,C   8,C   5,C   1)    175.5902         0.011459   
     87. D(N  16,C  11,C   8,H  13)     58.9497         0.010554   
     88. D(N  16,C  11,C   8,H  12)    176.7825         0.010554   
     89. D(N  16,C  11,C   8,C   5)    -61.6608         0.010554   
     90. D(C  14,C  11,C   8,H  13)    -64.4337         0.010554   
     91. D(C  14,C  11,C   8,H  12)     53.3991         0.010554   
     92. D(C  14,C  11,C   8,C   5)    174.9558         0.010554   
     93. D(O  17,C  14,C  11,N  16)    166.5438         0.010895   
     94. D(O  17,C  14,C  11,C   8)    -71.4866         0.010895   
     95. D(O  21,C  14,C  11,N  16)    -13.9101         0.010895   
     96. D(O  21,C  14,C  11,C   8)    108.0594         0.010895   
     97. D(O  17,C  14,C  11,H  22)     46.3974         0.010895   
     98. D(H  23,N  16,C  11,C  14)    -62.2392         0.017387   
     99. D(H  23,N  16,C  11,C   8)    176.7674         0.017387   
    100. D(H  20,N  16,C  11,H  22)    174.8636         0.017387   
    101. D(H  20,N  16,C  11,C  14)     55.0647         0.017387   
    102. D(H  20,N  16,C  11,C   8)    -65.9288         0.017387   
    103. D(H  15,O  17,C  14,O  21)     -0.6955         0.034312   
    104. D(H  15,O  17,C  14,C  11)    178.8590         0.034312   
    -----------------------------------------------------------------

Number of atoms                         .... 24
Number of degrees of freedom            .... 104


         *************************************************************
         *                GEOMETRY OPTIMIZATION CYCLE   1            *
         *************************************************************
---------------------------------
CARTESIAN COORDINATES (ANGSTROEM)
---------------------------------
  C    -14.222319    6.517460    0.616860
  C    -12.796813    6.574938    1.184620
  H    -15.052470    8.025132    1.708277
  H    -15.261701    6.542217    2.369400
  N    -15.248918    7.052940    1.492328
  C    -11.775381    5.987325    0.216373
  H    -12.539293    7.616226    1.401267
  H    -12.765552    6.022240    2.128064
  C    -10.357884    6.057114    0.777143
  H    -12.017544    4.944682    0.009343
  H    -11.815772    6.533255   -0.728141
  C     -9.355284    5.363752   -0.160494
  H    -10.056800    7.097642    0.910121
  H    -10.324599    5.561894    1.750606
  C     -7.951743    5.578670    0.392436
  H     -6.641117    6.944772    0.631698
  N     -9.687658    3.960372   -0.295044
  O     -7.529280    6.839993    0.253568
  H    -14.264271    7.079495   -0.320219
  H    -14.484974    5.478929    0.398297
  H     -9.557394    3.497177    0.599763
  O     -7.285130    4.720607    0.908809
  H     -9.409585    5.835304   -1.147924
  H     -9.060772    3.511243   -0.954082

----------------------------
CARTESIAN COORDINATES (A.U.)
----------------------------
  NO LB      ZA    FRAG     MASS         X           Y           Z
   0 C     6.0000    0    12.011  -26.876288   12.316215    1.165696
   1 C     6.0000    0    12.011  -24.182472   12.424832    2.238608
   2 H     1.0000    0     1.008  -28.445045   15.165302    3.228175
   3 H     1.0000    0     1.008  -28.840435   12.362999    4.477517
   4 N     7.0000    0    14.007  -28.816279   13.328126    2.820090
   5 C     6.0000    0    12.011  -22.252245   11.314405    0.408886
   6 H     1.0000    0     1.008  -23.695830   14.392581    2.648010
   7 H     1.0000    0     1.008  -24.123398   11.380383    4.021458
   8 C     6.0000    0    12.011  -19.573564   11.446286    1.468587
   9 H     1.0000    0     1.008  -22.709867    9.344094    0.017656
  10 H     1.0000    0     1.008  -22.328574   12.346063   -1.375987
  11 C     6.0000    0    12.011  -17.678924   10.136022   -0.303289
  12 H     1.0000    0     1.008  -19.004597   13.412599    1.719880
  13 H     1.0000    0     1.008  -19.510665   10.510457    3.308165
  14 C     6.0000    0    12.011  -15.026616   10.542159    0.741596
  15 H     1.0000    0     1.008  -12.549892   13.123717    1.193735
  16 N     7.0000    0    14.007  -18.307021    7.484019   -0.557552
  17 O     8.0000    0    15.999  -14.228278   12.925714    0.479174
  18 H     1.0000    0     1.008  -26.955566   13.378307   -0.605126
  19 H     1.0000    0     1.008  -27.372634   10.353675    0.752673
  20 H     1.0000    0     1.008  -18.060858    6.608707    1.133387
  21 O     8.0000    0    15.999  -13.766900    8.920655    1.717400
  22 H     1.0000    0     1.008  -17.781538   11.027126   -2.169262
  23 H     1.0000    0     1.008  -17.122378    6.635288   -1.802954

--------------------------------
INTERNAL COORDINATES (ANGSTROEM)
--------------------------------
 C      0   0   0     0.000000000000     0.00000000     0.00000000
 C      1   0   0     1.535488208630     0.00000000     0.00000000
 H      1   2   0     2.037993227840    98.76892290     0.00000000
 H      3   1   2     1.637039437820    66.30962270   265.91378241
 N      4   3   1     1.015016012090    36.25694428   320.79312574
 C      2   1   3     1.525160464798   111.87530931   203.51142670
 H      2   1   3     1.094317966480   109.10440608   324.89373818
 H      2   1   3     1.093864128220   109.05826925    82.23329543
 C      6   2   1     1.525984697633   111.78922715   179.47585493
 H      6   2   1     1.090233903176   109.89255385   300.20402939
 H      6   2   1     1.091685768844   109.37895504    58.36441703
 C      9   6   2     1.537895049273   111.15637414   175.59019036
 H      9   6   2     1.091344949944   110.16047785   296.42119806
 H      9   6   2     1.092693669029   109.56957976    55.55272290
 C     12   9   6     1.523761052676   108.40103377   174.95580607
 H     15  12   9     1.908198341631   141.18050615   289.38088072
 N     12   9   6     1.448464879245   110.11198766   298.33921594
 O     16  15  12     0.970976539709    41.03186960   358.32098510
 H      1   2   3     1.093507884808   109.46560636    97.01925963
 H      1   2   3     1.093299688532   109.42118304   215.09603645
 H     17  12   9     1.015971145419   109.29842711   294.07122461
 O     15  12   9     1.203032520787   124.44025692   108.05943861
 H     12   9   6     1.095594877527   108.85259189    57.50182286
 H     17  12   9     1.014413608324   110.33509582   176.76737948

---------------------------
INTERNAL COORDINATES (A.U.)
---------------------------
 C      0   0   0     0.000000000000     0.00000000     0.00000000
 C      1   0   0     2.901652196177     0.00000000     0.00000000
 H      1   2   0     3.851249063404    98.76892290     0.00000000
 H      3   1   2     3.093556207909    66.30962270   265.91378241
 N      4   3   1     1.918102284396    36.25694428   320.79312574
 C      2   1   3     2.882135588752   111.87530931   203.51142670
 H      2   1   3     2.067961260076   109.10440608   324.89373818
 H      2   1   3     2.067103630056   109.05826925    82.23329543
 C      6   2   1     2.883693163081   111.78922715   179.47585493
 H      6   2   1     2.060243498919   109.89255385   300.20402939
 H      6   2   1     2.062987127414   109.37895504    58.36441703
 C      9   6   2     2.906200465840   111.15637414   175.59019036
 H      9   6   2     2.062343073031   110.16047785   296.42119806
 H      9   6   2     2.064891782734   109.56957976    55.55272290
 C     12   9   6     2.879491083094   108.40103377   174.95580607
 H     15  12   9     3.605972274886   141.18050615   289.38088072
 N     12   9   6     2.737201936377   110.11198766   298.33921594
 O     16  15  12     1.834879742512    41.03186960   358.32098510
 H      1   2   3     2.066430427570   109.46560636    97.01925963
 H      1   2   3     2.066036993626   109.42118304   215.09603645
 H     17  12   9     1.919907224809   109.29842711   294.07122461
 O     15  12   9     2.273401994489   124.44025692   108.05943861
 H     12   9   6     2.070374272253   108.85259189    57.50182286
 H     17  12   9     1.916963906255   110.33509582   176.76737948

---------------------
BASIS SET INFORMATION
---------------------
There are 4 groups of distinct atoms

 Group   1 Type C   : 10s4p1d contracted to 3s2p1d pattern {631/31/1}
 Group   2 Type H   : 4s1p contracted to 2s1p pattern {31/1}
 Group   3 Type N   : 10s4p1d contracted to 3s2p1d pattern {631/31/1}
 Group   4 Type O   : 10s4p1d contracted to 3s2p1d pattern {631/31/1}

Atom   0C    basis set group =>   1
Atom   1C    basis set group =>   1
Atom   2H    basis set group =>   2
Atom   3H    basis set group =>   2
Atom   4N    basis set group =>   3
Atom   5C    basis set group =>   1
Atom   6H    basis set group =>   2
Atom   7H    basis set group =>   2
Atom   8C    basis set group =>   1
Atom   9H    basis set group =>   2
Atom  10H    basis set group =>   2
Atom  11C    basis set group =>   1
Atom  12H    basis set group =>   2
Atom  13H    basis set group =>   2
Atom  14C    basis set group =>   1
Atom  15H    basis set group =>   2
Atom  16N    basis set group =>   3
Atom  17O    basis set group =>   4
Atom  18H    basis set group =>   2
Atom  19H    basis set group =>   2
Atom  20H    basis set group =>   2
Atom  21O    basis set group =>   4
Atom  22H    basis set group =>   2
Atom  23H    basis set group =>   2
------------------------------------------------------------------------------
                             ORCA STARTUP CALCULATIONS
------------------------------------------------------------------------------
------------------------------------------------------------------------------
                   ___                                                        
                  /   \      - P O W E R E D   B Y -                         
                 /     \                                                     
                 |  |  |   _    _      __       _____    __    __             
                 |  |  |  | |  | |    /  \     |  _  \  |  |  /  |          
                  \  \/   | |  | |   /    \    | | | |  |  | /  /          
                 / \  \   | |__| |  /  /\  \   | |_| |  |  |/  /          
                |  |  |   |  __  | /  /__\  \  |    /   |      \           
                |  |  |   | |  | | |   __   |  |    \   |  |\   \          
                \     /   | |  | | |  |  |  |  | |\  \  |  | \   \       
                 \___/    |_|  |_| |__|  |__|  |_| \__\ |__|  \__/        
                                                                              
                      - O R C A' S   B I G   F R I E N D -                    
                                      &                                       
                       - I N T E G R A L  F E E D E R -                       
                                                                              
 v1 FN, 2020, v2 2021, v3 2022-2024                                           
------------------------------------------------------------------------------


----------------------
SHARK INTEGRAL PACKAGE
----------------------

Number of atoms                             ...     24
Number of basis functions                   ...    210
Number of shells                            ...    102
Maximum angular momentum                    ...      2
Integral batch strategy                     ... SHARK/LIBINT Hybrid
RI-J (if used) integral strategy            ... SPLIT-RIJ (Revised 2003 algorithm where possible)
Printlevel                                  ...      1
Contraction scheme used                     ... SEGMENTED contraction
Prescreening option                         ... SCHWARTZ
   Thresh                                   ... 2.500e-11
   Tcut                                     ... 2.500e-12
   Tpresel                                  ... 2.500e-12 
Coulomb Range Separation                    ... NOT USED
Exchange Range Separation                   ... NOT USED
Multipole approximations                    ... NOT USED
Finite Nucleus Model                        ... NOT USED
CABS basis                                  ... NOT available
Auxiliary Coulomb fitting basis             ... NOT available
Auxiliary J/K fitting basis                 ... NOT available
Auxiliary Correlation fitting basis         ... NOT available
Auxiliary 'external' fitting basis          ... NOT available

Checking pre-screening integrals            ... done (  0.0 sec) Dimension = 102
   => SHARK Basis and OBASIS are compatible. Storing Pre-screening
Shell pair information
Shell pair cut-off parameter TPreSel        ...   2.5e-12
Total number of shell pairs                 ...      5253
Shell pairs after pre-screening             ...      4240
Total number of primitive shell pairs       ...     24562
Primitive shell pairs kept                  ...     12975
          la=0 lb=0:   1409 shell pairs
          la=1 lb=0:   1600 shell pairs
          la=1 lb=1:    472 shell pairs
          la=2 lb=0:    456 shell pairs
          la=2 lb=1:    262 shell pairs
          la=2 lb=2:     41 shell pairs

Checking whether 4 symmetric matrices of dimension 210 fit in memory
:Max Core in MB      =   4096.00
 MB in use           =      6.83
 MB left             =   4089.17
 MB needed           =      0.68
 Data fit in memory  = YES
Calculating Nuclear repulsion               ... done (  0.0 sec) ENN=    544.166216142536 Eh

Diagonalization of the overlap matrix:
Smallest eigenvalue                        ... 2.497e-03
Time for diagonalization                   ...    0.002 sec
Threshold for overlap eigenvalues          ... 1.000e-07
Number of eigenvalues below threshold      ... 0
Time for construction of square roots      ...    0.001 sec
Total time needed                          ...    0.003 sec

-------------------
DFT GRID GENERATION
-------------------

General Integration Accuracy     IntAcc      ... 4.388
Radial Grid Type                 RadialGrid  ... OptM3 with GC (2021)
Angular Grid (max. ang.)         AngularGrid ... 4 (Lebedev-302)
Angular grid pruning method      GridPruning ... 4 (adaptive)
Weight generation scheme         WeightScheme... mBecke (2022)
Basis function cutoff            BFCut       ... 1.0000e-11
Integration weight cutoff        WCut        ... 1.0000e-14
Partially contracted basis set               ... off
Rotationally invariant grid construction     ... off
Angular grids for H and He will be reduced by one unit

Total number of grid points                  ...   104962
Total number of batches                      ...     1653
Average number of points per batch           ...       63
Average number of grid points per atom       ...     4373
Grids setup in   0.4 sec
Initializing property integral containers    ... done (  0.0 sec)

SHARK setup successfully completed in   0.5 seconds

Maximum memory used throughout the entire STARTUP-calculation: 41.6 MB
-------------------------------------------------------------------------------
                                 ORCA GUESS
                   Start orbitals & Density for SCF / CASSCF
-------------------------------------------------------------------------------

------------
SCF SETTINGS
------------
Hamiltonian:
 Ab initio Hamiltonian  Method          .... Hartree-Fock(GTOs)


General Settings:
 Integral files         IntName         .... 0
 Hartree-Fock type      HFTyp           .... RHF
 Total Charge           Charge          ....    0
 Multiplicity           Mult            ....    1
 Number of Electrons    NEL             ....   80
 Basis Dimension        Dim             ....  210
 Nuclear Repulsion      ENuc            ....    544.1662161425 Eh

Convergence Acceleration:
 AO-DIIS                CNVDIIS         .... on
   Start iteration      DIISMaxIt       ....    12
   Startup error        DIISStart       ....  0.200000
   # of expansion vecs  DIISMaxEq       ....     5
   Bias factor          DIISBfac        ....   1.050
   Max. coefficient     DIISMaxC        ....  10.000
 MO-DIIS                CNVKDIIS        .... off
 Trust-Rad. Augm. Hess. CNVTRAH         .... auto
   Auto Start mean grad. ratio tolernc. ....  1.125000
   Auto Start start iteration           ....    50
   Auto Start num. interpolation iter.  ....    10
   Max. Number of Micro iterations      ....    24
   Max. Number of Macro iterations      .... Maxiter - #DIIS iter
   Number of Davidson start vectors     ....     2
   Converg. threshold    (grad. norm)   ....   1.000e-05
   Grad. Scal. Fac. for Micro threshold ....   0.100
   Minimum threshold for Micro iter.    ....   1.000e-02
   NR start threshold (gradient norm)   ....   1.000e-04
   Initial trust radius                 ....   0.400
   Minimum AH scaling param. (alpha)    ....   1.000
   Maximum AH scaling param. (alpha)    .... 1000.000
   Quad. conv. algorithm                .... NR
   White noise on init. David. guess    .... on
   Maximum white noise                  ....   0.010
   Pseudo random numbers                .... off
   Inactive MOs                         .... canonical
   Orbital update algorithm             .... Taylor
   Preconditioner                       .... Diag
   Full preconditioner red. dimension   ....   250
 SOSCF                 CNVSOSCF           .... on
   Start iteration     SOSCFMaxIt         ....   150
   Startup grad/error  SOSCFStart         ....  0.003300
   Hessian update      SOSCFHessUp        .... L-BFGS
   Autom. constraints  SOSCFAutoConstrain .... off
 Level Shifting         CNVShift        .... on
   Level shift para.    LevelShift      ....    0.2500
   Turn off err/grad.   ShiftErr        ....    0.0010
 Zerner damping         CNVZerner       .... off
 Static damping         CNVDamp         .... on
   Fraction old density DampFac         ....    0.7000
   Max. Damping (<1)    DampMax         ....    0.9800
   Min. Damping (>=0)   DampMin         ....    0.0000
   Turn off err/grad.   DampErr         ....    0.1000

SCF Procedure:
 Maximum # iterations   MaxIter         ....   125
 SCF integral mode      SCFMode         .... Direct
   Integral package                     .... SHARK and LIBINT hybrid scheme
 Reset frequency        DirectResetFreq ....    20
 Integral Threshold     Thresh          ....  2.500e-11 Eh
 Primitive CutOff       TCut            ....  2.500e-12 Eh

Convergence Tolerance:
 Convergence Check Mode ConvCheckMode   .... Total+1el-Energy
 Convergence forced     ConvForced      .... 1
 Energy Change          TolE            ....  1.000e-08 Eh
 1-El. energy change                    ....  1.000e-05 Eh
 Orbital Gradient       TolG            ....  1.000e-05
 Orbital Rotation angle TolX            ....  1.000e-05
 DIIS Error             TolErr          ....  5.000e-07

------------------------------
INITIAL GUESS: MODEL POTENTIAL
------------------------------
Loading Hartree-Fock densities                     ... done
Calculating cut-offs                               ... done
Initializing the effective Hamiltonian             ... done
Setting up the integral package (SHARK)            ... done
Starting the Coulomb interaction                   ... done (   0.1 sec)
Making the grid                                    ... done (   0.1 sec)
Mapping shells                                     ... done
Starting the XC term evaluation                    ... done (   0.1 sec)
Transforming the Hamiltonian                       ... done (   0.0 sec)
Diagonalizing the Hamiltonian                      ... done (   0.0 sec)
Back transforming the eigenvectors                 ... done (   0.0 sec)
Now organizing SCF variables                       ... done
                      ------------------
                      INITIAL GUESS DONE (   0.3 sec)
                      ------------------
             **** ENERGY FILE WAS UPDATED (0.en.tmp) ****
Finished Guess after   0.3 sec
Maximum memory used throughout the entire GUESS-calculation: 12.3 MB

-------------------------------------------------------------------------------------------
                                      ORCA LEAN-SCF
                              memory conserving SCF solver
-------------------------------------------------------------------------------------------

----------------------------------------D-I-I-S--------------------------------------------
Iteration    Energy (Eh)           Delta-E    RMSDP     MaxDP     DIISErr   Damp  Time(sec)
-------------------------------------------------------------------------------------------
               ***  Starting incremental Fock matrix formation  ***
    1    -493.5154406859501250     0.00e+00  2.42e-03  6.60e-02  2.60e-01  0.700   2.3
    2    -493.6984010769108409    -1.83e-01  1.83e-03  4.72e-02  1.63e-01  0.700   2.2
                               ***Turning on AO-DIIS***
    3    -493.8052317911558475    -1.07e-01  9.69e-04  2.19e-02  9.40e-02  0.700   2.2
    4    -493.8722270241282786    -6.70e-02  2.16e-03  4.71e-02  6.37e-02  0.000   2.2
    5    -494.0202148872633643    -1.48e-01  2.43e-04  6.34e-03  5.83e-03  0.000   2.2
                              *** Initializing SOSCF ***
---------------------------------------S-O-S-C-F--------------------------------------
Iteration    Energy (Eh)           Delta-E    RMSDP     MaxDP     MaxGrad    Time(sec)
--------------------------------------------------------------------------------------
    6    -494.0207644824934050    -5.50e-04  1.23e-04  2.58e-03  3.11e-03     2.0
               *** Restarting incremental Fock matrix formation ***
    7    -494.0208812094722362    -1.17e-04  7.22e-05  2.70e-03  1.62e-03     2.3
    8    -494.0209132933059664    -3.21e-05  7.00e-05  1.60e-03  5.23e-04     1.8
    9    -494.0209243358524418    -1.10e-05  1.16e-05  2.67e-04  1.55e-04     1.8
   10    -494.0209250708803665    -7.35e-07  6.99e-06  1.50e-04  5.45e-05     1.7
   11    -494.0209252133322479    -1.42e-07  1.62e-06  4.97e-05  1.30e-05     1.6
   12    -494.0209252250390364    -1.17e-08  4.23e-07  1.69e-05  4.01e-06     1.5
   13    -494.0209252270440174    -2.00e-09  1.59e-07  4.35e-06  1.12e-06     1.3
                 **** Energy Check signals convergence ****

               *****************************************************
               *                     SUCCESS                       *
               *           SCF CONVERGED AFTER  13 CYCLES          *
               *****************************************************

             **** ENERGY FILE WAS UPDATED (0.en.tmp) ****

----------------
TOTAL SCF ENERGY
----------------

Total Energy       :       -494.02092522865041 Eh          -13442.99280 eV

Components:
Nuclear Repulsion  :        544.16621614253609 Eh           14807.51554 eV
Electronic Energy  :      -1038.18714137118650 Eh          -28250.50834 eV
One Electron Energy:      -1753.35579880955402 Eh          -47711.23688 eV
Two Electron Energy:        715.16865743836752 Eh           19460.72853 eV

Virial components:
Potential Energy   :       -987.55185875436632 Eh          -26872.65226 eV
Kinetic Energy     :        493.53093352571591 Eh           13429.65945 eV
Virial Ratio       :          2.00099282875631

---------------
SCF CONVERGENCE
---------------

  Last Energy change         ...    2.0050e-09  Tolerance :   1.0000e-08
  Last MAX-Density change    ...    4.3467e-06  Tolerance :   1.0000e-07
  Last RMS-Density change    ...    1.5890e-07  Tolerance :   5.0000e-09
  Last DIIS Error            ...    3.1102e-03  Tolerance :   5.0000e-07
  Last Orbital Gradient      ...    1.1199e-06  Tolerance :   1.0000e-05
  Last Orbital Rotation      ...    2.1224e-06  Tolerance :   1.0000e-05


----------------
ORBITAL ENERGIES
----------------

  NO   OCC          E(Eh)            E(eV) 
   0   2.0000     -20.619548      -561.0864 
   1   2.0000     -20.555065      -559.3317 
   2   2.0000     -15.548721      -423.1022 
   3   2.0000     -15.534254      -422.7085 
   4   2.0000     -11.382981      -309.7467 
   5   2.0000     -11.274500      -306.7948 
   6   2.0000     -11.241183      -305.8881 
   7   2.0000     -11.231024      -305.6117 
   8   2.0000     -11.216009      -305.2031 
   9   2.0000     -11.215319      -305.1844 
  10   2.0000      -1.470010       -40.0010 
  11   2.0000      -1.363707       -37.1083 
  12   2.0000      -1.199938       -32.6520 
  13   2.0000      -1.175278       -31.9809 
  14   2.0000      -1.072120       -29.1739 
  15   2.0000      -1.001334       -27.2477 
  16   2.0000      -0.927815       -25.2471 
  17   2.0000      -0.846328       -23.0298 
  18   2.0000      -0.800699       -21.7881 
  19   2.0000      -0.795126       -21.6365 
  20   2.0000      -0.707939       -19.2640 
  21   2.0000      -0.699120       -19.0240 
  22   2.0000      -0.681609       -18.5475 
  23   2.0000      -0.671645       -18.2764 
  24   2.0000      -0.637286       -17.3414 
  25   2.0000      -0.622089       -16.9279 
  26   2.0000      -0.597228       -16.2514 
  27   2.0000      -0.587626       -15.9901 
  28   2.0000      -0.583237       -15.8707 
  29   2.0000      -0.560132       -15.2420 
  30   2.0000      -0.537214       -14.6183 
  31   2.0000      -0.511727       -13.9248 
  32   2.0000      -0.503279       -13.6949 
  33   2.0000      -0.490938       -13.3591 
  34   2.0000      -0.480959       -13.0876 
  35   2.0000      -0.471914       -12.8414 
  36   2.0000      -0.469167       -12.7667 
  37   2.0000      -0.449913       -12.2428 
  38   2.0000      -0.402068       -10.9408 
  39   2.0000      -0.373193       -10.1551 
  40   0.0000       0.185207         5.0397 
  41   0.0000       0.216296         5.8857 
  42   0.0000       0.222721         6.0605 
  43   0.0000       0.231879         6.3098 
  44   0.0000       0.251768         6.8510 
  45   0.0000       0.256927         6.9913 
  46   0.0000       0.274552         7.4709 
  47   0.0000       0.288645         7.8544 
  48   0.0000       0.307173         8.3586 
  49   0.0000       0.326554         8.8860 
  50   0.0000       0.337859         9.1936 
*Only the first 10 virtual orbitals were printed.

                    ********************************
                    * MULLIKEN POPULATION ANALYSIS *
                    ********************************

-----------------------
MULLIKEN ATOMIC CHARGES
-----------------------
   0 C :   -0.021464
   1 C :   -0.225755
   2 H :    0.257646
   3 H :    0.258069
   4 N :   -0.699459
   5 C :   -0.216650
   6 H :    0.097589
   7 H :    0.099925
   8 C :   -0.227911
   9 H :    0.150164
  10 H :    0.108047
  11 C :   -0.036234
  12 H :    0.139926
  13 H :    0.118516
  14 C :    0.780065
  15 H :    0.372401
  16 N :   -0.676226
  17 O :   -0.637037
  18 H :    0.113733
  19 H :    0.116617
  20 H :    0.280487
  21 O :   -0.586187
  22 H :    0.156299
  23 H :    0.277440
Sum of atomic charges:    0.0000000

--------------------------------
MULLIKEN REDUCED ORBITAL CHARGES
--------------------------------
  0 C s       :     3.190307  s :     3.190307
      pz      :     0.921590  p :     2.765370
      px      :     0.812615
      py      :     1.031165
      dz2     :     0.012731  d :     0.065788
      dxz     :     0.014381
      dyz     :     0.011577
      dx2y2   :     0.018964
      dxy     :     0.008135

  1 C s       :     3.239080  s :     3.239080
      pz      :     0.990678  p :     2.938259
      px      :     0.922672
      py      :     1.024909
      dz2     :     0.009289  d :     0.048416
      dxz     :     0.009908
      dyz     :     0.009774
      dx2y2   :     0.013570
      dxy     :     0.005876

  2 H s       :     0.716245  s :     0.716245
      pz      :     0.004776  p :     0.026109
      px      :     0.006543
      py      :     0.014790

  3 H s       :     0.715817  s :     0.715817
      pz      :     0.012539  p :     0.026114
      px      :     0.006660
      py      :     0.006915

  4 N s       :     3.606206  s :     3.606206
      pz      :     1.248764  p :     4.058517
      px      :     1.650789
      py      :     1.158964
      dz2     :     0.007980  d :     0.034736
      dxz     :     0.005655
      dyz     :     0.008443
      dx2y2   :     0.007337
      dxy     :     0.005321

  5 C s       :     3.233245  s :     3.233245
      pz      :     0.980057  p :     2.934494
      px      :     0.891690
      py      :     1.062746
      dz2     :     0.009451  d :     0.048912
      dxz     :     0.010153
      dyz     :     0.009646
      dx2y2   :     0.013786
      dxy     :     0.005876

  6 H s       :     0.890110  s :     0.890110
      pz      :     0.001994  p :     0.012301
      px      :     0.002130
      py      :     0.008177

  7 H s       :     0.887746  s :     0.887746
      pz      :     0.007079  p :     0.012330
      px      :     0.001715
      py      :     0.003536

  8 C s       :     3.235060  s :     3.235060
      pz      :     0.984870  p :     2.944284
      px      :     0.925971
      py      :     1.033442
      dz2     :     0.010467  d :     0.048567
      dxz     :     0.009787
      dyz     :     0.008313
      dx2y2   :     0.012234
      dxy     :     0.007766

  9 H s       :     0.837006  s :     0.837006
      pz      :     0.001992  p :     0.012829
      px      :     0.001934
      py      :     0.008904

 10 H s       :     0.879535  s :     0.879535
      pz      :     0.007205  p :     0.012418
      px      :     0.001692
      py      :     0.003521

 11 C s       :     3.205412  s :     3.205412
      pz      :     1.055866  p :     2.760222
      px      :     0.884211
      py      :     0.820146
      dz2     :     0.012696  d :     0.070601
      dxz     :     0.009623
      dyz     :     0.013491
      dx2y2   :     0.021121
      dxy     :     0.013670

 12 H s       :     0.847581  s :     0.847581
      pz      :     0.001778  p :     0.012493
      px      :     0.002198
      py      :     0.008516

 13 H s       :     0.869137  s :     0.869137
      pz      :     0.007592  p :     0.012347
      px      :     0.001619
      py      :     0.003135

 14 C s       :     2.951040  s :     2.951040
      pz      :     0.665810  p :     2.122936
      px      :     0.832145
      py      :     0.624980
      dz2     :     0.017126  d :     0.145959
      dxz     :     0.016134
      dyz     :     0.027159
      dx2y2   :     0.051225
      dxy     :     0.034315

 15 H s       :     0.586096  s :     0.586096
      pz      :     0.011325  p :     0.041503
      px      :     0.023759
      py      :     0.006419

 16 N s       :     3.599793  s :     3.599793
      pz      :     1.249259  p :     4.042001
      px      :     1.704781
      py      :     1.087961
      dz2     :     0.006321  d :     0.034433
      dxz     :     0.006731
      dyz     :     0.008071
      dx2y2   :     0.005687
      dxy     :     0.007622

 17 O s       :     3.836560  s :     3.836560
      pz      :     1.798562  p :     4.775165
      px      :     1.474706
      py      :     1.501896
      dz2     :     0.002809  d :     0.025312
      dxz     :     0.003595
      dyz     :     0.004476
      dx2y2   :     0.011401
      dxy     :     0.003030

 18 H s       :     0.874251  s :     0.874251
      pz      :     0.007063  p :     0.012016
      px      :     0.001501
      py      :     0.003451

 19 H s       :     0.871353  s :     0.871353
      pz      :     0.001818  p :     0.012030
      px      :     0.001905
      py      :     0.008308

 20 H s       :     0.693436  s :     0.693436
      pz      :     0.013013  p :     0.026077
      px      :     0.006891
      py      :     0.006173

 21 O s       :     3.871603  s :     3.871603
      pz      :     1.463348  p :     4.681899
      px      :     1.632788
      py      :     1.585764
      dz2     :     0.006475  d :     0.032685
      dxz     :     0.004215
      dyz     :     0.007541
      dx2y2   :     0.005826
      dxy     :     0.008628

 22 H s       :     0.831569  s :     0.831569
      pz      :     0.007899  p :     0.012131
      px      :     0.001647
      py      :     0.002586

 23 H s       :     0.696458  s :     0.696458
      pz      :     0.009877  p :     0.026102
      px      :     0.010061
      py      :     0.006164



                     *******************************
                     * LOEWDIN POPULATION ANALYSIS *
                     *******************************

----------------------
LOEWDIN ATOMIC CHARGES
----------------------
   0 C :   -0.042867
   1 C :   -0.130828
   2 H :    0.121981
   3 H :    0.122181
   4 N :   -0.299251
   5 C :   -0.111966
   6 H :    0.052868
   7 H :    0.054188
   8 C :   -0.105513
   9 H :    0.074323
  10 H :    0.058406
  11 C :   -0.026340
  12 H :    0.070421
  13 H :    0.062624
  14 C :    0.227766
  15 H :    0.201462
  16 N :   -0.273402
  17 O :   -0.210708
  18 H :    0.059420
  19 H :    0.060731
  20 H :    0.134012
  21 O :   -0.311802
  22 H :    0.080236
  23 H :    0.132058

-------------------------------
LOEWDIN REDUCED ORBITAL CHARGES
-------------------------------
  0 C s       :     2.879573  s :     2.879573
      pz      :     1.007920  p :     3.035749
      px      :     0.968134
      py      :     1.059695
      dz2     :     0.024736  d :     0.127545
      dxz     :     0.029191
      dyz     :     0.020592
      dx2y2   :     0.037338
      dxy     :     0.015689

  1 C s       :     2.900047  s :     2.900047
      pz      :     1.052870  p :     3.138778
      px      :     1.023725
      py      :     1.062183
      dz2     :     0.017044  d :     0.092003
      dxz     :     0.020199
      dyz     :     0.017291
      dx2y2   :     0.025718
      dxy     :     0.011750

  2 H s       :     0.797051  s :     0.797051
      pz      :     0.014867  p :     0.080968
      px      :     0.022682
      py      :     0.043419

  3 H s       :     0.796823  s :     0.796823
      pz      :     0.038411  p :     0.080996
      px      :     0.022414
      py      :     0.020171

  4 N s       :     3.190868  s :     3.190868
      pz      :     1.260642  p :     4.047072
      px      :     1.621093
      py      :     1.165337
      dz2     :     0.014109  d :     0.061312
      dxz     :     0.009771
      dyz     :     0.015388
      dx2y2   :     0.013885
      dxy     :     0.008159

  5 C s       :     2.885857  s :     2.885857
      pz      :     1.049084  p :     3.133357
      px      :     1.001663
      py      :     1.082610
      dz2     :     0.017304  d :     0.092752
      dxz     :     0.020882
      dyz     :     0.016657
      dx2y2   :     0.026076
      dxy     :     0.011833

  6 H s       :     0.908318  s :     0.908318
      pz      :     0.007382  p :     0.038814
      px      :     0.007858
      py      :     0.023575

  7 H s       :     0.906948  s :     0.906948
      pz      :     0.020865  p :     0.038864
      px      :     0.006761
      py      :     0.011238

  8 C s       :     2.891782  s :     2.891782
      pz      :     1.045096  p :     3.122023
      px      :     1.013516
      py      :     1.063411
      dz2     :     0.018862  d :     0.091708
      dxz     :     0.020035
      dyz     :     0.014556
      dx2y2   :     0.023067
      dxy     :     0.015187

  9 H s       :     0.884320  s :     0.884320
      pz      :     0.007398  p :     0.041357
      px      :     0.007448
      py      :     0.026511

 10 H s       :     0.902440  s :     0.902440
      pz      :     0.021172  p :     0.039155
      px      :     0.006510
      py      :     0.011473

 11 C s       :     2.869337  s :     2.869337
      pz      :     1.065298  p :     3.015662
      px      :     0.997281
      py      :     0.953083
      dz2     :     0.023614  d :     0.141342
      dxz     :     0.019858
      dyz     :     0.025040
      dx2y2   :     0.043661
      dxy     :     0.029168

 12 H s       :     0.889261  s :     0.889261
      pz      :     0.006832  p :     0.040317
      px      :     0.008202
      py      :     0.025283

 13 H s       :     0.897707  s :     0.897707
      pz      :     0.022559  p :     0.039669
      px      :     0.006710
      py      :     0.010400

 14 C s       :     2.848936  s :     2.848936
      pz      :     0.743139  p :     2.606524
      px      :     0.970328
      py      :     0.893057
      dz2     :     0.034206  d :     0.316774
      dxz     :     0.033252
      dyz     :     0.058819
      dx2y2   :     0.116911
      dxy     :     0.073585

 15 H s       :     0.678230  s :     0.678230
      pz      :     0.034189  p :     0.120308
      px      :     0.065848
      py      :     0.020272

 16 N s       :     3.186093  s :     3.186093
      pz      :     1.230599  p :     4.026181
      px      :     1.658467
      py      :     1.137115
      dz2     :     0.010856  d :     0.061128
      dxz     :     0.008544
      dyz     :     0.017675
      dx2y2   :     0.011064
      dxy     :     0.012990

 17 O s       :     3.457602  s :     3.457602
      pz      :     1.751610  p :     4.705077
      px      :     1.442947
      py      :     1.510520
      dz2     :     0.005244  d :     0.048029
      dxz     :     0.005543
      dyz     :     0.006841
      dx2y2   :     0.020255
      dxy     :     0.010146

 18 H s       :     0.902770  s :     0.902770
      pz      :     0.021130  p :     0.037810
      px      :     0.005383
      py      :     0.011296

 19 H s       :     0.901350  s :     0.901350
      pz      :     0.006971  p :     0.037919
      px      :     0.006645
      py      :     0.024303

 20 H s       :     0.784201  s :     0.784201
      pz      :     0.039648  p :     0.081787
      px      :     0.022957
      py      :     0.019181

 21 O s       :     3.548104  s :     3.548104
      pz      :     1.459175  p :     4.706490
      px      :     1.638250
      py      :     1.609065
      dz2     :     0.007909  d :     0.057208
      dxz     :     0.008259
      dyz     :     0.012712
      dx2y2   :     0.011087
      dxy     :     0.017241

 22 H s       :     0.880142  s :     0.880142
      pz      :     0.023857  p :     0.039622
      px      :     0.006560
      py      :     0.009205

 23 H s       :     0.786318  s :     0.786318
      pz      :     0.028901  p :     0.081624
      px      :     0.033921
      py      :     0.018801



                      *****************************
                      * MAYER POPULATION ANALYSIS *
                      *****************************

  NA   - Mulliken gross atomic population
  ZA   - Total nuclear charge
  QA   - Mulliken gross atomic charge
  VA   - Mayer's total valence
  BVA  - Mayer's bonded valence
  FA   - Mayer's free valence

  ATOM       NA         ZA         QA         VA         BVA        FA
  0 C      6.0215     6.0000    -0.0215     3.8007     3.8007     0.0000
  1 C      6.2258     6.0000    -0.2258     3.7975     3.7975    -0.0000
  2 H      0.7424     1.0000     0.2576     0.9103     0.9103     0.0000
  3 H      0.7419     1.0000     0.2581     0.9101     0.9101     0.0000
  4 N      7.6995     7.0000    -0.6995     2.7556     2.7556     0.0000
  5 C      6.2167     6.0000    -0.2167     3.7918     3.7918    -0.0000
  6 H      0.9024     1.0000     0.0976     0.9524     0.9524     0.0000
  7 H      0.9001     1.0000     0.0999     0.9527     0.9527     0.0000
  8 C      6.2279     6.0000    -0.2279     3.7854     3.7854     0.0000
  9 H      0.8498     1.0000     0.1502     0.9500     0.9500    -0.0000
 10 H      0.8920     1.0000     0.1080     0.9508     0.9508    -0.0000
 11 C      6.0362     6.0000    -0.0362     3.7508     3.7508     0.0000
 12 H      0.8601     1.0000     0.1399     0.9483     0.9483     0.0000
 13 H      0.8815     1.0000     0.1185     0.9514     0.9514     0.0000
 14 C      5.2199     6.0000     0.7801     3.7010     3.7010    -0.0000
 15 H      0.6276     1.0000     0.3724     0.8717     0.8717     0.0000
 16 N      7.6762     7.0000    -0.6762     2.7707     2.7707     0.0000
 17 O      8.6370     8.0000    -0.6370     1.8185     1.8185     0.0000
 18 H      0.8863     1.0000     0.1137     0.9480     0.9480    -0.0000
 19 H      0.8834     1.0000     0.1166     0.9479     0.9479    -0.0000
 20 H      0.7195     1.0000     0.2805     0.9066     0.9066    -0.0000
 21 O      8.5862     8.0000    -0.5862     1.9012     1.9012    -0.0000
 22 H      0.8437     1.0000     0.1563     0.9415     0.9415     0.0000
 23 H      0.7226     1.0000     0.2774     0.9043     0.9043     0.0000

  Mayer bond orders larger than 0.100000
B(  0-C ,  1-C ) :   0.9627 B(  0-C ,  4-N ) :   0.9445 B(  0-C , 18-H ) :   0.9737 
B(  0-C , 19-H ) :   0.9732 B(  1-C ,  5-C ) :   0.9661 B(  1-C ,  6-H ) :   0.9729 
B(  1-C ,  7-H ) :   0.9731 B(  2-H ,  4-N ) :   0.9157 B(  3-H ,  4-N ) :   0.9155 
B(  5-C ,  8-C ) :   0.9706 B(  5-C ,  9-H ) :   0.9628 B(  5-C , 10-H ) :   0.9740 
B(  8-C , 11-C ) :   0.9584 B(  8-C , 12-H ) :   0.9674 B(  8-C , 13-H ) :   0.9682 
B( 11-C , 14-C ) :   0.9226 B( 11-C , 16-N ) :   0.9875 B( 11-C , 22-H ) :   0.9552 
B( 14-C , 17-O ) :   0.9677 B( 14-C , 21-O ) :   1.8367 B( 15-H , 17-O ) :   0.8400 
B( 16-N , 20-H ) :   0.8994 B( 16-N , 23-H ) :   0.9086 

-------
TIMINGS
-------

Total SCF time: 0 days 0 hours 0 min 26 sec 

Total time                  ....      26.149 sec
Sum of individual times     ....      24.997 sec  ( 95.6%)

SCF preparation             ....       0.017 sec  (  0.1%)
Fock matrix formation       ....      24.906 sec  ( 95.2%)
  Startup                   ....       0.001 sec  (  0.0% of F)
  Coulomb+Exchange Fock     ....      26.041 sec  (104.6% of F)
Diagonalization             ....       0.000 sec  (  0.0%)
Density matrix formation    ....       0.006 sec  (  0.0%)
Total Energy calculation    ....       0.001 sec  (  0.0%)
Population analysis         ....       0.003 sec  (  0.0%)
Orbital Transformation      ....       0.008 sec  (  0.0%)
Orbital Orthonormalization  ....       0.000 sec  (  0.0%)
DIIS solution               ....       0.034 sec  (  0.1%)
SOSCF solution              ....       0.021 sec  (  0.1%)
Finished LeanSCF after  26.2 sec

Maximum memory used throughout the entire LEANSCF-calculation: 15.9 MB

------------------------------------------------------------------------------
                                ORCA  MP2 
------------------------------------------------------------------------------

Freezing NCore=20 chemical core electrons
MP2 will be done in the AO integral direct mode
The Q1-step will be done using symmetric double matrices
Dimension of the basis                    ...  210
Memory devoted for MP2                    ... 4096 MB   
Memory needed for all in one shot         ... 1066 MB
Number of MOs that can be treated together...  114      
MP2 density construction                  ... relaxed
The MP2 gradient is requested => amplitudes will be stored on disk
Total number of MOs              ...   30
Number of MOs treated per batch  ...   30 
Number of batches necessary      ...    1 
OPERATORS   0/  0 PASS   0
-----------------------------------------------
 MP2 CORRELATION ENERGY   :     -1.530578121 Eh
-----------------------------------------------


---------------------
MP2 DENSITY FORMATION
---------------------

Completing the external part of the density      ... done
Storing the unrelaxed density                    ... done

Calculating G(D)                                 ... done
Completing the Lagrangian                        ... done
Solving the Z-vector equations                   ... 
-------------------
SHARK CP-SCF DRIVER
-------------------

Dimension of the orbital basis          ...    210
Dimension of the CPSCF-problem          ...   6800
Number of operators                     ...      1
Max. number of iterations               ...    128
Convergence Tolerance                   ... 1.0e-04
Number of perturbations                 ...      1
Perturbation type                       ... REAL

----------------------------
POPLE LINEAR EQUATION SOLVER
----------------------------

  ITERATION   0:   ||err||_max =   1.2656e-01 (   2.9 sec)
  ITERATION   1:   ||err||_max =   3.3436e-02 (   3.0 sec)
  ITERATION   2:   ||err||_max =   1.4405e-02 (   3.0 sec)
  ITERATION   3:   ||err||_max =   3.3798e-03 (   3.0 sec)
  ITERATION   4:   ||err||_max =   1.3100e-03 (   3.0 sec)
  ITERATION   5:   ||err||_max =   3.0277e-04 (   2.9 sec)
  ITERATION   6:   ||err||_max =   9.2776e-05 (   3.0 sec)
                                                 ... done
Finalizing the relaxed density                   ... done
Transforming P to the AO basis                   ... done
Storing the relaxed density                      ... done

------------------------------------
ENERGY WEIGHTED DENSITY FINALIZATION
------------------------------------

Gathering the parts of the W-matrix              ...                                                      done
Forming the Z-density                            ... done
Transforming Z to the AO basis                   ... done
Calculating G(Z)                                 ... done
Finalizing the W-matrix                          ...                                                      done
Transforming W to the AO basis and storing       ... done

                *********************************************
                * UNRELAXED MP2 DENSITY POPULATION ANALYSIS *
                *********************************************

------------------------------------------------------------------------------
                           ORCA POPULATION ANALYSIS
------------------------------------------------------------------------------
Input electron density              ... 0.pmp2ur
BaseName (.gbw .S,...)              ... 0

                    ********************************
                    * MULLIKEN POPULATION ANALYSIS *
                    ********************************

-----------------------
MULLIKEN ATOMIC CHARGES
-----------------------
   0 C :   -0.027908
   1 C :   -0.227937
   2 H :    0.256503
   3 H :    0.256926
   4 N :   -0.692430
   5 C :   -0.218512
   6 H :    0.098559
   7 H :    0.100884
   8 C :   -0.229537
   9 H :    0.150532
  10 H :    0.109018
  11 C :   -0.041405
  12 H :    0.140570
  13 H :    0.119375
  14 C :    0.747072
  15 H :    0.369191
  16 N :   -0.668430
  17 O :   -0.623508
  18 H :    0.114746
  19 H :    0.117607
  20 H :    0.278913
  21 O :   -0.563378
  22 H :    0.156948
  23 H :    0.276200
Sum of atomic charges:    0.0000000

--------------------------------
MULLIKEN REDUCED ORBITAL CHARGES
--------------------------------
  0 C s       :     3.187733  s :     3.187733
      pz      :     0.920152  p :     2.759858
      px      :     0.811642
      py      :     1.028064
      dz2     :     0.015739  d :     0.080317
      dxz     :     0.017090
      dyz     :     0.014439
      dx2y2   :     0.021688
      dxy     :     0.011361
  1 C s       :     3.235518  s :     3.235518
      pz      :     0.987308  p :     2.927845
      px      :     0.919093
      py      :     1.021444
      dz2     :     0.012618  d :     0.064574
      dxz     :     0.013061
      dyz     :     0.012869
      dx2y2   :     0.016645
      dxy     :     0.009381
  2 H s       :     0.715310  s :     0.715310
      pz      :     0.005634  p :     0.028188
      px      :     0.007442
      py      :     0.015111
  3 H s       :     0.714884  s :     0.714884
      pz      :     0.013033  p :     0.028191
      px      :     0.007557
      py      :     0.007600
  4 N s       :     3.601508  s :     3.601508
      pz      :     1.241868  p :     4.034509
      px      :     1.638741
      py      :     1.153900
      dz2     :     0.012349  d :     0.056413
      dxz     :     0.010077
      dyz     :     0.012505
      dx2y2   :     0.011742
      dxy     :     0.009739
  5 C s       :     3.229909  s :     3.229909
      pz      :     0.976581  p :     2.923465
      px      :     0.888469
      py      :     1.058415
      dz2     :     0.012787  d :     0.065137
      dxz     :     0.013280
      dyz     :     0.012809
      dx2y2   :     0.016858
      dxy     :     0.009403
  6 H s       :     0.886274  s :     0.886274
      pz      :     0.003050  p :     0.015166
      px      :     0.003197
      py      :     0.008920
  7 H s       :     0.883925  s :     0.883925
      pz      :     0.007897  p :     0.015190
      px      :     0.002801
      py      :     0.004492
  8 C s       :     3.231721  s :     3.231721
      pz      :     0.981426  p :     2.932981
      px      :     0.922171
      py      :     1.029384
      dz2     :     0.013756  d :     0.064835
      dxz     :     0.012975
      dyz     :     0.011494
      dx2y2   :     0.015398
      dxy     :     0.011211
  9 H s       :     0.833877  s :     0.833877
      pz      :     0.003030  p :     0.015591
      px      :     0.003006
      py      :     0.009555
 10 H s       :     0.875712  s :     0.875712
      pz      :     0.008010  p :     0.015270
      px      :     0.002778
      py      :     0.004482
 11 C s       :     3.202254  s :     3.202254
      pz      :     1.050789  p :     2.753010
      px      :     0.882170
      py      :     0.820051
      dz2     :     0.015904  d :     0.086140
      dxz     :     0.012864
      dyz     :     0.016629
      dx2y2   :     0.023768
      dxy     :     0.016974
 12 H s       :     0.844154  s :     0.844154
      pz      :     0.002829  p :     0.015275
      px      :     0.003249
      py      :     0.009197
 13 H s       :     0.865437  s :     0.865437
      pz      :     0.008367  p :     0.015188
      px      :     0.002707
      py      :     0.004114
 14 C s       :     2.952633  s :     2.952633
      pz      :     0.678707  p :     2.143806
      px      :     0.833732
      py      :     0.631366
      dz2     :     0.019026  d :     0.156489
      dxz     :     0.018459
      dyz     :     0.029098
      dx2y2   :     0.053381
      dxy     :     0.036525
 15 H s       :     0.588156  s :     0.588156
      pz      :     0.011866  p :     0.042652
      px      :     0.023770
      py      :     0.007016
 16 N s       :     3.595211  s :     3.595211
      pz      :     1.242957  p :     4.016781
      px      :     1.691866
      py      :     1.081958
      dz2     :     0.010501  d :     0.056438
      dxz     :     0.011212
      dyz     :     0.012354
      dx2y2   :     0.010115
      dxy     :     0.012256
 17 O s       :     3.832392  s :     3.832392
      pz      :     1.785583  p :     4.742829
      px      :     1.465498
      py      :     1.491749
      dz2     :     0.007346  d :     0.048288
      dxz     :     0.008194
      dyz     :     0.009218
      dx2y2   :     0.015867
      dxy     :     0.007663
 18 H s       :     0.870439  s :     0.870439
      pz      :     0.007848  p :     0.014815
      px      :     0.002576
      py      :     0.004391
 19 H s       :     0.867571  s :     0.867571
      pz      :     0.002857  p :     0.014823
      px      :     0.002954
      py      :     0.009012
 20 H s       :     0.692986  s :     0.692986
      pz      :     0.013398  p :     0.028101
      px      :     0.007789
      py      :     0.006914
 21 O s       :     3.867048  s :     3.867048
      pz      :     1.448481  p :     4.642046
      px      :     1.619410
      py      :     1.574155
      dz2     :     0.010682  d :     0.054284
      dxz     :     0.008533
      dyz     :     0.011714
      dx2y2   :     0.010527
      dxy     :     0.012827
 22 H s       :     0.828213  s :     0.828213
      pz      :     0.008599  p :     0.014839
      px      :     0.002693
      py      :     0.003547
 23 H s       :     0.695681  s :     0.695681
      pz      :     0.010429  p :     0.028119
      px      :     0.010789
      py      :     0.006902


                     *******************************
                     * LOEWDIN POPULATION ANALYSIS *
                     *******************************

----------------------
LOEWDIN ATOMIC CHARGES
----------------------
   0 C :   -0.045893
   1 C :   -0.131591
   2 H :    0.121309
   3 H :    0.121511
   4 N :   -0.295243
   5 C :   -0.112463
   6 H :    0.053119
   7 H :    0.054442
   8 C :   -0.106086
   9 H :    0.074351
  10 H :    0.058696
  11 C :   -0.029755
  12 H :    0.070588
  13 H :    0.062907
  14 C :    0.203690
  15 H :    0.199091
  16 N :   -0.268767
  17 O :   -0.202174
  18 H :    0.059764
  19 H :    0.061071
  20 H :    0.133130
  21 O :   -0.293425
  22 H :    0.080360
  23 H :    0.131370

-------------------------------
LOEWDIN REDUCED ORBITAL CHARGES
-------------------------------
  0 C s       :     2.879450  s :     2.879450
      pz      :     1.003887  p :     3.022462
      px      :     0.963854
      py      :     1.054721
      dz2     :     0.027971  d :     0.143981
      dxz     :     0.032360
      dyz     :     0.023880
      dx2y2   :     0.040588
      dxy     :     0.019182
  1 C s       :     2.899653  s :     2.899653
      pz      :     1.047194  p :     3.121383
      px      :     1.017437
      py      :     1.056752
      dz2     :     0.020749  d :     0.110555
      dxz     :     0.023913
      dyz     :     0.020866
      dx2y2   :     0.029488
      dxy     :     0.015538
  2 H s       :     0.793947  s :     0.793947
      pz      :     0.015925  p :     0.084744
      px      :     0.023660
      py      :     0.045160
  3 H s       :     0.793719  s :     0.793719
      pz      :     0.040129  p :     0.084770
      px      :     0.023310
      py      :     0.021332
  4 N s       :     3.188919  s :     3.188919
      pz      :     1.253041  p :     4.021556
      px      :     1.609140
      py      :     1.159374
      dz2     :     0.018778  d :     0.084769
      dxz     :     0.014650
      dyz     :     0.019840
      dx2y2   :     0.018725
      dxy     :     0.012776
  5 C s       :     2.885569  s :     2.885569
      pz      :     1.043310  p :     3.115463
      px      :     0.995512
      py      :     1.076641
      dz2     :     0.021033  d :     0.111431
      dxz     :     0.024575
      dyz     :     0.020297
      dx2y2   :     0.029875
      dxy     :     0.015651
  6 H s       :     0.903191  s :     0.903191
      pz      :     0.008737  p :     0.043689
      px      :     0.009243
      py      :     0.025709
  7 H s       :     0.901826  s :     0.901826
      pz      :     0.022894  p :     0.043732
      px      :     0.008100
      py      :     0.012738
  8 C s       :     2.891432  s :     2.891432
      pz      :     1.039444  p :     3.104172
      px      :     1.007162
      py      :     1.057566
      dz2     :     0.022630  d :     0.110482
      dxz     :     0.023726
      dyz     :     0.018188
      dx2y2   :     0.026943
      dxy     :     0.018994
  9 H s       :     0.879544  s :     0.879544
      pz      :     0.008737  p :     0.046105
      px      :     0.008860
      py      :     0.028508
 10 H s       :     0.897268  s :     0.897268
      pz      :     0.023185  p :     0.044036
      px      :     0.007867
      py      :     0.012984
 11 C s       :     2.869606  s :     2.869606
      pz      :     1.058903  p :     3.000839
      px      :     0.992446
      py      :     0.949490
      dz2     :     0.027421  d :     0.159310
      dxz     :     0.023690
      dyz     :     0.028536
      dx2y2   :     0.046924
      dxy     :     0.032738
 12 H s       :     0.884301  s :     0.884301
      pz      :     0.008162  p :     0.045111
      px      :     0.009625
      py      :     0.027324
 13 H s       :     0.892564  s :     0.892564
      pz      :     0.024587  p :     0.044529
      px      :     0.008062
      py      :     0.011880
 14 C s       :     2.849631  s :     2.849631
      pz      :     0.754174  p :     2.618446
      px      :     0.969242
      py      :     0.895030
      dz2     :     0.036553  d :     0.328234
      dxz     :     0.036078
      dyz     :     0.060880
      dx2y2   :     0.118485
      dxy     :     0.076238
 15 H s       :     0.678138  s :     0.678138
      pz      :     0.034916  p :     0.122771
      px      :     0.066854
      py      :     0.021001
 16 N s       :     3.184205  s :     3.184205
      pz      :     1.223759  p :     3.999425
      px      :     1.645625
      py      :     1.130041
      dz2     :     0.015372  d :     0.085137
      dxz     :     0.013365
      dyz     :     0.022336
      dx2y2   :     0.016080
      dxy     :     0.017983
 17 O s       :     3.455686  s :     3.455686
      pz      :     1.739112  p :     4.673990
      px      :     1.433903
      py      :     1.500975
      dz2     :     0.010043  d :     0.072499
      dxz     :     0.010327
      dyz     :     0.011719
      dx2y2   :     0.025477
      dxy     :     0.014934
 18 H s       :     0.897696  s :     0.897696
      pz      :     0.023066  p :     0.042540
      px      :     0.006699
      py      :     0.012775
 19 H s       :     0.896292  s :     0.896292
      pz      :     0.008300  p :     0.042637
      px      :     0.008004
      py      :     0.026333
 20 H s       :     0.781393  s :     0.781393
      pz      :     0.041220  p :     0.085477
      px      :     0.023878
      py      :     0.020379
 21 O s       :     3.545122  s :     3.545122
      pz      :     1.444773  p :     4.666946
      px      :     1.624915
      py      :     1.597258
      dz2     :     0.012476  d :     0.081357
      dxz     :     0.012949
      dyz     :     0.017566
      dx2y2   :     0.015965
      dxy     :     0.022401
 22 H s       :     0.875221  s :     0.875221
      pz      :     0.025766  p :     0.044419
      px      :     0.007937
[...]
  1 C s       :     2.900958  s :     2.900958
      pz      :     1.052709  p :     3.136159
      px      :     1.020417
      py      :     1.063034
      dz2     :     0.020912  d :     0.105085
      dxz     :     0.021607
      dyz     :     0.019040
      dx2y2   :     0.027659
      dxy     :     0.015868
  2 H s       :     0.795610  s :     0.795610
      pz      :     0.015914  p :     0.083456
      px      :     0.024165
      py      :     0.043377
  3 H s       :     0.795343  s :     0.795343
      pz      :     0.040031  p :     0.083467
      px      :     0.023253
      py      :     0.020183
  4 N s       :     3.202228  s :     3.202228
      pz      :     1.244057  p :     3.998324
      px      :     1.592701
      py      :     1.161567
      dz2     :     0.019182  d :     0.082192
      dxz     :     0.013926
      dyz     :     0.018105
      dx2y2   :     0.017455
      dxy     :     0.013524
  5 C s       :     2.887402  s :     2.887402
      pz      :     1.048170  p :     3.129399
      px      :     0.999647
      py      :     1.081581
      dz2     :     0.020767  d :     0.104991
      dxz     :     0.022160
      dyz     :     0.018677
      dx2y2   :     0.027570
      dxy     :     0.015818
  6 H s       :     0.899017  s :     0.899017
      pz      :     0.008925  p :     0.043512
      px      :     0.009446
      py      :     0.025141
  7 H s       :     0.897611  s :     0.897611
      pz      :     0.022983  p :     0.043523
      px      :     0.008247
      py      :     0.012293
  8 C s       :     2.893988  s :     2.893988
      pz      :     1.045470  p :     3.116415
      px      :     1.006360
      py      :     1.064585
      dz2     :     0.021240  d :     0.104719
      dxz     :     0.022268
      dyz     :     0.017451
      dx2y2   :     0.025774
      dxy     :     0.017987
  9 H s       :     0.877496  s :     0.877496
      pz      :     0.008918  p :     0.045626
      px      :     0.009095
      py      :     0.027614
 10 H s       :     0.893379  s :     0.893379
      pz      :     0.023043  p :     0.043551
      px      :     0.007963
      py      :     0.012544
 11 C s       :     2.873316  s :     2.873316
      pz      :     1.062175  p :     3.023622
      px      :     1.008391
      py      :     0.953056
      dz2     :     0.025784  d :     0.151679
      dxz     :     0.022864
      dyz     :     0.027541
      dx2y2   :     0.042971
      dxy     :     0.032518
 12 H s       :     0.882516  s :     0.882516
      pz      :     0.008688  p :     0.044723
      px      :     0.009620
      py      :     0.026416
 13 H s       :     0.889333  s :     0.889333
      pz      :     0.023728  p :     0.043985
      px      :     0.008153
      py      :     0.012105
 14 C s       :     2.861840  s :     2.861840
      pz      :     0.824896  p :     2.689268
      px      :     0.971666
      py      :     0.892706
      dz2     :     0.033621  d :     0.305000
      dxz     :     0.035215
      dyz     :     0.056384
      dx2y2   :     0.111140
      dxy     :     0.068640
 15 H s       :     0.691292  s :     0.691292
      pz      :     0.035869  p :     0.120493
      px      :     0.063554
      py      :     0.021071
 16 N s       :     3.199154  s :     3.199154
      pz      :     1.200011  p :     3.976126
      px      :     1.640870
      py      :     1.135245
      dz2     :     0.012897  d :     0.083129
      dxz     :     0.016403
      dyz     :     0.021172
      dx2y2   :     0.015673
      dxy     :     0.016985
 17 O s       :     3.481486  s :     3.481486
      pz      :     1.704013  p :     4.624696
      px      :     1.427871
      py      :     1.492813
      dz2     :     0.009878  d :     0.072081
      dxz     :     0.011144
      dyz     :     0.012345
      dx2y2   :     0.024620
      dxy     :     0.014095
 18 H s       :     0.893943  s :     0.893943
      pz      :     0.023370  p :     0.042546
      px      :     0.006955
      py      :     0.012222
 19 H s       :     0.892569  s :     0.892569
      pz      :     0.008586  p :     0.042627
      px      :     0.008305
      py      :     0.025737
 20 H s       :     0.785168  s :     0.785168
      pz      :     0.037709  p :     0.084219
      px      :     0.025563
      py      :     0.020947
 21 O s       :     3.561508  s :     3.561508
      pz      :     1.406475  p :     4.589521
      px      :     1.595048
      py      :     1.587998
      dz2     :     0.012521  d :     0.078691
      dxz     :     0.013415
      dyz     :     0.016887
      dx2y2   :     0.015404
      dxy     :     0.020465
 22 H s       :     0.873565  s :     0.873565
      pz      :     0.024862  p :     0.044551
      px      :     0.008449
      py      :     0.011240
 23 H s       :     0.786195  s :     0.786195
      pz      :     0.031236  p :     0.083791
      px      :     0.034124
      py      :     0.018431


                      *****************************
                      * MAYER POPULATION ANALYSIS *
                      *****************************

  NA   - Mulliken gross atomic population
  ZA   - Total nuclear charge
  QA   - Mulliken gross atomic charge
  VA   - Mayer's total valence
  BVA  - Mayer's bonded valence
  FA   - Mayer's free valence

  ATOM       NA         ZA         QA         VA         BVA        FA
  0 C      6.0633     6.0000    -0.0633     3.9388     3.6833     0.2555
  1 C      6.2162     6.0000    -0.2162     3.9264     3.6603     0.2661
  2 H      0.7566     1.0000     0.2434     0.9236     0.8770     0.0465
  3 H      0.7561     1.0000     0.2439     0.9234     0.8769     0.0465
  4 N      7.6254     7.0000    -0.6254     3.0186     2.6986     0.3199
  5 C      6.2033     6.0000    -0.2033     3.9254     3.6603     0.2651
  6 H      0.9066     1.0000     0.0934     0.9650     0.9150     0.0500
  7 H      0.9044     1.0000     0.0956     0.9651     0.9153     0.0499
  8 C      6.2061     6.0000    -0.2061     3.9180     3.6499     0.2680
  9 H      0.8608     1.0000     0.1392     0.9650     0.9173     0.0477
 10 H      0.8980     1.0000     0.1020     0.9631     0.9135     0.0497
 11 C      6.0599     6.0000    -0.0599     3.8948     3.6205     0.2743
 12 H      0.8727     1.0000     0.1273     0.9622     0.9134     0.0488
 13 H      0.8902     1.0000     0.1098     0.9637     0.9141     0.0496
 14 C      5.4409     6.0000     0.5591     3.9550     3.6766     0.2784
 15 H      0.6573     1.0000     0.3427     0.9016     0.8579     0.0437
 16 N      7.6030     7.0000    -0.6030     3.0358     2.7132     0.3226
 17 O      8.5255     8.0000    -0.5255     2.1962     1.8444     0.3519
 18 H      0.8897     1.0000     0.1103     0.9592     0.9117     0.0475
 19 H      0.8869     1.0000     0.1131     0.9591     0.9118     0.0473
 20 H      0.7379     1.0000     0.2621     0.9267     0.8808     0.0458
 21 O      8.4406     8.0000    -0.4406     2.3222     1.9330     0.3892
 22 H      0.8575     1.0000     0.1425     0.9551     0.9070     0.0482
 23 H      0.7411     1.0000     0.2589     0.9177     0.8716     0.0461

  Mayer bond orders larger than 0.100000
B(  0-C ,  1-C ) :   0.9226 B(  0-C ,  4-N ) :   0.9357 B(  0-C , 18-H ) :   0.9298 
B(  0-C , 19-H ) :   0.9294 B(  1-C ,  5-C ) :   0.9259 B(  1-C ,  6-H ) :   0.9263 
B(  1-C ,  7-H ) :   0.9265 B(  2-H ,  4-N ) :   0.8800 B(  3-H ,  4-N ) :   0.8799 
B(  5-C ,  8-C ) :   0.9330 B(  5-C ,  9-H ) :   0.9177 B(  5-C , 10-H ) :   0.9270 
B(  8-C , 11-C ) :   0.9135 B(  8-C , 12-H ) :   0.9202 B(  8-C , 13-H ) :   0.9211 
B( 11-C , 14-C ) :   0.8696 B( 11-C , 16-N ) :   0.9680 B( 11-C , 22-H ) :   0.9069 
B( 14-C , 17-O ) :   0.9855 B( 14-C , 21-O ) :   1.8138 B( 15-H , 17-O ) :   0.8127 
B( 16-N , 20-H ) :   0.8632 B( 16-N , 23-H ) :   0.8733 


----------------------------------
MP2 DERIVATIVE INTEGRAL GENERATION
----------------------------------

Input SCF Electron Density              ... 0.scfp
Input Correlated Electron Density       ... 0.pmp2re
Input Energy Weighted Density           ... 0.wmp2.tmp
Input Wavefunction Amplitudes           ... 0.mp2tsaa.tmp

Nuclear repulsion gradient              ... done (  0.0 sec)
HCore & Overlap gradient  (SHARK)       ... done (  0.2 sec)
Analytic two-electron gradient terms    ... 
  Batch handling in the gradient evaluation:
  General contraction                   ... not used
  Memory available                      ... 4080.3 MB
  Memory per occupied orbital in Q2     ...   10.1 MB
  Memory per occupied orbital in Q3     ...    0.0 MB
  Total memory requirement per |i>      ...   10.1 MB
  Number of orbitals treated per batch  ...     30
  Number of batches to be done          ...      1
done ( 27.8 sec)

---------------------------------------
MP2 TOTAL ENERGY:     -495.554102458 Eh
---------------------------------------

The final MP2 gradient
  0:   0.00003493  -0.00003033  -0.00004828
  1:  -0.00000880   0.00001290   0.00002641
  2:   0.00000010  -0.00000412  -0.00000521
  3:  -0.00000484  -0.00000924  -0.00001134
  4:  -0.00002506   0.00002701   0.00003297
  5:   0.00000014   0.00001005  -0.00002238
  6:  -0.00000354   0.00000261  -0.00002018
  7:  -0.00000441  -0.00000778  -0.00000608
  8:   0.00004192  -0.00002066  -0.00000995
  9:  -0.00000845   0.00000066   0.00001297
 10:   0.00000460  -0.00000641  -0.00000163
 11:  -0.00001385   0.00003982   0.00000759
 12:  -0.00001400   0.00000006   0.00000212
 13:  -0.00001032   0.00000147   0.00000064
 14:  -0.00003685   0.00005787  -0.00004094
 15:  -0.00000048   0.00001223  -0.00001082
 16:   0.00001196  -0.00001564   0.00000646
 17:  -0.00000203   0.00000543   0.00001982
 18:  -0.00000243   0.00001224   0.00001321
 19:  -0.00000395   0.00000199   0.00002680
 20:  -0.00000634   0.00000012  -0.00000656
 21:   0.00006119  -0.00008516   0.00004190
 22:  -0.00000256  -0.00001613  -0.00000540
 23:  -0.00000689   0.00001102  -0.00000212

-----------------------------------
NORM OF THE MP2 GRADIENT:  0.000189
-----------------------------------

Maximum memory used throughout the entire MP2-calculation: 1139.3 MB

-------------------------   --------------------
FINAL SINGLE POINT ENERGY      -495.554102458436
-------------------------   --------------------

                                *** OPTIMIZATION RUN DONE ***


------------------------------------------------------------------------------
                              ORCA PROPERTY CALCULATIONS
------------------------------------------------------------------------------

GBWName                                 ... 0.gbw
Number of atoms                         ...     24
Number of basis functions               ...    210
Max core memory                         ...   4096 MB

Electric properties:
Dipole moment                           ... YES
Quadrupole moment                       ...  NO
Static polarizability (Dipole/Dipole)   ...  NO
Static polarizability (Dipole/Quad.)    ...  NO
Static polarizability (Quad./Quad.)     ...  NO
Static polarizability (Velocity)        ...  NO
Static hyperpolarizability              ...  NO

Atomic electric properties:
Dipole moment                           ...  NO
Quadrupole moment                       ...  NO
Static polarizability                   ...  NO

Choice of electric origin               ... Center of mass
Position of electric origin             ...   -20.029926    11.099547     1.047290

General magnetic properties:
Magnetizability                         ...  NO

EPR properties:
g-Tensor (aka g-matrix)                 ...  NO
Zero-Field splitting spin-orbit         ...  NO
Zero-field splitting spin-spin          ...  NO
Hyperfine couplings                     ...  NO (   0 nuclei)
Quadrupole couplings                    ...  NO (   0 nuclei)
Contact density                         ...  NO (   0 nuclei)

NMR properties:
Chemical shifts                         ...  NO (   0 nuclei)
Spin-rotation constants                 ...  NO (   0 nuclei)
Spin-spin couplings                     ...  NO (   0 nuclei,    0 pairs)

Choice of magnetic origin               ... GIAO
Position of magnetic origin             ...     0.000000     0.000000     0.000000

Properties with geometric perturbations:
SCF Hessian                             ...  NO
IR spectrum                             ...  NO
VCD spectrum                            ...  NO
X-ray spectroscopy properties:
SCF XES/XAS/RIXS spectra                ...  NO

SCF SOC stabilization energy            ...  NO
Diagonal Born-Oppenheimer correction    ...  NO

-------------
DIPOLE MOMENT
-------------

Method             : SCF
Type of density    : Electron Density
Multiplicity       :   1
Irrep              :   0
Energy             :  -494.0188781725422587 Eh
Basis              : AO
                                X                 Y                 Z
Electronic contribution:     14.501581751      -1.730130502      -0.792025192
Nuclear contribution   :    -13.830258204       2.267377683       0.901225361
                        -----------------------------------------
Total Dipole Moment    :      0.671323547       0.537247181       0.109200169
                        -----------------------------------------
Magnitude (a.u.)       :      0.866737858
Magnitude (Debye)      :      2.203072554



--------------------
Rotational spectrum 
--------------------
 
Rotational constants in cm-1:             0.110113             0.014257             0.013373 
Rotational constants in MHz :          3301.107637           427.401098           400.917934 

Dipole components along the rotational axes: 
x,y,z [a.u.] :    -0.530982     0.684188    -0.034330 
x,y,z [Debye]:    -1.349650     1.739069    -0.087259 

 

-------------
DIPOLE MOMENT
-------------

Method             : MP2
Type of density    : Electron Density
Multiplicity       :   1
Level              : Unrelaxed density
Irrep              :   0
Energy             :     0.0000000000000000 Eh
Basis              : AO
                                X                 Y                 Z
Electronic contribution:     14.515193112      -1.750899984      -0.776180438
Nuclear contribution   :    -13.830258204       2.267377683       0.901225361
                        -----------------------------------------
Total Dipole Moment    :      0.684934908       0.516477699       0.125044923
                        -----------------------------------------
Magnitude (a.u.)       :      0.866903267
Magnitude (Debye)      :      2.203492991



--------------------
Rotational spectrum 
--------------------
 
Rotational constants in cm-1:             0.110113             0.014257             0.013373 
Rotational constants in MHz :          3301.107637           427.401098           400.917934 

Dipole components along the rotational axes: 
x,y,z [a.u.] :    -0.546723     0.672655    -0.012263 
x,y,z [Debye]:    -1.389658     1.709754    -0.031170 

 

-------------
DIPOLE MOMENT
-------------

Method             : MP2
Type of density    : Electron Density
Multiplicity       :   1
Level              : Relaxed density
Irrep              :   0
Energy             :     0.0000000000000000 Eh
Basis              : AO
                                X                 Y                 Z
Electronic contribution:     14.598933068      -1.814995180      -0.718536351
Nuclear contribution   :    -13.830258204       2.267377683       0.901225361
                        -----------------------------------------
Total Dipole Moment    :      0.768674864       0.452382503       0.182689010
                        -----------------------------------------
Magnitude (a.u.)       :      0.910431903
Magnitude (Debye)      :      2.314133991



--------------------
Rotational spectrum 
--------------------
 
Rotational constants in cm-1:             0.110113             0.014257             0.013373 
Rotational constants in MHz :          3301.107637           427.401098           400.917934 

Dipole components along the rotational axes: 
x,y,z [a.u.] :    -0.634925     0.649162     0.065915 
x,y,z [Debye]:    -1.613851     1.650040     0.167543 

 

Dipole moment calculation done in   0.0 sec 

Maximum memory used throughout the entire PROP-calculation: 11.0 MB

--------------------------------
SUGGESTED CITATIONS FOR THIS RUN
--------------------------------

Below you find a list of papers that are relevant to this ORCA run
We neither can nor want to force you to cite these papers, but we appreciate if you do
You receive ORCA, which is the product of decades of hard work by many enthusiastic individuals, for free
The only thing we kindly ask in return is that you cite our papers,
We deeply appreciate it, if you show your appreciation for ORCA by not just citing the generic ORCA reference.

Please note that relegating all ORCA citations to the supporting information does *not* help us.
SI sections are not indexed - citations you put there will not count into any citation statistics
But we need these citations in order to attract the funding resources that allow us to do what we are doing

Therefore, if you are a happy ORCA user, please consider citing a few of the papers listed below in the main body of your paper

In addition to the list printed below, the program has created the file 0.bibtex that contains the list in bibtex format
You can import this file easily into all common literature databanks and citation aid programs


List of essential papers. We consider these as the minimum necessary citations

  1. Neese, F.
     Software update: the ORCA program system, version 6.0
     WIRES Comput. Molec. Sci. 2025 15(1), e70019
     doi.org/10.1002/wcms.7019

List of papers to cite with high priority. The work reported in these papers was absolutely
necessary for this run to complete.
Our perspective: the developers of density functionals and basis sets usually get cited in chemistry papers
Good! But without the algorithms to do something with them, the functionals or basis sets would not do anything.
Hence, in our opinion, the algorithm design and method developments papers are equally worthy of getting cited

  1. Neese, F.
     The SHARK Integral Generation and Digestion System
     J. Comp. Chem. 2022 44(3), 381
     doi.org/10.1002/jcc.26942

List of suggested additional citations. These are papers that are important in the 'surrounding' of 
of this run, or papers that preceded the highly important papers. If you like your results we are grateful for a citation.

  1. Neese, F.
     The ORCA program system
     WIRES Comput. Molec. Sci. 2012 2(1), 73-78
     doi.org/10.1002/wcms.81
  2. Neese, F.
     Software update: the ORCA program system, version 4.0
     WIRES Comput. Molec. Sci. 2018 8(1), 1-6
     doi.org/10.1002/wcms.1327
  3. Neese, F.; Wennmohs, F.; Becker, U.; Riplinger, C.
     The ORCA quantum chemistry program package
     J. Chem. Phys. 2020 152(22), 224108
     doi.org/10.1063/5.0004608
  4. Neese, F.
     Software update: The ORCA program system—Version 5.0
     WIRES Comput. Molec. Sci. 2022 12(1), e1606
     doi.org/10.1002/wcms.1606

List of optional additional citations

  1. Neese, F.
     Approximate second-order SCF convergence for spin unrestricted wavefunctions
     Chem. Phys. Lett. 2000 325(1-3), 93-98
     doi.org/10.1016/s0009-2614(00)00662-x

Timings for individual modules:

Sum of individual times          ...      985.172 sec (=  16.420 min)
Startup calculation              ...        5.199 sec (=   0.087 min)   0.5 %
SCF iterations                   ...      168.275 sec (=   2.805 min)  17.1 %
Property calculations            ...        0.041 sec (=   0.001 min)   0.0 %
MP2 module                       ...      811.638 sec (=  13.527 min)  82.4 %
Geometry relaxation              ...        0.019 sec (=   0.000 min)   0.0 %
                             ****ORCA TERMINATED NORMALLY****
TOTAL RUN TIME: 0 days 0 hours 16 minutes 25 seconds 397 msec
