
                                 *****************
                                 * O   R   C   A *
                                 *****************

                                            #,                                       
                                            ###                                      
                                            ####                                     
                                            #####                                    
                                            ######                                   
                                           ########,                                 
                                     ,,################,,,,,                         
                               ,,#################################,,                 
                          ,,##########################################,,             
                       ,#########################################, ''#####,          
                    ,#############################################,,   '####,        
                  ,##################################################,,,,####,       
                ,###########''''           ''''###############################       
              ,#####''   ,,,,##########,,,,          '''####'''          '####       
            ,##' ,,,,###########################,,,                        '##       
           ' ,,###''''                  '''############,,,                           
         ,,##''                                '''############,,,,        ,,,,,,###''
      ,#''                                            '''#######################'''  
     '                                                          ''''####''''         
             ,#######,   #######,   ,#######,      ##                                
            ,#'     '#,  ##    ##  ,#'     '#,    #''#        ,####,    ,#,          
            ##       ##  ##   ,#'  ##            #'  '#       #'       ,# #          
            ##       ##  #######   ##           ,######,      #####,      #          
            '#,     ,#'  ##    ##  '#,     ,#' ,#      #,     #,   #      #          
             '#######'   ##     ##  '#######'  #'      '#     '####' #    #          



                #########################################################
                #                        -***-                          #
                #          Department of theory and spectroscopy        #
                #                                                       #
                #                      Frank Neese                      #
                #                                                       #
                #     Directorship, Architecture, Infrastructure        #
                #                    SHARK, DRIVERS                     #
                #        Core code/Algorithms in most modules           #
                #                                                       #
                #        Max Planck Institute fuer Kohlenforschung      #
                #                Kaiser Wilhelm Platz 1                 #
                #                 D-45470 Muelheim/Ruhr                 #
                #                      Germany                          #
                #                                                       #
                #                  All rights reserved                  #
                #                        -***-                          #
                #########################################################


                         Program Version 6.1.0  -  RELEASE   -
                                (GIT: $679e74b$)
                          ($2025-06-10 18:02:51 +0200$)


 With contributions from (in alphabetic order):
[Max-Planck-Institut fuer Kohlenforschung]                               
  Daniel Aravena         : Magnetic Suceptibility                        
  Michael Atanasov       : Ab Initio Ligand Field Theory (pilot matlab implementation)
  Alexander A. Auer      : GIAO ZORA, VPT2 properties, NMR spectrum      
  Ute Becker             : All parallelization in ORCA, NUMFREQ, NUMCALC 
  Giovanni Bistoni       : ED, misc. LED, open-shell LED, HFLD           
  Dmytro Bykov           : pre 5.0 version of the SCF Hessian            
  Marcos Casanova-Páez   : Triplet and SCS-CIS(D). UHF-(DLPNO)-IP/EA/STEOM-CCSD. UHF-CVS-IP/STEOM-CCSD   
  Vijay G. Chilkuri      : MRCI spin determinant printing, contributions to CSF-ICE 
  Pauline Colinet        : FMM embedding                                 
  Dipayan Datta          : RHF DLPNO-CCSD density                        
  Achintya Kumar Dutta   : EOM-CC, STEOM-CC                              
  Nicolas Foglia         : Exact transition moments, OPA infrastructure, MCD improvements    
  Dmitry Ganyushin       : Spin-Orbit,Spin-Spin,Magnetic field MRCI      
  Miquel Garcia-Rates    : C-PCM and meta-GGA Hessian, CCSD/C-PCM, Gaussian charge scheme 
  Tiago L. C. Gouveia    : GS-ROHF, GS-ROCIS                             
  Yang Guo               : DLPNO-NEVPT2, F12-NEVPT2, CIM, IAO-localization        
  Andreas Hansen         : Spin unrestricted coupled pair/coupled cluster methods 
  Ingolf Harden          : AUTO-CI MPn and infrastructure                
  Benjamin Helmich-Paris : MC-RPA, TRAH-(SCF,CASSCF), AVAS, COSX integrals, SCF dyn. polar., MC-PDFT, srDFT 
  Lee Huntington         : MR-EOM, pCC                                   
  Robert Izsak           : Overlap fitted RIJCOSX, COSX-SCS-MP3, EOM     
  Riya Kayal             : Wick's Theorem for AUTO-CI, AUTO-CI UHF-CCSDT 
  Emily Kempfer          : AUTO-CI RHF CISDT and CCSDT, approximate NEVPT4
  Christian Kollmar      : KDIIS, OOCD, Brueckner-CCSD(T), CCSD density, CASPT2, CASPT2-K, improved NEVPT2 
  Axel Koslowski         : Symmetry handling                             
  Simone Kossmann        : meta-GGA functionals, TD-DFT gradient, OOMP2, (MP2 Hessian; deprecated post 5.0) 
  Lucas Lang             : DCDCAS, Hyperfine gauge corrections, ICE-SOC+SSC
  Marvin Lechner         : AUTO-CI (C++ implementation), FIC-MRCC        
  Spencer Leger          : CASSCF response                               
  Dagmar Lenk            : GEPOL surface, SMD, ORCA-2-JSON               
  Dimitrios Liakos       : Extrapolation schemes; Compound Job, Property file
  Dimitrios Manganas     : Further ROCIS development; embedding schemes. LFT, Crystal Embedding 
  Dimitrios Pantazis     : SARC Basis sets                               
  Anastasios Papadopoulos: AUTO-CI, single reference methods and gradients 
  Taras Petrenko         : pre 6.0 DFT Hessian and TD-DFT gradient,  ECA, NRVS 
  Petra Pikulova         : Analytic Raman intensities                    
  Peter Pinski           : DLPNO-MP2, DLPNO-MP2 Gradient                 
  Shashank Vittal Rao    : ES-AILFT, MagRelax                            
  Christoph Reimann      : Effective Core Potentials                     
  Marius Retegan         : Local ZFS, SOC                                
  Christoph Riplinger    : Optimizer, TS searches, QM/MM, DLPNO-CCSD(T), (RO)-DLPNO pert. Triples 
  Michael Roemelt        : Original ROCIS implementation, recursive CI coupling coefficients
  Masaaki Saitow         : Open-shell DLPNO-CCSD energy and density      
  Barbara Sandhoefer     : DKH picture change effects                    
  Yorick L. A. Schmerwitz: GMF and freeze-and-release deltaSCF, NEB S-IDPP initial path                    
  Kantharuban Sivalingam : CASSCF convergence/infrastructure, NEVPT2, NEVPT3, NEVPT4(SD), FIC-MRCI and CEPA variants
  Bernardo de Souza      : ESD, SOC TD-DFT                               
  Georgi L. Stoychev     : AutoAux, RI-MP2 NMR, DLPNO-MP2 response, X2C  
  Van Anh Tran           : RI-MP2 g-tensors                              
  Willem Van den Heuvel  : Paramagnetic NMR                              
  Zikuan Wang            : NOTCH, Electric field optimization            
  Frank Wennmohs         : Technical directorship and infrastructure     
  Hang Xu                : AUTO-CI-Response properties                   
                                                                         
[FACCTs GmbH]                                                            
  Markus Bursch, Nicolas Foglia, Miquel Garcia-Rates, Ingolf Harden, Hagen Neugebauer, Anastasios Papadopoulos, 
  Christoph Riplinger, Bernardo de Souza, Georgi L. Stoychev                                                    
                                                                 
  APM, various basis sets, CI-OPT, improved COSX, DLPNO-Multilevel,           
  DOCKER, DRACO, updates on ESD, Fragmentator, GOAT, IRC, LR-CPCM, L-BFGS, MBIS, meta-GGA TD-DFT gradient, ML-optimized integration grids, 
  MM, NACMEs, nearIR, NEB, NEB-TS, NL-DFT gradient (VV10), 2- and 3-layer-ONIOM, interface openCOSMO-RS, QMMM,   
  Crystal-QMMM, RESP, rigid body optimization, SF, symmetry and pop. for TD-DFT, various functionals, SOLVATOR                                   
                                                                         
[Other institutions]                                                     
  V. Asgeirsson          : NEB                                           
  Christoph Bannwarth    : sTDA-DFT, sTD-DFT, PBEh-3c, B97-3c, D3        
  Giovanni Bistoni       : ETS/NOCV, ADLD/ADEX, COVALED                  
  Martin Brehm           : Molecular dynamics                            
  Ronald Cardenas        : ETS/NOCV                                      
  Martina Colucci        : COVALED                                       
  Sebastian Ehlert       : rSCAN, r2SCAN, r2SCAN-3c, D4, dhf basis sets  
  Marvin Friede          : D4 for Fr, Ra, Ac-Lr                          
  Lars Goerigk           : TD-DFT with DH, B97 family of functionals     
  Stefan Grimme          : VdW corrections, initial TS optimization, DFT functionals, gCP, sTDA/sTD-DF 
  Waldemar Hujo          : DFT-NL                                        
  H. Jonsson             : NEB                                           
  Holger Kruse           : gCP                                           
  Marcel Mueller         : wB97X-3c, vDZP basis set                      
  Hagen Neugebauer       : wr2SCAN, Native XTB                           
  Gianluca Regni         : ADLD/ADEX                                     
  Tobias Risthaus        : pre 6.0 range-separated hybrid DFT and stability analysis
  Lukas Wittmann         : regularized MP2, r2SCAN double-hybrids, wr2SCAN        
                                                                         
We gratefully acknowledge several colleagues who have allowed us to      
interface, adapt or use parts of their codes:                            
  Ed Valeev, F. Pavosevic, A. Kumar             : LibInt (2-el integral package), F12 methods 
  Garnet Chan, S. Sharma, J. Yang, R. Olivares  : DMRG                   
  Ulf Ekstrom                                   : XCFun DFT Library      
  Mihaly Kallay                                 : mrcc  (arbitrary order and MRCC methods)
  Frank Weinhold                                : gennbo (NPA and NBO analysis)           
  Simon Mueller                                 : openCOSMO-RS                            
  Christopher J. Cramer and Donald G. Truhlar   : smd solvation model                     
  S Lehtola, MJT Oliveira, MAL Marques          : LibXC Library                           
  Liviu Ungur et al                             : ANISO software                          


 Your calculation uses the libint2 library for the computation of 2-el integrals
 For citations please refer to: http://libint.valeyev.net

 Your ORCA version has been built with support for libXC version: 7.0.0
 For citations please refer to: https://libxc.gitlab.io

 This ORCA versions uses:
   CBLAS   interface :  Fast vector & matrix operations
   LAPACKE interface :  Fast linear algebra routines
   SCALAPACK package :  Parallel linear algebra routines
   Shared memory     :  Shared parallel matrices
   BLAS/LAPACK       :  OpenBLAS 0.3.29  USE64BITINT DYNAMIC_ARCH NO_AFFINITY Haswell SINGLE_THREADED
        Core in use  :  Haswell
   Copyright (c) 2011-2014, The OpenBLAS Project


  ***********************************
  * Starting time: Wed Aug 13 11:18:36 2025
  * Host name:     CHEMLAB02
  * Process ID:    1527255
  * Working dir.:  /home/vivek/mm-project/vivek/B97-D/a
  ***********************************



***************************************
The coordinates will be read from file: /home/vivek/mm-project/vivek/xtb-goat/a/A_CONF/0.xyz
***************************************


Your calculation utilizes empirical dispersion correction


Warning: RI is on but no J-basis has been assigned. Assigning Def2/J (nothing to worry about!)
================================================================================

----- Orbital basis set information -----
Your calculation utilizes the basis: 6-31G**
   H-He, Li-Ne : W. J. Hehre, R. Ditchfield and J.A. Pople, J. Chem. Phys. 56, 2257 (1972).
                 Note: He and Ne are unpublished basis sets taken from the Gaussian program.
                 Note: Li and B from J. D. Dill and J. A. Pople, J. Chem. Phys. 62, 2921 (1975).
   Na - Ar     : M. M. Francl, W. J. Pietro, W. J. Hehre, J. S. Binkley, M. S. Gordon, 
                 D. J. DeFrees and J. A. Pople, J. Chem. Phys. 77, 3654 (1982).
   K - Zn      : V. A. Rassolov, J. A. Pople, M. A. Ratner, and T. L. Windus, J. Chem. Phys. 109, 1223 (1998).

----- AuxJ basis set information -----
Your calculation utilizes the auxiliary basis: def2/J
   H-Rn: F. Weigend, Phys. Chem. Chem. Phys. 8, 1057 (2006).
   Fr-Lr: K. Eichkorn, F. Weigend, O. Treutler, R. Ahlrichs; Theor. Chem. Acc. 97, 119 (1997).

================================================================================
                                        WARNINGS
                       Please study these warnings very carefully!
================================================================================


INFO   : The exchange functional is Grimme's B97(-D)
         As described in S. Grimme, J. Comput. Chem. 27, 1787 (2006).
         Note that this functional defaults to a pure GGA. 

INFO   : The correlation functional is Grimme's B97(-D)
         As described in S. Grimme, J. Comput. Chem. 27, 1787 (2006).

================================================================================
                                       INPUT FILE
================================================================================
NAME = 0.inp
|  1> ! B97-D 6-31G** 
|  2> 
|  3> * xyzfile 0 1 /home/vivek/mm-project/vivek/xtb-goat/a/A_CONF/0.xyz
|  4> 
|  5>                          ****END OF INPUT****
================================================================================

                       ****************************
                       * Single Point Calculation *
                       ****************************

---------------------------------
CARTESIAN COORDINATES (ANGSTROEM)
---------------------------------
  C     -4.555573    0.017442   -2.420979
  O     -4.209217    0.564375   -3.433761
  O     -3.718586   -0.249317   -1.412291
  C     -5.973027   -0.448634   -2.132529
  H     -2.821970    0.058177   -1.622229
  N     -6.912411   -0.180378   -3.197978
  H     -5.944468   -1.524737   -1.937303
  H     -6.313613    0.043829   -1.216885
  H     -6.942570    0.816476   -3.388452
  H     -6.602058   -0.631279   -4.053126

----------------------------
CARTESIAN COORDINATES (A.U.)
----------------------------
  NO LB      ZA    FRAG     MASS         X           Y           Z
   0 C     6.0000    0    12.011   -8.608786    0.032960   -4.574988
   1 O     8.0000    0    15.999   -7.954268    1.066514   -6.488868
   2 O     8.0000    0    15.999   -7.027109   -0.471140   -2.668844
   3 C     6.0000    0    12.011  -11.287386   -0.847796   -4.029896
   4 H     1.0000    0     1.008   -5.332750    0.109938   -3.065568
   5 N     7.0000    0    14.007  -13.062563   -0.340865   -6.043303
   6 H     1.0000    0     1.008  -11.233416   -2.881336   -3.660973
   7 H     1.0000    0     1.008  -11.931000    0.082825   -2.299580
   8 H     1.0000    0     1.008  -13.119555    1.542916   -6.403245
   9 H     1.0000    0     1.008  -12.476082   -1.192944   -7.659299

--------------------------------
INTERNAL COORDINATES (ANGSTROEM)
--------------------------------
 C      0   0   0     0.000000000000     0.00000000     0.00000000
 O      1   0   0     1.202008503646     0.00000000     0.00000000
 O      1   2   0     1.337594769121   123.08133543     0.00000000
 C      1   2   3     1.519739185988   124.62631974   180.00620262
 H      3   1   2     0.970848233778   110.58900620     0.00000000
 N      4   1   2     1.445539680129   114.16109609     0.00000000
 H      4   1   2     1.094040987774   108.13004204   121.92759101
 H      4   1   2     1.094039381455   108.12934501   238.09942021
 H      6   4   1     1.015336138199   109.86282493   301.47685000
 H      6   4   1     1.015336359971   109.86021632    58.54431215

---------------------------
INTERNAL COORDINATES (A.U.)
---------------------------
 C      0   0   0     0.000000000000     0.00000000     0.00000000
 O      1   0   0     2.271466882536     0.00000000     0.00000000
 O      1   2   0     2.527687791804   123.08133543     0.00000000
 C      1   2   3     2.871890856507   124.62631974   180.00620262
 H      3   1   2     1.834637279441   110.58900620     0.00000000
 N      4   1   2     2.731674111159   114.16109609     0.00000000
 H      4   1   2     2.067437846178   108.13004204   121.92759101
 H      4   1   2     2.067434810674   108.12934501   238.09942021
 H      6   4   1     1.918707235070   109.86282493   301.47685000
 H      6   4   1     1.918707654157   109.86021632    58.54431215

---------------------
BASIS SET INFORMATION
---------------------
There are 4 groups of distinct atoms

 Group   1 Type C   : 10s4p1d contracted to 3s2p1d pattern {631/31/1}
 Group   2 Type O   : 10s4p1d contracted to 3s2p1d pattern {631/31/1}
 Group   3 Type H   : 4s1p contracted to 2s1p pattern {31/1}
 Group   4 Type N   : 10s4p1d contracted to 3s2p1d pattern {631/31/1}

Atom   0C    basis set group =>   1
Atom   1O    basis set group =>   2
Atom   2O    basis set group =>   2
Atom   3C    basis set group =>   1
Atom   4H    basis set group =>   3
Atom   5N    basis set group =>   4
Atom   6H    basis set group =>   3
Atom   7H    basis set group =>   3
Atom   8H    basis set group =>   3
Atom   9H    basis set group =>   3
---------------------------------
AUXILIARY/J BASIS SET INFORMATION
---------------------------------
There are 4 groups of distinct atoms

 Group   1 Type C   : 12s5p4d2f1g contracted to 6s4p3d1f1g pattern {711111/2111/211/2/1}
 Group   2 Type O   : 12s5p4d2f1g contracted to 6s4p3d1f1g pattern {711111/2111/211/2/1}
 Group   3 Type H   : 5s2p1d contracted to 3s1p1d pattern {311/2/1}
 Group   4 Type N   : 12s5p4d2f1g contracted to 6s4p3d1f1g pattern {711111/2111/211/2/1}

Atom   0C    basis set group =>   1
Atom   1O    basis set group =>   2
Atom   2O    basis set group =>   2
Atom   3C    basis set group =>   1
Atom   4H    basis set group =>   3
Atom   5N    basis set group =>   4
Atom   6H    basis set group =>   3
Atom   7H    basis set group =>   3
Atom   8H    basis set group =>   3
Atom   9H    basis set group =>   3
------------------------------------------------------------------------------
                             ORCA STARTUP CALCULATIONS
                           -- RI-GTO INTEGRALS CHOSEN --
------------------------------------------------------------------------------
------------------------------------------------------------------------------
                   ___                                                        
                  /   \      - P O W E R E D   B Y -                         
                 /     \                                                     
                 |  |  |   _    _      __       _____    __    __             
                 |  |  |  | |  | |    /  \     |  _  \  |  |  /  |          
                  \  \/   | |  | |   /    \    | | | |  |  | /  /          
                 / \  \   | |__| |  /  /\  \   | |_| |  |  |/  /          
                |  |  |   |  __  | /  /__\  \  |    /   |      \           
                |  |  |   | |  | | |   __   |  |    \   |  |\   \          
                \     /   | |  | | |  |  |  |  | |\  \  |  | \   \       
                 \___/    |_|  |_| |__|  |__|  |_| \__\ |__|  \__/        
                                                                              
                      - O R C A' S   B I G   F R I E N D -                    
                                      &                                       
                       - I N T E G R A L  F E E D E R -                       
                                                                              
 v1 FN, 2020, v2 2021, v3 2022-2024                                           
------------------------------------------------------------------------------


----------------------
SHARK INTEGRAL PACKAGE
----------------------

Number of atoms                             ...     10
Number of basis functions                   ...     95
Number of shells                            ...     45
Maximum angular momentum                    ...      2
Integral batch strategy                     ... SHARK/LIBINT Hybrid
RI-J (if used) integral strategy            ... SPLIT-RIJ (Revised 2003 algorithm where possible)
Printlevel                                  ...      1
Contraction scheme used                     ... SEGMENTED contraction
Prescreening option                         ... SCHWARTZ
   Thresh                                   ... 1.000e-10
   Tcut                                     ... 1.000e-11
   Tpresel                                  ... 1.000e-11 
Coulomb Range Separation                    ... NOT USED
Exchange Range Separation                   ... NOT USED
Multipole approximations                    ... NOT USED
Finite Nucleus Model                        ... NOT USED
CABS basis                                  ... NOT available
Auxiliary Coulomb fitting basis             ... AVAILABLE
   # of basis functions in Aux-J            ...    300
   # of shells in Aux-J                     ...    100
   Maximum angular momentum in Aux-J        ...      4
Auxiliary J/K fitting basis                 ... NOT available
Auxiliary Correlation fitting basis         ... NOT available
Auxiliary 'external' fitting basis          ... NOT available

Checking pre-screening integrals            ... done (  0.0 sec) Dimension = 45
   => SHARK Basis and OBASIS are compatible. Storing Pre-screening
Shell pair information
Shell pair cut-off parameter TPreSel        ...   1.0e-11
Total number of shell pairs                 ...      1035
Shell pairs after pre-screening             ...      1001
Total number of primitive shell pairs       ...      5170
Primitive shell pairs kept                  ...      3709
          la=0 lb=0:    314 shell pairs
          la=1 lb=0:    360 shell pairs
          la=1 lb=1:    115 shell pairs
          la=2 lb=0:    123 shell pairs
          la=2 lb=1:     74 shell pairs
          la=2 lb=2:     15 shell pairs

Checking whether 4 symmetric matrices of dimension 95 fit in memory
:Max Core in MB      =   4096.00
 MB in use           =      4.69
 MB left             =   4091.31
 MB needed           =      0.14
 Data fit in memory  = YES
Calculating RI/J V-Matrix + Cholesky decomp.... done (  0.0 sec)
Calculating Nuclear repulsion               ... done (  0.0 sec) ENN=    179.915098546587 Eh

Diagonalization of the overlap matrix:
Smallest eigenvalue                        ... 4.361e-03
Time for diagonalization                   ...    0.001 sec
Threshold for overlap eigenvalues          ... 1.000e-07
Number of eigenvalues below threshold      ... 0
Time for construction of square roots      ...    0.000 sec
Total time needed                          ...    0.001 sec

-------------------
DFT GRID GENERATION
-------------------

General Integration Accuracy     IntAcc      ... 4.388
Radial Grid Type                 RadialGrid  ... OptM3 with GC (2021)
Angular Grid (max. ang.)         AngularGrid ... 4 (Lebedev-302)
Angular grid pruning method      GridPruning ... 4 (adaptive)
Weight generation scheme         WeightScheme... mBecke (2022)
Basis function cutoff            BFCut       ... 1.0000e-10
Integration weight cutoff        WCut        ... 1.0000e-14
Partially contracted basis set               ... off
Rotationally invariant grid construction     ... off
Angular grids for H and He will be reduced by one unit

Total number of grid points                  ...    46630
Total number of batches                      ...      734
Average number of points per batch           ...       63
Average number of grid points per atom       ...     4663
Grids setup in   0.1 sec
Initializing property integral containers    ... done (  0.0 sec)

SHARK setup successfully completed in   0.2 seconds

Maximum memory used throughout the entire STARTUP-calculation: 19.7 MB
-------------------------------------------------------------------------------
                                 ORCA GUESS
                   Start orbitals & Density for SCF / CASSCF
-------------------------------------------------------------------------------

------------
SCF SETTINGS
------------
Hamiltonian:
 Density Functional     Method          .... DFT(GTOs)
 Exchange Functional    Exchange        .... B97(D)
 Correlation Functional Correlation     .... B97(D)
 Gradients option       PostSCFGGA      .... off
 RI-approximation to the Coulomb term is turned on
   Number of AuxJ basis functions       .... 300


General Settings:
 Integral files         IntName         .... 0
 Hartree-Fock type      HFTyp           .... RHF
 Total Charge           Charge          ....    0
 Multiplicity           Mult            ....    1
 Number of Electrons    NEL             ....   40
 Basis Dimension        Dim             ....   95
 Nuclear Repulsion      ENuc            ....    179.9150985466 Eh

Convergence Acceleration:
 AO-DIIS                CNVDIIS         .... on
   Start iteration      DIISMaxIt       ....    12
   Startup error        DIISStart       ....  0.200000
   # of expansion vecs  DIISMaxEq       ....     5
   Bias factor          DIISBfac        ....   1.050
   Max. coefficient     DIISMaxC        ....  10.000
 MO-DIIS                CNVKDIIS        .... off
 Trust-Rad. Augm. Hess. CNVTRAH         .... auto
   Auto Start mean grad. ratio tolernc. ....  1.125000
   Auto Start start iteration           ....    50
   Auto Start num. interpolation iter.  ....    10
   Max. Number of Micro iterations      ....    24
   Max. Number of Macro iterations      .... Maxiter - #DIIS iter
   Number of Davidson start vectors     ....     2
   Converg. threshold    (grad. norm)   ....   5.000e-05
   Grad. Scal. Fac. for Micro threshold ....   0.100
   Minimum threshold for Micro iter.    ....   1.000e-02
   NR start threshold (gradient norm)   ....   1.000e-04
   Initial trust radius                 ....   0.400
   Minimum AH scaling param. (alpha)    ....   1.000
   Maximum AH scaling param. (alpha)    .... 1000.000
   Quad. conv. algorithm                .... NR
   White noise on init. David. guess    .... on
   Maximum white noise                  ....   0.010
   Pseudo random numbers                .... off
   Inactive MOs                         .... canonical
   Orbital update algorithm             .... Taylor
   Preconditioner                       .... Diag
   Full preconditioner red. dimension   ....   250
 SOSCF                 CNVSOSCF           .... on
   Start iteration     SOSCFMaxIt         ....   150
   Startup grad/error  SOSCFStart         ....  0.003300
   Hessian update      SOSCFHessUp        .... L-BFGS
   Autom. constraints  SOSCFAutoConstrain .... off
 Level Shifting         CNVShift        .... on
   Level shift para.    LevelShift      ....    0.2500
   Turn off err/grad.   ShiftErr        ....    0.0010
 Zerner damping         CNVZerner       .... off
 Static damping         CNVDamp         .... on
   Fraction old density DampFac         ....    0.7000
   Max. Damping (<1)    DampMax         ....    0.9800
   Min. Damping (>=0)   DampMin         ....    0.0000
   Turn off err/grad.   DampErr         ....    0.1000

SCF Procedure:
 Maximum # iterations   MaxIter         ....   125
 SCF integral mode      SCFMode         .... Direct
   Integral package                     .... SHARK and LIBINT hybrid scheme
 Reset frequency        DirectResetFreq ....    20
 Integral Threshold     Thresh          ....  1.000e-10 Eh
 Primitive CutOff       TCut            ....  1.000e-11 Eh

Convergence Tolerance:
 Convergence Check Mode ConvCheckMode   .... Total+1el-Energy
 Convergence forced     ConvForced      .... 0
 Energy Change          TolE            ....  1.000e-06 Eh
 1-El. energy change                    ....  1.000e-03 Eh
 Orbital Gradient       TolG            ....  5.000e-05
 Orbital Rotation angle TolX            ....  5.000e-05
 DIIS Error             TolErr          ....  1.000e-06

------------------------------
INITIAL GUESS: MODEL POTENTIAL
------------------------------
Loading Hartree-Fock densities                     ... done
Calculating cut-offs                               ... done
Initializing the effective Hamiltonian             ... done
Setting up the integral package (SHARK)            ... done
Starting the Coulomb interaction                   ... done (   0.0 sec)
Making the grid                                    ... done (   0.0 sec)
Mapping shells                                     ... done
Starting the XC term evaluation                    ... done (   0.0 sec)
  promolecular density results
     # of electrons  =     39.999141462
     EX              =    -34.199107727
     EC              =     -1.792769068
     EX+EC           =    -35.991876796
Transforming the Hamiltonian                       ... done (   0.0 sec)
Diagonalizing the Hamiltonian                      ... done (   0.0 sec)
Back transforming the eigenvectors                 ... done (   0.0 sec)
Now organizing SCF variables                       ... done
                      ------------------
                      INITIAL GUESS DONE (   0.1 sec)
                      ------------------
             **** ENERGY FILE WAS UPDATED (0.en.tmp) ****
Finished Guess after   0.1 sec
Maximum memory used throughout the entire GUESS-calculation: 8.1 MB

-------------------------------------------------------------------------------------------
                                      ORCA LEAN-SCF
                              memory conserving SCF solver
-------------------------------------------------------------------------------------------

----------------------------------------D-I-I-S--------------------------------------------
Iteration    Energy (Eh)           Delta-E    RMSDP     MaxDP     DIISErr   Damp  Time(sec)
-------------------------------------------------------------------------------------------
               ***  Starting incremental Fock matrix formation  ***
    1    -284.0210722513560313     0.00e+00  5.96e-03  1.06e-01  2.57e-01  0.700   0.2
    2    -284.1366577382374885    -1.16e-01  3.56e-03  5.50e-02  9.75e-02  0.700   0.1
                               ***Turning on AO-DIIS***
    3    -284.1692961994260713    -3.26e-02  1.24e-03  1.36e-02  3.17e-02  0.700   0.1
    4    -284.1918669380180518    -2.26e-02  1.58e-03  1.69e-02  1.45e-02  0.000   0.1
    5    -284.2452595377718012    -5.34e-02  6.00e-04  6.73e-03  1.22e-02  0.000   0.1
    6    -284.2457945840892535    -5.35e-04  2.14e-04  2.20e-03  3.47e-03  0.000   0.1
                              *** Initializing SOSCF ***
---------------------------------------S-O-S-C-F--------------------------------------
Iteration    Energy (Eh)           Delta-E    RMSDP     MaxDP     MaxGrad    Time(sec)
--------------------------------------------------------------------------------------
    7    -284.2458371678096114    -4.26e-05  7.93e-05  9.06e-04  1.14e-03     0.1
               *** Restarting incremental Fock matrix formation ***
    8    -284.2458430941009624    -5.93e-06  5.32e-05  7.08e-04  1.30e-04     0.1
    9    -284.2458433141998171    -2.20e-07  2.49e-05  3.51e-04  2.02e-04     0.1
                 **** Energy Check signals convergence ****

               *****************************************************
               *                     SUCCESS                       *
               *           SCF CONVERGED AFTER   9 CYCLES          *
               *****************************************************

             **** ENERGY FILE WAS UPDATED (0.en.tmp) ****

----------------
TOTAL SCF ENERGY
----------------

Total Energy       :       -284.24584352293004 Eh           -7734.72263 eV

Components:
Nuclear Repulsion  :        179.91509854658671 Eh            4895.73873 eV
Electronic Energy  :       -464.16094206951675 Eh          -12630.46135 eV
One Electron Energy:       -744.39356982390132 Eh          -20255.97883 eV
Two Electron Energy:        280.23262775438457 Eh            7625.51748 eV

Virial components:
Potential Energy   :       -567.03473174747910 Eh          -15429.79949 eV
Kinetic Energy     :        282.78888822454911 Eh            7695.07686 eV
Virial Ratio       :          2.00515209528751

DFT components:
N(Alpha)           :       19.999995786826 electrons
N(Beta)            :       19.999995786826 electrons
N(Total)           :       39.999991573652 electrons
E(X)               :      -34.933910892757 Eh       
E(C)               :       -1.782782748827 Eh       
E(XC)              :      -36.716693641584 Eh       

---------------
SCF CONVERGENCE
---------------

  Last Energy change         ...    2.2010e-07  Tolerance :   1.0000e-06
  Last MAX-Density change    ...    3.5134e-04  Tolerance :   1.0000e-05
  Last RMS-Density change    ...    2.4901e-05  Tolerance :   1.0000e-06
  Last DIIS Error            ...    1.1358e-03  Tolerance :   1.0000e-06
  Last Orbital Gradient      ...    2.0225e-04  Tolerance :   5.0000e-05
  Last Orbital Rotation      ...    4.0257e-04  Tolerance :   5.0000e-05


----------------
ORBITAL ENERGIES
----------------

  NO   OCC          E(Eh)            E(eV) 
   0   2.0000     -18.814666      -511.9731 
   1   2.0000     -18.754542      -510.3370 
   2   2.0000     -13.988484      -380.6460 
   3   2.0000     -10.029713      -272.9224 
   4   2.0000      -9.945492      -270.6306 
   5   2.0000      -1.021265       -27.7900 
   6   2.0000      -0.933120       -25.3915 
   7   2.0000      -0.810955       -22.0672 
   8   2.0000      -0.651944       -17.7403 
   9   2.0000      -0.551110       -14.9965 
  10   2.0000      -0.457094       -12.4382 
  11   2.0000      -0.442793       -12.0490 
  12   2.0000      -0.420151       -11.4329 
  13   2.0000      -0.392145       -10.6708 
  14   2.0000      -0.377228       -10.2649 
  15   2.0000      -0.338961        -9.2236 
  16   2.0000      -0.328187        -8.9304 
  17   2.0000      -0.275343        -7.4925 
  18   2.0000      -0.227467        -6.1897 
  19   2.0000      -0.196464        -5.3461 
  20   0.0000      -0.015832        -0.4308 
  21   0.0000       0.052208         1.4206 
  22   0.0000       0.068565         1.8658 
  23   0.0000       0.117223         3.1898 
  24   0.0000       0.121628         3.3097 
  25   0.0000       0.172153         4.6845 
  26   0.0000       0.197199         5.3661 
  27   0.0000       0.207176         5.6375 
  28   0.0000       0.279805         7.6139 
  29   0.0000       0.340525         9.2662 
  30   0.0000       0.505538        13.7564 
*Only the first 10 virtual orbitals were printed.

                    ********************************
                    * MULLIKEN POPULATION ANALYSIS *
                    ********************************

-----------------------
MULLIKEN ATOMIC CHARGES
-----------------------
   0 C :    0.475361
   1 O :   -0.412439
   2 O :   -0.451337
   3 C :   -0.160829
   4 H :    0.319153
   5 N :   -0.554690
   6 H :    0.145565
   7 H :    0.145563
   8 H :    0.246830
   9 H :    0.246823
Sum of atomic charges:   -0.0000000

--------------------------------
MULLIKEN REDUCED ORBITAL CHARGES
--------------------------------
  0 C s       :     2.985987  s :     2.985987
      pz      :     0.749341  p :     2.413874
      px      :     0.867123
      py      :     0.797411
      dz2     :     0.034039  d :     0.124777
      dxz     :     0.040405
      dyz     :     0.021646
      dx2y2   :     0.012638
      dxy     :     0.016050

  1 O s       :     3.854862  s :     3.854862
      pz      :     1.418271  p :     4.529449
      px      :     1.709375
      py      :     1.401802
      dz2     :     0.008916  d :     0.028128
      dxz     :     0.006291
      dyz     :     0.007817
      dx2y2   :     0.002908
      dxy     :     0.002196

  2 O s       :     3.820261  s :     3.820261
      pz      :     1.604636  p :     4.608481
      px      :     1.266122
      py      :     1.737722
      dz2     :     0.006541  d :     0.022595
      dxz     :     0.005702
      dyz     :     0.004588
      dx2y2   :     0.002768
      dxy     :     0.002995

  3 C s       :     3.213539  s :     3.213539
      pz      :     0.945741  p :     2.896644
      px      :     0.882675
      py      :     1.068227
      dz2     :     0.012506  d :     0.050646
      dxz     :     0.010673
      dyz     :     0.007238
      dx2y2   :     0.014615
      dxy     :     0.005614

  4 H s       :     0.642907  s :     0.642907
      pz      :     0.008252  p :     0.037941
      px      :     0.019306
      py      :     0.010383

  5 N s       :     3.583626  s :     3.583626
      pz      :     1.120800  p :     3.942576
      px      :     1.613516
      py      :     1.208260
      dz2     :     0.005895  d :     0.028488
      dxz     :     0.008122
      dyz     :     0.004339
      dx2y2   :     0.007656
      dxy     :     0.002477

  6 H s       :     0.843304  s :     0.843304
      pz      :     0.002295  p :     0.011131
      px      :     0.002313
      py      :     0.006523

  7 H s       :     0.843306  s :     0.843306
      pz      :     0.005178  p :     0.011132
      px      :     0.002694
      py      :     0.003259

  8 H s       :     0.729276  s :     0.729276
      pz      :     0.004924  p :     0.023895
      px      :     0.007497
      py      :     0.011474

  9 H s       :     0.729282  s :     0.729282
      pz      :     0.009635  p :     0.023895
      px      :     0.007545
      py      :     0.006715



                     *******************************
                     * LOEWDIN POPULATION ANALYSIS *
                     *******************************

----------------------
LOEWDIN ATOMIC CHARGES
----------------------
   0 C :    0.096275
   1 O :   -0.221579
   2 O :   -0.143007
   3 C :   -0.101918
   4 H :    0.182179
   5 N :   -0.252211
   6 H :    0.091449
   7 H :    0.091448
   8 H :    0.128683
   9 H :    0.128681

-------------------------------
LOEWDIN REDUCED ORBITAL CHARGES
-------------------------------
  0 C s       :     2.858398  s :     2.858398
      pz      :     0.937108  p :     2.746542
      px      :     0.970464
      py      :     0.838970
      dz2     :     0.082907  d :     0.298785
      dxz     :     0.099659
      dyz     :     0.051893
      dx2y2   :     0.027593
      dxy     :     0.036734

  1 O s       :     3.554745  s :     3.554745
      pz      :     1.487936  p :     4.608780
      px      :     1.707212
      py      :     1.413632
      dz2     :     0.017939  d :     0.058055
      dxz     :     0.013738
      dyz     :     0.017353
      dx2y2   :     0.004365
      dxy     :     0.004660

  2 O s       :     3.471275  s :     3.471275
      pz      :     1.620711  p :     4.621014
      px      :     1.289457
      py      :     1.710846
      dz2     :     0.012572  d :     0.050718
      dxz     :     0.015550
      dyz     :     0.006828
      dx2y2   :     0.009006
      dxy     :     0.006762

  3 C s       :     2.895714  s :     2.895714
      pz      :     1.014305  p :     3.092819
      px      :     0.994548
      py      :     1.083965
      dz2     :     0.027651  d :     0.113385
      dxz     :     0.024918
      dyz     :     0.014165
      dx2y2   :     0.033993
      dxy     :     0.012659

  4 H s       :     0.702081  s :     0.702081
      pz      :     0.024357  p :     0.115740
      px      :     0.060907
      py      :     0.030476

  5 N s       :     3.194916  s :     3.194916
      pz      :     1.174049  p :     3.999597
      px      :     1.598224
      py      :     1.227324
      dz2     :     0.013020  d :     0.057698
      dxz     :     0.016340
      dyz     :     0.010968
      dx2y2   :     0.013672
      dxy     :     0.003697

  6 H s       :     0.869129  s :     0.869129
      pz      :     0.007200  p :     0.039422
      px      :     0.006412
      py      :     0.025810

  7 H s       :     0.869131  s :     0.869131
      pz      :     0.020269  p :     0.039422
      px      :     0.008473
      py      :     0.010680

  8 H s       :     0.792651  s :     0.792651
      pz      :     0.012883  p :     0.078665
      px      :     0.022272
      py      :     0.043510

  9 H s       :     0.792655  s :     0.792655
      pz      :     0.034873  p :     0.078664
      px      :     0.024165
      py      :     0.019627



                      *****************************
                      * MAYER POPULATION ANALYSIS *
                      *****************************

  NA   - Mulliken gross atomic population
  ZA   - Total nuclear charge
  QA   - Mulliken gross atomic charge
  VA   - Mayer's total valence
  BVA  - Mayer's bonded valence
  FA   - Mayer's free valence

  ATOM       NA         ZA         QA         VA         BVA        FA
  0 C      5.5246     6.0000     0.4754     3.9717     3.9717    -0.0000
  1 O      8.4124     8.0000    -0.4124     2.1219     2.1219    -0.0000
  2 O      8.4513     8.0000    -0.4513     2.0281     2.0281     0.0000
  3 C      6.1608     6.0000    -0.1608     3.8578     3.8578     0.0000
  4 H      0.6808     1.0000     0.3192     0.9161     0.9161    -0.0000
  5 N      7.5547     7.0000    -0.5547     2.9175     2.9175    -0.0000
  6 H      0.8544     1.0000     0.1456     0.9467     0.9467    -0.0000
  7 H      0.8544     1.0000     0.1456     0.9467     0.9467    -0.0000
  8 H      0.7532     1.0000     0.2468     0.9215     0.9215     0.0000
  9 H      0.7532     1.0000     0.2468     0.9215     0.9215     0.0000

  Mayer bond orders larger than 0.100000
B(  0-C ,  1-O ) :   1.9441 B(  0-C ,  2-O ) :   1.0873 B(  0-C ,  3-C ) :   0.9057 
B(  2-O ,  4-H ) :   0.8511 B(  3-C ,  5-N ) :   1.0696 B(  3-C ,  6-H ) :   0.9336 
B(  3-C ,  7-H ) :   0.9336 B(  5-N ,  8-H ) :   0.9089 B(  5-N ,  9-H ) :   0.9089 


-------
TIMINGS
-------

Total SCF time: 0 days 0 hours 0 min 1 sec 

Total time                  ....       1.381 sec
Sum of individual times     ....       1.254 sec  ( 90.8%)

SCF preparation             ....       0.021 sec  (  1.5%)
Fock matrix formation       ....       1.221 sec  ( 88.4%)
  Startup                   ....       0.000 sec  (  0.0% of F)
  Split-RI-J                ....       0.291 sec  ( 23.8% of F)
  XC integration            ....       1.050 sec  ( 86.0% of F)
    XC Preparation          ....       0.000 sec  (  0.0% of XC)
    Basis function eval.    ....       0.349 sec  ( 33.3% of XC)
    Density eval.           ....       0.186 sec  ( 17.8% of XC)
    XC-Functional eval.     ....       0.272 sec  ( 25.9% of XC)
    XC-Potential eval.      ....       0.212 sec  ( 20.2% of XC)
Diagonalization             ....       0.000 sec  (  0.0%)
Density matrix formation    ....       0.001 sec  (  0.1%)
Total Energy calculation    ....       0.000 sec  (  0.0%)
Population analysis         ....       0.001 sec  (  0.1%)
Orbital Transformation      ....       0.001 sec  (  0.1%)
Orbital Orthonormalization  ....       0.000 sec  (  0.0%)
DIIS solution               ....       0.007 sec  (  0.5%)
SOSCF solution              ....       0.002 sec  (  0.1%)
Finished LeanSCF after   1.4 sec

Maximum memory used throughout the entire LEANSCF-calculation: 10.2 MB



-------------------------------------------------------------------------------
                          DFT DISPERSION CORRECTION                            
-------------------------------------------------------------------------------
Active option DFTDOPT                   ...         2   
Final C6-coefficient scaling factor     ...     1.250
Final VDW-radii scaling factor          ...     1.100
Damping factor alpha                    ...    20.000
-------------------------   ----------------
Dispersion correction           -0.007273845
-------------------------   ----------------


-------------------------   --------------------
FINAL SINGLE POINT ENERGY      -284.253117367950
-------------------------   --------------------


------------------------------------------------------------------------------
                              ORCA PROPERTY CALCULATIONS
------------------------------------------------------------------------------

GBWName                                 ... 0.gbw
Number of atoms                         ...     10
Number of basis functions               ...     95
Max core memory                         ...   4096 MB

Electric properties:
Dipole moment                           ... YES
Quadrupole moment                       ...  NO
Static polarizability (Dipole/Dipole)   ...  NO
Static polarizability (Dipole/Quad.)    ...  NO
Static polarizability (Quad./Quad.)     ...  NO
Static polarizability (Velocity)        ...  NO
Static hyperpolarizability              ...  NO

Atomic electric properties:
Dipole moment                           ...  NO
Quadrupole moment                       ...  NO
Static polarizability                   ...  NO

Choice of electric origin               ... Center of mass
Position of electric origin             ...    -9.540182    -0.098491    -4.766268

General magnetic properties:
Magnetizability                         ...  NO

EPR properties:
g-Tensor (aka g-matrix)                 ...  NO
Zero-Field splitting spin-orbit         ...  NO
Zero-field splitting spin-spin          ...  NO
Hyperfine couplings                     ...  NO (   0 nuclei)
Quadrupole couplings                    ...  NO (   0 nuclei)
Contact density                         ...  NO (   0 nuclei)

NMR properties:
Chemical shifts                         ...  NO (   0 nuclei)
Spin-rotation constants                 ...  NO (   0 nuclei)
Spin-spin couplings                     ...  NO (   0 nuclei,    0 pairs)

Choice of magnetic origin               ... GIAO
Position of magnetic origin             ...     0.000000     0.000000     0.000000

Properties with geometric perturbations:
SCF Hessian                             ...  NO
IR spectrum                             ...  NO
VCD spectrum                            ...  NO
X-ray spectroscopy properties:
SCF XES/XAS/RIXS spectra                ...  NO

SCF SOC stabilization energy            ...  NO
Diagonal Born-Oppenheimer correction    ...  NO

-------------
DIPOLE MOMENT
-------------

Method             : SCF
Type of density    : Electron Density
Multiplicity       :   1
Irrep              :   0
Energy             :  -284.2458435229300449 Eh
Basis              : AO
                                X                 Y                 Z
Electronic contribution:      3.557647949       0.849539930      -0.026412288
Nuclear contribution   :     -3.151514277      -0.911045880       0.367921100
                        -----------------------------------------
Total Dipole Moment    :      0.406133672      -0.061505950       0.341508812
                        -----------------------------------------
Magnitude (a.u.)       :      0.534187056
Magnitude (Debye)      :      1.357795590



--------------------
Rotational spectrum 
--------------------
 
Rotational constants in cm-1:             0.349882             0.130538             0.098292 
Rotational constants in MHz :         10489.186023          3913.423322          2946.725763 

Dipole components along the rotational axes: 
x,y,z [a.u.] :    -0.492187     0.207625     0.000131 
x,y,z [Debye]:    -1.251039     0.527740     0.000332 

 

Dipole moment calculation done in   0.0 sec 

Maximum memory used throughout the entire PROP-calculation: 5.8 MB

--------------------------------
SUGGESTED CITATIONS FOR THIS RUN
--------------------------------

Below you find a list of papers that are relevant to this ORCA run
We neither can nor want to force you to cite these papers, but we appreciate if you do
You receive ORCA, which is the product of decades of hard work by many enthusiastic individuals, for free
The only thing we kindly ask in return is that you cite our papers,
We deeply appreciate it, if you show your appreciation for ORCA by not just citing the generic ORCA reference.

Please note that relegating all ORCA citations to the supporting information does *not* help us.
SI sections are not indexed - citations you put there will not count into any citation statistics
But we need these citations in order to attract the funding resources that allow us to do what we are doing

Therefore, if you are a happy ORCA user, please consider citing a few of the papers listed below in the main body of your paper

In addition to the list printed below, the program has created the file 0.bibtex that contains the list in bibtex format
You can import this file easily into all common literature databanks and citation aid programs


List of essential papers. We consider these as the minimum necessary citations

  1. Neese, F.
     Software update: the ORCA program system, version 6.0
     WIRES Comput. Molec. Sci. 2025 15(1), e70019
     doi.org/10.1002/wcms.7019

List of papers to cite with high priority. The work reported in these papers was absolutely
necessary for this run to complete.
Our perspective: the developers of density functionals and basis sets usually get cited in chemistry papers
Good! But without the algorithms to do something with them, the functionals or basis sets would not do anything.
Hence, in our opinion, the algorithm design and method developments papers are equally worthy of getting cited

  1. Neese, F.
     An improvement of the resolution of the identity approximation for the formation of the Coulomb matrix
     J. Comp. Chem. 2003 24(14), 1740-1747
     doi.org/10.1002/jcc.10318
  2. Grimme, S.
     Semiempirical GGA-type density functional constructed with a long-range dispersion correction
     J.Comput.Chem. 2006 27(15), 1787-1799
     doi.org/10.1002/jcc.20495
  3. Neese, F.
     The SHARK Integral Generation and Digestion System
     J. Comp. Chem. 2022 44(3), 381
     doi.org/10.1002/jcc.26942

List of suggested additional citations. These are papers that are important in the 'surrounding' of 
of this run, or papers that preceded the highly important papers. If you like your results we are grateful for a citation.

  1. Neese, F.
     The ORCA program system
     WIRES Comput. Molec. Sci. 2012 2(1), 73-78
     doi.org/10.1002/wcms.81
  2. Neese, F.
     Software update: the ORCA program system, version 4.0
     WIRES Comput. Molec. Sci. 2018 8(1), 1-6
     doi.org/10.1002/wcms.1327
  3. Neese, F.; Wennmohs, F.; Becker, U.; Riplinger, C.
     The ORCA quantum chemistry program package
     J. Chem. Phys. 2020 152(22), 224108
     doi.org/10.1063/5.0004608
  4. Neese, F.
     Software update: The ORCA program system—Version 5.0
     WIRES Comput. Molec. Sci. 2022 12(1), e1606
     doi.org/10.1002/wcms.1606

List of optional additional citations

  1. Neese, F.
     Approximate second-order SCF convergence for spin unrestricted wavefunctions
     Chem. Phys. Lett. 2000 325(1-3), 93-98
     doi.org/10.1016/s0009-2614(00)00662-x

Timings for individual modules:

Sum of individual times          ...        1.730 sec (=   0.029 min)
Startup calculation              ...        0.205 sec (=   0.003 min)  11.9 %
SCF iterations                   ...        1.497 sec (=   0.025 min)  86.5 %
Property calculations            ...        0.027 sec (=   0.000 min)   1.6 %
                             ****ORCA TERMINATED NORMALLY****
TOTAL RUN TIME: 0 days 0 hours 0 minutes 1 seconds 773 msec
