
                                 *****************
                                 * O   R   C   A *
                                 *****************

                                            #,                                       
                                            ###                                      
                                            ####                                     
                                            #####                                    
                                            ######                                   
                                           ########,                                 
                                     ,,################,,,,,                         
                               ,,#################################,,                 
                          ,,##########################################,,             
                       ,#########################################, ''#####,          
                    ,#############################################,,   '####,        
                  ,##################################################,,,,####,       
                ,###########''''           ''''###############################       
              ,#####''   ,,,,##########,,,,          '''####'''          '####       
            ,##' ,,,,###########################,,,                        '##       
           ' ,,###''''                  '''############,,,                           
         ,,##''                                '''############,,,,        ,,,,,,###''
      ,#''                                            '''#######################'''  
     '                                                          ''''####''''         
             ,#######,   #######,   ,#######,      ##                                
            ,#'     '#,  ##    ##  ,#'     '#,    #''#        ,####,    ,#,          
            ##       ##  ##   ,#'  ##            #'  '#       #'       ,# #          
            ##       ##  #######   ##           ,######,      #####,      #          
            '#,     ,#'  ##    ##  '#,     ,#' ,#      #,     #,   #      #          
             '#######'   ##     ##  '#######'  #'      '#     '####' #    #          



                #########################################################
                #                        -***-                          #
                #          Department of theory and spectroscopy        #
                #                                                       #
                #                      Frank Neese                      #
                #                                                       #
                #     Directorship, Architecture, Infrastructure        #
                #                    SHARK, DRIVERS                     #
                #        Core code/Algorithms in most modules           #
                #                                                       #
                #        Max Planck Institute fuer Kohlenforschung      #
                #                Kaiser Wilhelm Platz 1                 #
                #                 D-45470 Muelheim/Ruhr                 #
                #                      Germany                          #
                #                                                       #
                #                  All rights reserved                  #
                #                        -***-                          #
                #########################################################


                         Program Version 6.1.0  -  RELEASE   -
                                (GIT: $679e74b$)
                          ($2025-06-10 18:02:51 +0200$)


 With contributions from (in alphabetic order):
[Max-Planck-Institut fuer Kohlenforschung]                               
  Daniel Aravena         : Magnetic Suceptibility                        
  Michael Atanasov       : Ab Initio Ligand Field Theory (pilot matlab implementation)
  Alexander A. Auer      : GIAO ZORA, VPT2 properties, NMR spectrum      
  Ute Becker             : All parallelization in ORCA, NUMFREQ, NUMCALC 
  Giovanni Bistoni       : ED, misc. LED, open-shell LED, HFLD           
  Dmytro Bykov           : pre 5.0 version of the SCF Hessian            
  Marcos Casanova-Páez   : Triplet and SCS-CIS(D). UHF-(DLPNO)-IP/EA/STEOM-CCSD. UHF-CVS-IP/STEOM-CCSD   
  Vijay G. Chilkuri      : MRCI spin determinant printing, contributions to CSF-ICE 
  Pauline Colinet        : FMM embedding                                 
  Dipayan Datta          : RHF DLPNO-CCSD density                        
  Achintya Kumar Dutta   : EOM-CC, STEOM-CC                              
  Nicolas Foglia         : Exact transition moments, OPA infrastructure, MCD improvements    
  Dmitry Ganyushin       : Spin-Orbit,Spin-Spin,Magnetic field MRCI      
  Miquel Garcia-Rates    : C-PCM and meta-GGA Hessian, CCSD/C-PCM, Gaussian charge scheme 
  Tiago L. C. Gouveia    : GS-ROHF, GS-ROCIS                             
  Yang Guo               : DLPNO-NEVPT2, F12-NEVPT2, CIM, IAO-localization        
  Andreas Hansen         : Spin unrestricted coupled pair/coupled cluster methods 
  Ingolf Harden          : AUTO-CI MPn and infrastructure                
  Benjamin Helmich-Paris : MC-RPA, TRAH-(SCF,CASSCF), AVAS, COSX integrals, SCF dyn. polar., MC-PDFT, srDFT 
  Lee Huntington         : MR-EOM, pCC                                   
  Robert Izsak           : Overlap fitted RIJCOSX, COSX-SCS-MP3, EOM     
  Riya Kayal             : Wick's Theorem for AUTO-CI, AUTO-CI UHF-CCSDT 
  Emily Kempfer          : AUTO-CI RHF CISDT and CCSDT, approximate NEVPT4
  Christian Kollmar      : KDIIS, OOCD, Brueckner-CCSD(T), CCSD density, CASPT2, CASPT2-K, improved NEVPT2 
  Axel Koslowski         : Symmetry handling                             
  Simone Kossmann        : meta-GGA functionals, TD-DFT gradient, OOMP2, (MP2 Hessian; deprecated post 5.0) 
  Lucas Lang             : DCDCAS, Hyperfine gauge corrections, ICE-SOC+SSC
  Marvin Lechner         : AUTO-CI (C++ implementation), FIC-MRCC        
  Spencer Leger          : CASSCF response                               
  Dagmar Lenk            : GEPOL surface, SMD, ORCA-2-JSON               
  Dimitrios Liakos       : Extrapolation schemes; Compound Job, Property file
  Dimitrios Manganas     : Further ROCIS development; embedding schemes. LFT, Crystal Embedding 
  Dimitrios Pantazis     : SARC Basis sets                               
  Anastasios Papadopoulos: AUTO-CI, single reference methods and gradients 
  Taras Petrenko         : pre 6.0 DFT Hessian and TD-DFT gradient,  ECA, NRVS 
  Petra Pikulova         : Analytic Raman intensities                    
  Peter Pinski           : DLPNO-MP2, DLPNO-MP2 Gradient                 
  Shashank Vittal Rao    : ES-AILFT, MagRelax                            
  Christoph Reimann      : Effective Core Potentials                     
  Marius Retegan         : Local ZFS, SOC                                
  Christoph Riplinger    : Optimizer, TS searches, QM/MM, DLPNO-CCSD(T), (RO)-DLPNO pert. Triples 
  Michael Roemelt        : Original ROCIS implementation, recursive CI coupling coefficients
  Masaaki Saitow         : Open-shell DLPNO-CCSD energy and density      
  Barbara Sandhoefer     : DKH picture change effects                    
  Yorick L. A. Schmerwitz: GMF and freeze-and-release deltaSCF, NEB S-IDPP initial path                    
  Kantharuban Sivalingam : CASSCF convergence/infrastructure, NEVPT2, NEVPT3, NEVPT4(SD), FIC-MRCI and CEPA variants
  Bernardo de Souza      : ESD, SOC TD-DFT                               
  Georgi L. Stoychev     : AutoAux, RI-MP2 NMR, DLPNO-MP2 response, X2C  
  Van Anh Tran           : RI-MP2 g-tensors                              
  Willem Van den Heuvel  : Paramagnetic NMR                              
  Zikuan Wang            : NOTCH, Electric field optimization            
  Frank Wennmohs         : Technical directorship and infrastructure     
  Hang Xu                : AUTO-CI-Response properties                   
                                                                         
[FACCTs GmbH]                                                            
  Markus Bursch, Nicolas Foglia, Miquel Garcia-Rates, Ingolf Harden, Hagen Neugebauer, Anastasios Papadopoulos, 
  Christoph Riplinger, Bernardo de Souza, Georgi L. Stoychev                                                    
                                                                 
  APM, various basis sets, CI-OPT, improved COSX, DLPNO-Multilevel,           
  DOCKER, DRACO, updates on ESD, Fragmentator, GOAT, IRC, LR-CPCM, L-BFGS, MBIS, meta-GGA TD-DFT gradient, ML-optimized integration grids, 
  MM, NACMEs, nearIR, NEB, NEB-TS, NL-DFT gradient (VV10), 2- and 3-layer-ONIOM, interface openCOSMO-RS, QMMM,   
  Crystal-QMMM, RESP, rigid body optimization, SF, symmetry and pop. for TD-DFT, various functionals, SOLVATOR                                   
                                                                         
[Other institutions]                                                     
  V. Asgeirsson          : NEB                                           
  Christoph Bannwarth    : sTDA-DFT, sTD-DFT, PBEh-3c, B97-3c, D3        
  Giovanni Bistoni       : ETS/NOCV, ADLD/ADEX, COVALED                  
  Martin Brehm           : Molecular dynamics                            
  Ronald Cardenas        : ETS/NOCV                                      
  Martina Colucci        : COVALED                                       
  Sebastian Ehlert       : rSCAN, r2SCAN, r2SCAN-3c, D4, dhf basis sets  
  Marvin Friede          : D4 for Fr, Ra, Ac-Lr                          
  Lars Goerigk           : TD-DFT with DH, B97 family of functionals     
  Stefan Grimme          : VdW corrections, initial TS optimization, DFT functionals, gCP, sTDA/sTD-DF 
  Waldemar Hujo          : DFT-NL                                        
  H. Jonsson             : NEB                                           
  Holger Kruse           : gCP                                           
  Marcel Mueller         : wB97X-3c, vDZP basis set                      
  Hagen Neugebauer       : wr2SCAN, Native XTB                           
  Gianluca Regni         : ADLD/ADEX                                     
  Tobias Risthaus        : pre 6.0 range-separated hybrid DFT and stability analysis
  Lukas Wittmann         : regularized MP2, r2SCAN double-hybrids, wr2SCAN        
                                                                         
We gratefully acknowledge several colleagues who have allowed us to      
interface, adapt or use parts of their codes:                            
  Ed Valeev, F. Pavosevic, A. Kumar             : LibInt (2-el integral package), F12 methods 
  Garnet Chan, S. Sharma, J. Yang, R. Olivares  : DMRG                   
  Ulf Ekstrom                                   : XCFun DFT Library      
  Mihaly Kallay                                 : mrcc  (arbitrary order and MRCC methods)
  Frank Weinhold                                : gennbo (NPA and NBO analysis)           
  Simon Mueller                                 : openCOSMO-RS                            
  Christopher J. Cramer and Donald G. Truhlar   : smd solvation model                     
  S Lehtola, MJT Oliveira, MAL Marques          : LibXC Library                           
  Liviu Ungur et al                             : ANISO software                          


 Your calculation uses the libint2 library for the computation of 2-el integrals
 For citations please refer to: http://libint.valeyev.net

 Your ORCA version has been built with support for libXC version: 7.0.0
 For citations please refer to: https://libxc.gitlab.io

 This ORCA versions uses:
   CBLAS   interface :  Fast vector & matrix operations
   LAPACKE interface :  Fast linear algebra routines
   SCALAPACK package :  Parallel linear algebra routines
   Shared memory     :  Shared parallel matrices
   BLAS/LAPACK       :  OpenBLAS 0.3.29  USE64BITINT DYNAMIC_ARCH NO_AFFINITY Haswell SINGLE_THREADED
        Core in use  :  Haswell
   Copyright (c) 2011-2014, The OpenBLAS Project


  ***********************************
  * Starting time: Sat Aug 30 16:14:16 2025
  * Host name:     chemlab03
  * Process ID:    82022
  * Working dir.:  /home/vivek/mm-project/vivek/xtb-goat/B97-D-opt/i/4
  ***********************************



***************************************
The coordinates will be read from file: /home/vivek/mm-project/vivek/xtb-goat/xtb-goat/i/I_CONF/4.xyz
***************************************


Your calculation utilizes empirical dispersion correction


Warning: RI is on but no J-basis has been assigned. Assigning Def2/J (nothing to worry about!)
================================================================================

----- Orbital basis set information -----
Your calculation utilizes the basis: 6-31G**
   H-He, Li-Ne : W. J. Hehre, R. Ditchfield and J.A. Pople, J. Chem. Phys. 56, 2257 (1972).
                 Note: He and Ne are unpublished basis sets taken from the Gaussian program.
                 Note: Li and B from J. D. Dill and J. A. Pople, J. Chem. Phys. 62, 2921 (1975).
   Na - Ar     : M. M. Francl, W. J. Pietro, W. J. Hehre, J. S. Binkley, M. S. Gordon, 
                 D. J. DeFrees and J. A. Pople, J. Chem. Phys. 77, 3654 (1982).
   K - Zn      : V. A. Rassolov, J. A. Pople, M. A. Ratner, and T. L. Windus, J. Chem. Phys. 109, 1223 (1998).

----- AuxJ basis set information -----
Your calculation utilizes the auxiliary basis: def2/J
   H-Rn: F. Weigend, Phys. Chem. Chem. Phys. 8, 1057 (2006).
   Fr-Lr: K. Eichkorn, F. Weigend, O. Treutler, R. Ahlrichs; Theor. Chem. Acc. 97, 119 (1997).

================================================================================
                                        WARNINGS
                       Please study these warnings very carefully!
================================================================================


WARNING: Geometry Optimization
  ===> : Switching off AutoStart
         For restart on a previous wavefunction, please use MOREAD

INFO   : The exchange functional is Grimme's B97(-D)
         As described in S. Grimme, J. Comput. Chem. 27, 1787 (2006).
         Note that this functional defaults to a pure GGA. 

INFO   : The correlation functional is Grimme's B97(-D)
         As described in S. Grimme, J. Comput. Chem. 27, 1787 (2006).

================================================================================
                                       INPUT FILE
================================================================================
NAME = 4.inp
|  1> ! B97-D 6-31G** opt
|  2> 
|  3> * xyzfile 0 1 /home/vivek/mm-project/vivek/xtb-goat/xtb-goat/i/I_CONF/4.xyz
|  4> 
|  5>                          ****END OF INPUT****
================================================================================

                       *****************************
                       * Geometry Optimization Run *
                       *****************************

Geometry optimization settings:
Update method            Update   .... BFGS
Choice of coordinates    CoordSys .... (2022) Redundant Internals
Initial Hessian          InHess   .... Almloef's Model
Max. no of cycles        MaxIter  .... 66

Convergence Tolerances:
Energy Change            TolE     ....  5.0000e-06 Eh
Max. Gradient            TolMAXG  ....  3.0000e-04 Eh/bohr
RMS Gradient             TolRMSG  ....  1.0000e-04 Eh/bohr
Max. Displacement        TolMAXD  ....  4.0000e-03 bohr
RMS Displacement         TolRMSD  ....  2.0000e-03 bohr
Strict Convergence                .... False

------------------------------------------------------------------------------
                        ORCA OPTIMIZATION COORDINATE SETUP
------------------------------------------------------------------------------

The optimization will be done in redundant internal coordinates (2022)
Making redundant internal coordinates   ...  (2022 redundants) done
Evaluating the initial hessian          ...  (Almloef) done
Evaluating the coordinates              ...  done
Calculating the B-matrix                .... done
Calculating the G-matrix                .... done
The number of degrees of freedom        ....   94

    -----------------------------------------------------------------
                    Redundant Internal Coordinates


    -----------------------------------------------------------------
         Definition                    Initial Value    Approx d2E/dq
    -----------------------------------------------------------------
      1. B(C   1,C   0)                  1.5241         0.381771   
      2. B(C   2,C   0)                  1.5343         0.367728   
      3. B(C   5,C   2)                  1.5450         0.353503   
      4. B(C   7,C   2)                  1.5269         0.377833   
      5. B(C   8,C   5)                  1.5214         0.385513   
      6. B(H   9,C   7)                  1.0875         0.363469   
      7. B(N  10,H   3)                  1.0161         0.423110   
      8. B(N  10,C   5)                  1.4531         0.443839   
      9. B(N  10,H   4)                  1.0146         0.425430   
     10. B(O  11,C   8)                  1.3382         0.676963   
     11. B(O  11,H   6)                  0.9711         0.499112   
     12. B(H  12,C   1)                  1.0862         0.365099   
     13. B(O  13,C   8)                  1.2038         1.109090   
     14. B(H  14,C   2)                  1.0965         0.351605   
     15. B(H  15,C   7)                  1.0879         0.362918   
     16. B(H  16,C   7)                  1.0868         0.364322   
     17. B(H  17,C   5)                  1.0932         0.355940   
     18. B(H  18,C   0)                  1.0924         0.356996   
     19. B(H  19,C   0)                  1.0904         0.359545   
     20. B(H  20,C   1)                  1.0876         0.363287   
     21. B(H  21,C   1)                  1.0867         0.364467   
     22. A(H  18,C   0,H  19)          108.1595         0.290374   
     23. A(C   1,C   0,C   2)          114.8779         0.363720   
     24. A(C   1,C   0,H  19)          109.0073         0.325395   
     25. A(C   2,C   0,H  18)          108.0471         0.323021   
     26. A(C   2,C   0,H  19)          107.7198         0.323398   
     27. A(C   1,C   0,H  18)          108.8392         0.325015   
     28. A(C   0,C   1,H  20)          109.5321         0.325950   
     29. A(H  20,C   1,H  21)          108.0713         0.291795   
     30. A(C   0,C   1,H  12)          111.0486         0.326217   
     31. A(H  12,C   1,H  20)          107.9327         0.291874   
     32. A(H  12,C   1,H  21)          108.8120         0.292023   
     33. A(C   0,C   1,H  21)          111.3358         0.326124   
     34. A(C   0,C   2,C   7)          112.4316         0.363076   
     35. A(C   0,C   2,C   5)          110.6029         0.358978   
     36. A(C   5,C   2,H  14)          106.5956         0.320143   
     37. A(C   0,C   2,H  14)          107.2517         0.322216   
     38. A(C   5,C   2,C   7)          111.2279         0.360639   
     39. A(C   7,C   2,H  14)          108.4532         0.323652   
     40. A(C   8,C   5,H  17)          108.2526         0.325378   
     41. A(C   2,C   5,H  17)          109.8280         0.320785   
     42. A(N  10,C   5,H  17)          109.0817         0.331029   
     43. A(C   2,C   5,C   8)          108.9677         0.361879   
     44. A(C   8,C   5,N  10)          111.2221         0.373939   
     45. A(C   2,C   5,N  10)          109.4699         0.368403   
     46. A(C   2,C   7,H   9)          109.9588         0.325421   
     47. A(H  15,C   7,H  16)          108.1604         0.291730   
     48. A(H   9,C   7,H  16)          108.8364         0.291800   
     49. A(C   2,C   7,H  16)          111.0040         0.325546   
     50. A(H   9,C   7,H  15)          108.0510         0.291622   
     51. A(C   2,C   7,H  15)          110.7485         0.325340   
     52. A(C   5,C   8,O  13)          124.4971         0.439571   
     53. A(C   5,C   8,O  11)          112.8706         0.402508   
     54. A(O  11,C   8,O  13)          122.6116         0.483941   
     55. A(H   3,N  10,H   4)          107.3859         0.301355   
     56. A(H   4,N  10,C   5)          110.4515         0.338061   
     57. A(H   3,N  10,C   5)          109.1179         0.337753   
     58. A(H   6,O  11,C   8)          110.6877         0.373122   
     59. D(H  20,C   1,C   0,H  19)     58.1139         0.011611   
     60. D(H  12,C   1,C   0,H  18)   -178.7656         0.011611   
     61. D(H  12,C   1,C   0,H  19)    -61.0021         0.011611   
     62. D(H  12,C   1,C   0,C   2)     59.9671         0.011611   
     63. D(H  20,C   1,C   0,H  18)    -59.6497         0.011611   
     64. D(H  20,C   1,C   0,C   2)    179.0830         0.011611   
     65. D(C   5,C   2,C   0,C   1)    -70.3458         0.010818   
     66. D(C   7,C   2,C   0,H  19)    176.3326         0.010818   
     67. D(C   7,C   2,C   0,H  18)    -67.0376         0.010818   
     68. D(C   7,C   2,C   0,C   1)     54.6610         0.010818   
     69. D(C   5,C   2,C   0,H  18)    167.9556         0.010818   
     70. D(C   5,C   2,C   0,H  19)     51.3257         0.010818   
     71. D(C   8,C   5,C   2,H  14)    -63.4633         0.010052   
     72. D(C   8,C   5,C   2,C   7)     54.5772         0.010052   
     73. D(C   8,C   5,C   2,C   0)   -179.7361         0.010052   
     74. D(N  10,C   5,C   2,H  14)     58.3726         0.010052   
     75. D(N  10,C   5,C   2,C   7)    176.4131         0.010052   
     76. D(N  10,C   5,C   2,C   0)    -57.9002         0.010052   
     77. D(H  15,C   7,C   2,H  14)     46.9906         0.011385   
     78. D(H  15,C   7,C   2,C   5)    -69.9219         0.011385   
     79. D(H  15,C   7,C   2,C   0)    165.4144         0.011385   
     80. D(H   9,C   7,C   2,H  14)    -72.3568         0.011385   
     81. D(H   9,C   7,C   2,C   5)    170.7307         0.011385   
     82. D(H   9,C   7,C   2,C   0)     46.0671         0.011385   
     83. D(O  13,C   8,C   5,N  10)    -39.9602         0.011071   
     84. D(O  13,C   8,C   5,C   2)     80.8070         0.011071   
     85. D(O  11,C   8,C   5,H  17)     18.5928         0.011071   
     86. D(O  11,C   8,C   5,N  10)    138.4174         0.011071   
     87. D(O  11,C   8,C   5,C   2)   -100.8153         0.011071   
     88. D(H   3,N  10,C   5,C   8)     54.9423         0.016800   
     89. D(H   3,N  10,C   5,C   2)    -65.5292         0.016800   
     90. D(H   4,N  10,C   5,C   8)    -62.8837         0.016800   
     91. D(H   4,N  10,C   5,C   2)    176.6448         0.016800   
     92. D(H   3,N  10,C   5,H  17)    174.2733         0.016800   
     93. D(H   6,O  11,C   8,O  13)     -1.8967         0.034106   
     94. D(H   6,O  11,C   8,C   5)    179.6906         0.034106   
    -----------------------------------------------------------------

Number of atoms                         .... 22
Number of degrees of freedom            .... 94


         *************************************************************
         *                GEOMETRY OPTIMIZATION CYCLE   1            *
         *************************************************************
---------------------------------
CARTESIAN COORDINATES (ANGSTROEM)
---------------------------------
  C     -9.648891    4.456466   -0.867344
  C     -9.849828    5.962868   -0.752301
  C     -8.498883    3.892329   -0.022781
  H     -7.002307    2.871138   -1.996708
  H     -6.155532    4.216049   -2.386864
  C     -7.134539    4.333332   -0.598289
  H     -4.807360    4.231245    1.654708
  C     -8.622761    4.264424    1.452912
  C     -6.023221    3.749499    0.261293
  H     -9.641511    4.095885    1.793973
  N     -7.023133    3.886831   -1.976580
  O     -5.508852    4.637598    1.120017
  H     -8.959881    6.500331   -1.067038
  O     -5.614450    2.620700    0.172859
  H     -8.537089    2.799946   -0.109666
  H     -7.958368    3.654516    2.061249
  H     -8.366872    5.308303    1.614255
  H     -7.054138    5.423115   -0.568062
  H    -10.569908    3.953563   -0.563932
  H     -9.450753    4.203159   -1.909262
  H    -10.671532    6.270246   -1.395106
  H    -10.092275    6.252743    0.266596

----------------------------
CARTESIAN COORDINATES (A.U.)
----------------------------
  NO LB      ZA    FRAG     MASS         X           Y           Z
   0 C     6.0000    0    12.011  -18.233762    8.421500   -1.639044
   1 C     6.0000    0    12.011  -18.613478   11.268187   -1.421643
   2 C     6.0000    0    12.011  -16.060561    7.355435   -0.043049
   3 H     1.0000    0     1.008  -13.232442    5.425665   -3.773231
   4 H     1.0000    0     1.008  -11.632270    7.967178   -4.510520
   5 C     6.0000    0    12.011  -13.482325    8.188811   -1.130603
   6 H     1.0000    0     1.008   -9.084593    7.995895    3.126945
   7 C     6.0000    0    12.011  -16.294656    8.058593    2.745605
   8 C     6.0000    0    12.011  -11.382238    7.085526    0.493773
   9 H     1.0000    0     1.008  -18.219815    7.740102    3.390118
  10 N     7.0000    0    14.007  -13.271798    7.345047   -3.735195
  11 O     8.0000    0    15.999  -10.410221    8.763790    2.116526
  12 H     1.0000    0     1.008  -16.931721   12.283846   -2.016410
  13 O     8.0000    0    15.999  -10.609773    4.952404    0.326656
  14 H     1.0000    0     1.008  -16.132761    5.291131   -0.207240
  15 H     1.0000    0     1.008  -15.039136    6.906035    3.895196
  16 H     1.0000    0     1.008  -15.811097   10.031238    3.050501
  17 H     1.0000    0     1.008  -13.330390   10.248202   -1.073482
  18 H     1.0000    0     1.008  -19.974232    7.471152   -1.065678
  19 H     1.0000    0     1.008  -17.859335    7.942820   -3.607982
  20 H     1.0000    0     1.008  -20.166273   11.849047   -2.636368
  21 H     1.0000    0     1.008  -19.071635   11.815973    0.503793

--------------------------------
INTERNAL COORDINATES (ANGSTROEM)
--------------------------------
 C      0   0   0     0.000000000000     0.00000000     0.00000000
 C      1   0   0     1.524092197653     0.00000000     0.00000000
 C      1   2   0     1.534294212420   114.87791508     0.00000000
 H      3   1   2     2.679357858337    98.81617244   240.49773540
 H      4   3   1     1.636469959407    98.71006386    85.96201020
 C      3   1   2     1.545033125094   110.60292832   289.65421745
 H      6   3   1     3.240707109423   111.47983750   157.31831142
 C      3   1   2     1.526914679384   112.43162845    54.66104625
 C      6   3   1     1.521437443273   108.96767860   180.26389424
 H      8   3   1     1.087465069818   109.95878333    46.06708818
 N      5   4   3     1.014617608685    36.33791223   334.77924620
 O      7   6   3     0.971137083391    23.84043804   266.70995878
 H      2   1   3     1.086247383733   111.04863414    59.96710566
 O      9   6   3     1.203786784895   124.49709310    80.80704030
 H      3   1   2     1.096498680636   107.25172720   173.78949276
 H      8   3   1     1.087878382377   110.74852748   165.41444073
 H      8   3   1     1.086827395012   111.00399341   285.57782109
 H      6   3   1     1.093162673992   109.82802426    61.84011225
 H      1   2   3     1.092356474047   108.83916574   121.26726152
 H      1   2   3     1.090419865839   109.00726634   239.03084364
 H      2   1   3     1.087601309503   109.53208375   179.08301294
 H      2   1   3     1.086719060182   111.33582107   298.55020585

---------------------------
INTERNAL COORDINATES (A.U.)
---------------------------
 C      0   0   0     0.000000000000     0.00000000     0.00000000
 C      1   0   0     2.880116856411     0.00000000     0.00000000
 C      1   2   0     2.899395870334   114.87791508     0.00000000
 H      3   1   2     5.063252567027    98.81617244   240.49773540
 H      4   3   1     3.092480049668    98.71006386    85.96201020
 C      3   1   2     2.919689474264   110.60292832   289.65421745
 H      6   3   1     6.124048917061   111.47983750   157.31831142
 C      3   1   2     2.885450573899   112.43162845    54.66104625
 C      6   3   1     2.875100097679   108.96767860   180.26389424
 H      8   3   1     2.055011162162   109.95878333    46.06708818
 N      5   4   3     1.917349411069    36.33791223   334.77924620
 O      7   6   3     1.835183126104    23.84043804   266.70995878
 H      2   1   3     2.052710068943   111.04863414    59.96710566
 O      9   6   3     2.274827347085   124.49709310    80.80704030
 H      3   1   2     2.072082212609   107.25172720   173.78949276
 H      8   3   1     2.055792209705   110.74852748   165.41444073
 H      8   3   1     2.053806131415   111.00399341   285.57782109
 H      6   3   1     2.065778073669   109.82802426    61.84011225
 H      1   2   3     2.064254576564   108.83916574   121.26726152
 H      1   2   3     2.060594917424   109.00726634   239.03084364
 H      2   1   3     2.055268617855   109.53208375   179.08301294
 H      2   1   3     2.053601408256   111.33582107   298.55020585

---------------------
BASIS SET INFORMATION
---------------------
There are 4 groups of distinct atoms

 Group   1 Type C   : 10s4p1d contracted to 3s2p1d pattern {631/31/1}
 Group   2 Type H   : 4s1p contracted to 2s1p pattern {31/1}
 Group   3 Type N   : 10s4p1d contracted to 3s2p1d pattern {631/31/1}
 Group   4 Type O   : 10s4p1d contracted to 3s2p1d pattern {631/31/1}

Atom   0C    basis set group =>   1
Atom   1C    basis set group =>   1
Atom   2C    basis set group =>   1
Atom   3H    basis set group =>   2
Atom   4H    basis set group =>   2
Atom   5C    basis set group =>   1
Atom   6H    basis set group =>   2
Atom   7C    basis set group =>   1
Atom   8C    basis set group =>   1
Atom   9H    basis set group =>   2
Atom  10N    basis set group =>   3
Atom  11O    basis set group =>   4
Atom  12H    basis set group =>   2
Atom  13O    basis set group =>   4
Atom  14H    basis set group =>   2
Atom  15H    basis set group =>   2
Atom  16H    basis set group =>   2
Atom  17H    basis set group =>   2
Atom  18H    basis set group =>   2
Atom  19H    basis set group =>   2
Atom  20H    basis set group =>   2
Atom  21H    basis set group =>   2
---------------------------------
AUXILIARY/J BASIS SET INFORMATION
---------------------------------
There are 4 groups of distinct atoms

 Group   1 Type C   : 12s5p4d2f1g contracted to 6s4p3d1f1g pattern {711111/2111/211/2/1}
 Group   2 Type H   : 5s2p1d contracted to 3s1p1d pattern {311/2/1}
 Group   3 Type N   : 12s5p4d2f1g contracted to 6s4p3d1f1g pattern {711111/2111/211/2/1}
 Group   4 Type O   : 12s5p4d2f1g contracted to 6s4p3d1f1g pattern {711111/2111/211/2/1}

Atom   0C    basis set group =>   1
Atom   1C    basis set group =>   1
Atom   2C    basis set group =>   1
Atom   3H    basis set group =>   2
Atom   4H    basis set group =>   2
Atom   5C    basis set group =>   1
Atom   6H    basis set group =>   2
Atom   7C    basis set group =>   1
Atom   8C    basis set group =>   1
Atom   9H    basis set group =>   2
Atom  10N    basis set group =>   3
Atom  11O    basis set group =>   4
Atom  12H    basis set group =>   2
Atom  13O    basis set group =>   4
Atom  14H    basis set group =>   2
Atom  15H    basis set group =>   2
Atom  16H    basis set group =>   2
Atom  17H    basis set group =>   2
Atom  18H    basis set group =>   2
Atom  19H    basis set group =>   2
Atom  20H    basis set group =>   2
Atom  21H    basis set group =>   2
------------------------------------------------------------------------------
                             ORCA STARTUP CALCULATIONS
                           -- RI-GTO INTEGRALS CHOSEN --
------------------------------------------------------------------------------
------------------------------------------------------------------------------
                   ___                                                        
                  /   \      - P O W E R E D   B Y -                         
                 /     \                                                     
                 |  |  |   _    _      __       _____    __    __             
                 |  |  |  | |  | |    /  \     |  _  \  |  |  /  |          
                  \  \/   | |  | |   /    \    | | | |  |  | /  /          
                 / \  \   | |__| |  /  /\  \   | |_| |  |  |/  /          
                |  |  |   |  __  | /  /__\  \  |    /   |      \           
                |  |  |   | |  | | |   __   |  |    \   |  |\   \          
                \     /   | |  | | |  |  |  |  | |\  \  |  | \   \       
                 \___/    |_|  |_| |__|  |__|  |_| \__\ |__|  \__/        
                                                                              
                      - O R C A' S   B I G   F R I E N D -                    
                                      &                                       
                       - I N T E G R A L  F E E D E R -                       
                                                                              
 v1 FN, 2020, v2 2021, v3 2022-2024                                           
------------------------------------------------------------------------------


----------------------
SHARK INTEGRAL PACKAGE
----------------------

Number of atoms                             ...     22
Number of basis functions                   ...    191
Number of shells                            ...     93
Maximum angular momentum                    ...      2
Integral batch strategy                     ... SHARK/LIBINT Hybrid
RI-J (if used) integral strategy            ... SPLIT-RIJ (Revised 2003 algorithm where possible)
Printlevel                                  ...      1
Contraction scheme used                     ... SEGMENTED contraction
Prescreening option                         ... SCHWARTZ
   Thresh                                   ... 2.500e-11
   Tcut                                     ... 2.500e-12
   Tpresel                                  ... 2.500e-12 
Coulomb Range Separation                    ... NOT USED
Exchange Range Separation                   ... NOT USED
Multipole approximations                    ... NOT USED
Finite Nucleus Model                        ... NOT USED
CABS basis                                  ... NOT available
Auxiliary Coulomb fitting basis             ... AVAILABLE
   # of basis functions in Aux-J            ...    584
   # of shells in Aux-J                     ...    200
   Maximum angular momentum in Aux-J        ...      4
Auxiliary J/K fitting basis                 ... NOT available
Auxiliary Correlation fitting basis         ... NOT available
Auxiliary 'external' fitting basis          ... NOT available

Checking pre-screening integrals            ... done (  0.0 sec) Dimension = 93
   => SHARK Basis and OBASIS are compatible. Storing Pre-screening
Shell pair information
Shell pair cut-off parameter TPreSel        ...   2.5e-12
Total number of shell pairs                 ...      4371
Shell pairs after pre-screening             ...      3989
Total number of primitive shell pairs       ...     20328
Primitive shell pairs kept                  ...     12408
          la=0 lb=0:   1313 shell pairs
          la=1 lb=0:   1491 shell pairs
          la=1 lb=1:    447 shell pairs
          la=2 lb=0:    441 shell pairs
          la=2 lb=1:    254 shell pairs
          la=2 lb=2:     43 shell pairs

Checking whether 4 symmetric matrices of dimension 191 fit in memory
:Max Core in MB      =   4096.00
 MB in use           =      8.73
 MB left             =   4087.27
 MB needed           =      0.56
 Data fit in memory  = YES
Calculating RI/J V-Matrix + Cholesky decomp.... done (  0.0 sec)
Calculating Nuclear repulsion               ... done (  0.0 sec) ENN=    495.201590789971 Eh

Diagonalization of the overlap matrix:
Smallest eigenvalue                        ... 2.769e-03
Time for diagonalization                   ...    0.002 sec
Threshold for overlap eigenvalues          ... 1.000e-07
Number of eigenvalues below threshold      ... 0
Time for construction of square roots      ...    0.001 sec
Total time needed                          ...    0.003 sec

-------------------
DFT GRID GENERATION
-------------------

General Integration Accuracy     IntAcc      ... 4.388
Radial Grid Type                 RadialGrid  ... OptM3 with GC (2021)
Angular Grid (max. ang.)         AngularGrid ... 4 (Lebedev-302)
Angular grid pruning method      GridPruning ... 4 (adaptive)
Weight generation scheme         WeightScheme... mBecke (2022)
Basis function cutoff            BFCut       ... 1.0000e-11
Integration weight cutoff        WCut        ... 1.0000e-14
Partially contracted basis set               ... off
Rotationally invariant grid construction     ... off
Angular grids for H and He will be reduced by one unit

Total number of grid points                  ...    95441
Total number of batches                      ...     1502
Average number of points per batch           ...       63
Average number of grid points per atom       ...     4338
Grids setup in   0.4 sec
Initializing property integral containers    ... done (  0.0 sec)

SHARK setup successfully completed in   0.5 seconds

Maximum memory used throughout the entire STARTUP-calculation: 40.7 MB
-------------------------------------------------------------------------------
                                 ORCA GUESS
                   Start orbitals & Density for SCF / CASSCF
-------------------------------------------------------------------------------

------------
SCF SETTINGS
------------
Hamiltonian:
 Density Functional     Method          .... DFT(GTOs)
 Exchange Functional    Exchange        .... B97(D)
 Correlation Functional Correlation     .... B97(D)
 Gradients option       PostSCFGGA      .... off
 RI-approximation to the Coulomb term is turned on
   Number of AuxJ basis functions       .... 584


General Settings:
 Integral files         IntName         .... 4
 Hartree-Fock type      HFTyp           .... RHF
 Total Charge           Charge          ....    0
 Multiplicity           Mult            ....    1
 Number of Electrons    NEL             ....   72
 Basis Dimension        Dim             ....  191
 Nuclear Repulsion      ENuc            ....    495.2015907900 Eh

Convergence Acceleration:
 AO-DIIS                CNVDIIS         .... on
   Start iteration      DIISMaxIt       ....    12
   Startup error        DIISStart       ....  0.200000
   # of expansion vecs  DIISMaxEq       ....     5
   Bias factor          DIISBfac        ....   1.050
   Max. coefficient     DIISMaxC        ....  10.000
 MO-DIIS                CNVKDIIS        .... off
 Trust-Rad. Augm. Hess. CNVTRAH         .... auto
   Auto Start mean grad. ratio tolernc. ....  1.125000
   Auto Start start iteration           ....    50
   Auto Start num. interpolation iter.  ....    10
   Max. Number of Micro iterations      ....    24
   Max. Number of Macro iterations      .... Maxiter - #DIIS iter
   Number of Davidson start vectors     ....     2
   Converg. threshold    (grad. norm)   ....   1.000e-05
   Grad. Scal. Fac. for Micro threshold ....   0.100
   Minimum threshold for Micro iter.    ....   1.000e-02
   NR start threshold (gradient norm)   ....   1.000e-04
   Initial trust radius                 ....   0.400
   Minimum AH scaling param. (alpha)    ....   1.000
   Maximum AH scaling param. (alpha)    .... 1000.000
   Quad. conv. algorithm                .... NR
   White noise on init. David. guess    .... on
   Maximum white noise                  ....   0.010
   Pseudo random numbers                .... off
   Inactive MOs                         .... canonical
   Orbital update algorithm             .... Taylor
   Preconditioner                       .... Diag
   Full preconditioner red. dimension   ....   250
 SOSCF                 CNVSOSCF           .... on
   Start iteration     SOSCFMaxIt         ....   150
   Startup grad/error  SOSCFStart         ....  0.003300
   Hessian update      SOSCFHessUp        .... L-BFGS
   Autom. constraints  SOSCFAutoConstrain .... off
 Level Shifting         CNVShift        .... on
   Level shift para.    LevelShift      ....    0.2500
   Turn off err/grad.   ShiftErr        ....    0.0010
 Zerner damping         CNVZerner       .... off
 Static damping         CNVDamp         .... on
   Fraction old density DampFac         ....    0.7000
   Max. Damping (<1)    DampMax         ....    0.9800
   Min. Damping (>=0)   DampMin         ....    0.0000
   Turn off err/grad.   DampErr         ....    0.1000

SCF Procedure:
 Maximum # iterations   MaxIter         ....   125
 SCF integral mode      SCFMode         .... Direct
   Integral package                     .... SHARK and LIBINT hybrid scheme
 Reset frequency        DirectResetFreq ....    20
 Integral Threshold     Thresh          ....  2.500e-11 Eh
 Primitive CutOff       TCut            ....  2.500e-12 Eh

Convergence Tolerance:
 Convergence Check Mode ConvCheckMode   .... Total+1el-Energy
 Convergence forced     ConvForced      .... 0
 Energy Change          TolE            ....  1.000e-08 Eh
 1-El. energy change                    ....  1.000e-05 Eh
 Orbital Gradient       TolG            ....  1.000e-05
 Orbital Rotation angle TolX            ....  1.000e-05
 DIIS Error             TolErr          ....  5.000e-07

------------------------------
INITIAL GUESS: MODEL POTENTIAL
------------------------------
Loading Hartree-Fock densities                     ... done
Calculating cut-offs                               ... done
Initializing the effective Hamiltonian             ... done
Setting up the integral package (SHARK)            ... done
Starting the Coulomb interaction                   ... done (   0.1 sec)
Making the grid                                    ... done (   0.1 sec)
Mapping shells                                     ... done
Starting the XC term evaluation                    ... done (   0.1 sec)
  promolecular density results
     # of electrons  =     71.995590625
     EX              =    -56.845039403
     EC              =     -3.119258543
     EX+EC           =    -59.964297946
Transforming the Hamiltonian                       ... done (   0.0 sec)
Diagonalizing the Hamiltonian                      ... done (   0.0 sec)
Back transforming the eigenvectors                 ... done (   0.0 sec)
Now organizing SCF variables                       ... done
                      ------------------
                      INITIAL GUESS DONE (   0.3 sec)
                      ------------------
             **** ENERGY FILE WAS UPDATED (4.en.tmp) ****
Finished Guess after   0.3 sec
Maximum memory used throughout the entire GUESS-calculation: 13.9 MB

-------------------------------------------------------------------------------------------
                                      ORCA LEAN-SCF
                              memory conserving SCF solver
-------------------------------------------------------------------------------------------

----------------------------------------D-I-I-S--------------------------------------------
Iteration    Energy (Eh)           Delta-E    RMSDP     MaxDP     DIISErr   Damp  Time(sec)
-------------------------------------------------------------------------------------------
               ***  Starting incremental Fock matrix formation  ***
    1    -441.0164146344229721     0.00e+00  3.56e-03  9.93e-02  2.60e-01  0.700   0.6
    2    -441.1947801353683190    -1.78e-01  2.35e-03  5.08e-02  9.66e-02  0.700   0.6
                               ***Turning on AO-DIIS***
    3    -441.2505440289008902    -5.58e-02  8.98e-04  1.62e-02  2.54e-02  0.700   0.5
    4    -441.2862265919063702    -3.57e-02  1.18e-03  1.88e-02  1.15e-02  0.000   0.5
    5    -441.3688970326847993    -8.27e-02  4.03e-04  8.30e-03  8.77e-03  0.000   0.5
                              *** Initializing SOSCF ***
---------------------------------------S-O-S-C-F--------------------------------------
Iteration    Energy (Eh)           Delta-E    RMSDP     MaxDP     MaxGrad    Time(sec)
--------------------------------------------------------------------------------------
    6    -441.3697645915497105    -8.68e-04  1.48e-04  2.96e-03  3.01e-03     0.5
               *** Restarting incremental Fock matrix formation ***
    7    -441.3698328206343149    -6.82e-05  1.22e-04  3.94e-03  8.03e-04     0.6
    8    -441.3698001836329468     3.26e-05  6.91e-05  2.90e-03  2.40e-03     0.5
    9    -441.3698423875899834    -4.22e-05  3.82e-05  8.43e-04  1.75e-04     0.5
   10    -441.3698407517446185     1.64e-06  2.15e-05  4.84e-04  1.87e-04     0.5
   11    -441.3698437541891053    -3.00e-06  5.66e-06  1.52e-04  2.12e-05     0.5
   12    -441.3698437046580239     4.95e-08  3.23e-06  9.95e-05  3.44e-05     0.5
   13    -441.3698437874088540    -8.28e-08  8.51e-07  1.96e-05  3.70e-06     0.4
   14    -441.3698437880077563    -5.99e-10  4.78e-07  1.19e-05  4.91e-06     0.4
                 **** Energy Check signals convergence ****

               *****************************************************
               *                     SUCCESS                       *
               *           SCF CONVERGED AFTER  14 CYCLES          *
               *****************************************************

             **** ENERGY FILE WAS UPDATED (4.en.tmp) ****

----------------
TOTAL SCF ENERGY
----------------

Total Energy       :       -441.36984378980890 Eh          -12010.28404 eV

Components:
Nuclear Repulsion  :        495.20159078997062 Eh           13475.12035 eV
Electronic Energy  :       -936.57143457977952 Eh          -25485.40439 eV
One Electron Energy:      -1582.46716173022560 Eh          -43061.12066 eV
Two Electron Energy:        645.89572715044608 Eh           17575.71627 eV

Virial components:
Potential Energy   :       -880.47823154112029 Eh          -23959.03073 eV
Kinetic Energy     :        439.10838775131134 Eh           11948.74669 eV
Virial Ratio       :          2.00515010895164

DFT components:
N(Alpha)           :       35.999996623477 electrons
N(Beta)            :       35.999996623477 electrons
N(Total)           :       71.999993246954 electrons
E(X)               :      -58.276197021098 Eh       
E(C)               :       -3.116887296764 Eh       
E(XC)              :      -61.393084317862 Eh       

---------------
SCF CONVERGENCE
---------------

  Last Energy change         ...    5.9890e-10  Tolerance :   1.0000e-08
  Last MAX-Density change    ...    1.1946e-05  Tolerance :   1.0000e-07
  Last RMS-Density change    ...    4.7775e-07  Tolerance :   5.0000e-09
  Last DIIS Error            ...    3.0068e-03  Tolerance :   5.0000e-07
  Last Orbital Gradient      ...    4.9115e-06  Tolerance :   1.0000e-05
  Last Orbital Rotation      ...    5.2587e-06  Tolerance :   1.0000e-05


----------------
ORBITAL ENERGIES
----------------

  NO   OCC          E(Eh)            E(eV) 
   0   2.0000     -18.813212      -511.9335 
   1   2.0000     -18.751364      -510.2506 
   2   2.0000     -13.989145      -380.6640 
   3   2.0000     -10.025213      -272.7999 
   4   2.0000      -9.942513      -270.5495 
   5   2.0000      -9.911613      -269.7087 
   6   2.0000      -9.892986      -269.2018 
   7   2.0000      -9.891367      -269.1578 
   8   2.0000      -9.887470      -269.0517 
   9   2.0000      -1.019083       -27.7306 
  10   2.0000      -0.929708       -25.2987 
  11   2.0000      -0.817344       -22.2411 
  12   2.0000      -0.727154       -19.7869 
  13   2.0000      -0.662367       -18.0239 
  14   2.0000      -0.628688       -17.1075 
  15   2.0000      -0.583336       -15.8734 
  16   2.0000      -0.545078       -14.8323 
  17   2.0000      -0.491003       -13.3609 
  18   2.0000      -0.456730       -12.4283 
  19   2.0000      -0.431921       -11.7532 
  20   2.0000      -0.419212       -11.4073 
  21   2.0000      -0.408770       -11.1232 
  22   2.0000      -0.402287       -10.9468 
  23   2.0000      -0.381220       -10.3735 
  24   2.0000      -0.364823        -9.9273 
  25   2.0000      -0.347876        -9.4662 
  26   2.0000      -0.334107        -9.0915 
  27   2.0000      -0.331608        -9.0235 
  28   2.0000      -0.330764        -9.0006 
  29   2.0000      -0.310669        -8.4537 
  30   2.0000      -0.281133        -7.6500 
  31   2.0000      -0.276395        -7.5211 
  32   2.0000      -0.272855        -7.4248 
  33   2.0000      -0.267139        -7.2692 
  34   2.0000      -0.225929        -6.1478 
  35   2.0000      -0.194041        -5.2801 
  36   0.0000      -0.015914        -0.4330 
  37   0.0000       0.051638         1.4052 
  38   0.0000       0.069677         1.8960 
  39   0.0000       0.086332         2.3492 
  40   0.0000       0.090437         2.4609 
  41   0.0000       0.126520         3.4428 
  42   0.0000       0.133562         3.6344 
  43   0.0000       0.140495         3.8231 
  44   0.0000       0.144527         3.9328 
  45   0.0000       0.151986         4.1358 
  46   0.0000       0.160097         4.3565 
*Only the first 10 virtual orbitals were printed.

                    ********************************
                    * MULLIKEN POPULATION ANALYSIS *
                    ********************************

-----------------------
MULLIKEN ATOMIC CHARGES
-----------------------
   0 C :   -0.180992
   1 C :   -0.337942
   2 C :   -0.072352
   3 H :    0.249629
   4 H :    0.241345
   5 C :   -0.023898
   6 H :    0.314386
   7 C :   -0.334576
   8 C :    0.489224
   9 H :    0.108238
  10 N :   -0.558021
  11 O :   -0.455032
  12 H :    0.109916
  13 O :   -0.426700
  14 H :    0.098975
  15 H :    0.110669
  16 H :    0.118016
  17 H :    0.118513
  18 H :    0.090942
  19 H :    0.124543
  20 H :    0.107544
  21 H :    0.107572
Sum of atomic charges:   -0.0000000

--------------------------------
MULLIKEN REDUCED ORBITAL CHARGES
--------------------------------
  0 C s       :     3.218348  s :     3.218348
      pz      :     1.032643  p :     2.925741
      px      :     0.961823
      py      :     0.931275
      dz2     :     0.009464  d :     0.036903
      dxz     :     0.005309
      dyz     :     0.005533
      dx2y2   :     0.007826
      dxy     :     0.008770

  1 C s       :     3.247928  s :     3.247928
      pz      :     1.042279  p :     3.059629
      px      :     1.046799
      py      :     0.970550
      dz2     :     0.006553  d :     0.030386
      dxz     :     0.005550
      dyz     :     0.005285
      dx2y2   :     0.005585
      dxy     :     0.007412

  2 C s       :     3.214445  s :     3.214445
      pz      :     0.911720  p :     2.815168
      px      :     0.904441
      py      :     0.999008
      dz2     :     0.011180  d :     0.042739
      dxz     :     0.009366
      dyz     :     0.005091
      dx2y2   :     0.012224
      dxy     :     0.004877

  3 H s       :     0.726430  s :     0.726430
      pz      :     0.005207  p :     0.023941
      px      :     0.006769
      py      :     0.011965

  4 H s       :     0.734698  s :     0.734698
      pz      :     0.007123  p :     0.023957
      px      :     0.010740
      py      :     0.006093

  5 C s       :     3.190249  s :     3.190249
      pz      :     0.812565  p :     2.776501
      px      :     0.955530
      py      :     1.008406
      dz2     :     0.015688  d :     0.057148
      dxz     :     0.016251
      dyz     :     0.008819
      dx2y2   :     0.010813
      dxy     :     0.005576

  6 H s       :     0.647845  s :     0.647845
      pz      :     0.012332  p :     0.037769
      px      :     0.015465
      py      :     0.009973

  7 C s       :     3.248003  s :     3.248003
      pz      :     0.968360  p :     3.056436
      px      :     1.044439
      py      :     1.043637
      dz2     :     0.007106  d :     0.030137
      dxz     :     0.006698
      dyz     :     0.005391
      dx2y2   :     0.007368
      dxy     :     0.003574

  8 C s       :     2.997866  s :     2.997866
      pz      :     0.788819  p :     2.388396
      px      :     0.847495
      py      :     0.752082
      dz2     :     0.016266  d :     0.124514
      dxz     :     0.010321
      dyz     :     0.038031
      dx2y2   :     0.026040
      dxy     :     0.033856

  9 H s       :     0.880135  s :     0.880135
      pz      :     0.002933  p :     0.011627
      px      :     0.005969
      py      :     0.002725

 10 N s       :     3.595188  s :     3.595188
      pz      :     1.243903  p :     3.934215
      px      :     1.472434
      py      :     1.217878
      dz2     :     0.009124  d :     0.028618
      dxz     :     0.005024
      dyz     :     0.002839
      dx2y2   :     0.009834
      dxy     :     0.001796

 11 O s       :     3.825231  s :     3.825231
      pz      :     1.478578  p :     4.607007
      px      :     1.504176
      py      :     1.624253
      dz2     :     0.002607  d :     0.022793
      dxz     :     0.003223
      dyz     :     0.006794
      dx2y2   :     0.004017
      dxy     :     0.006152

 12 H s       :     0.878409  s :     0.878409
      pz      :     0.003017  p :     0.011675
      px      :     0.005157
      py      :     0.003501

 13 O s       :     3.859073  s :     3.859073
      pz      :     1.601615  p :     4.539597
      px      :     1.564791
      py      :     1.373191
      dz2     :     0.002735  d :     0.028029
      dxz     :     0.001237
      dyz     :     0.007653
      dx2y2   :     0.008143
      dxy     :     0.008261

 14 H s       :     0.889534  s :     0.889534
      pz      :     0.002559  p :     0.011491
      px      :     0.002435
      py      :     0.006497

 15 H s       :     0.877651  s :     0.877651
      pz      :     0.003826  p :     0.011680
      px      :     0.004085
      py      :     0.003769

 16 H s       :     0.870330  s :     0.870330
      pz      :     0.002645  p :     0.011654
      px      :     0.002882
      py      :     0.006127

 17 H s       :     0.870453  s :     0.870453
      pz      :     0.001771  p :     0.011034
      px      :     0.002509
      py      :     0.006754

 18 H s       :     0.897572  s :     0.897572
      pz      :     0.002865  p :     0.011486
      px      :     0.005292
      py      :     0.003329

 19 H s       :     0.863400  s :     0.863400
      pz      :     0.006357  p :     0.012058
      px      :     0.003045
      py      :     0.002656

 20 H s       :     0.880861  s :     0.880861
      pz      :     0.003952  p :     0.011595
      px      :     0.004770
      py      :     0.002872

 21 H s       :     0.880782  s :     0.880782
      pz      :     0.005940  p :     0.011646
      px      :     0.002869
      py      :     0.002836



                     *******************************
                     * LOEWDIN POPULATION ANALYSIS *
                     *******************************

----------------------
LOEWDIN ATOMIC CHARGES
----------------------
   0 C :   -0.125391
   1 C :   -0.203889
   2 C :   -0.063246
   3 H :    0.128769
   4 H :    0.126312
   5 C :   -0.046945
   6 H :    0.179467
   7 C :   -0.200092
   8 C :    0.102077
   9 H :    0.072019
  10 N :   -0.239012
  11 O :   -0.139462
  12 H :    0.066920
  13 O :   -0.227530
  14 H :    0.070016
  15 H :    0.071339
  16 H :    0.072354
  17 H :    0.076885
  18 H :    0.063994
  19 H :    0.076687
  20 H :    0.072149
  21 H :    0.066579

-------------------------------
LOEWDIN REDUCED ORBITAL CHARGES
-------------------------------
  0 C s       :     2.897168  s :     2.897168
      pz      :     1.078333  p :     3.145942
      px      :     1.037290
      py      :     1.030319
      dz2     :     0.019949  d :     0.082280
      dxz     :     0.012657
      dyz     :     0.011424
      dx2y2   :     0.019293
      dxy     :     0.018957

  1 C s       :     2.913006  s :     2.913006
      pz      :     1.089486  p :     3.226485
      px      :     1.089241
      py      :     1.047758
      dz2     :     0.013987  d :     0.064397
      dxz     :     0.011011
      dyz     :     0.010668
      dx2y2   :     0.013755
      dxy     :     0.014976

  2 C s       :     2.887693  s :     2.887693
      pz      :     1.021311  p :     3.077003
      px      :     0.997357
      py      :     1.058335
      dz2     :     0.026336  d :     0.098550
      dxz     :     0.022370
      dyz     :     0.011332
      dx2y2   :     0.027106
      dxy     :     0.011406

  3 H s       :     0.791615  s :     0.791615
      pz      :     0.014816  p :     0.079616
      px      :     0.018741
      py      :     0.046059

  4 H s       :     0.794843  s :     0.794843
      pz      :     0.021459  p :     0.078845
      px      :     0.040742
      py      :     0.016644

  5 C s       :     2.882634  s :     2.882634
      pz      :     0.946058  p :     3.034655
      px      :     1.031813
      py      :     1.056784
      dz2     :     0.035223  d :     0.129655
      dxz     :     0.038490
      dyz     :     0.019424
      dx2y2   :     0.024135
      dxy     :     0.012383

  6 H s       :     0.704936  s :     0.704936
      pz      :     0.036697  p :     0.115597
      px      :     0.048097
      py      :     0.030803

  7 C s       :     2.914643  s :     2.914643
      pz      :     1.039614  p :     3.221556
      px      :     1.089949
      py      :     1.091993
      dz2     :     0.017165  d :     0.063893
      dxz     :     0.013756
      dyz     :     0.011262
      dx2y2   :     0.014740
      dxy     :     0.006970

  8 C s       :     2.858524  s :     2.858524
      pz      :     0.859921  p :     2.741895
      px      :     0.905563
      py      :     0.976411
      dz2     :     0.036674  d :     0.297503
      dxz     :     0.023067
      dyz     :     0.094175
      dx2y2   :     0.062663
      dxy     :     0.080923

  9 H s       :     0.888259  s :     0.888259
      pz      :     0.009081  p :     0.039722
      px      :     0.022998
      py      :     0.007643

 10 N s       :     3.198189  s :     3.198189
      pz      :     1.280856  p :     3.982871
      px      :     1.469353
      py      :     1.232662
      dz2     :     0.019852  d :     0.057953
      dxz     :     0.010277
      dyz     :     0.007973
      dx2y2   :     0.016766
      dxy     :     0.003084

 11 O s       :     3.472684  s :     3.472684
      pz      :     1.483941  p :     4.615579
      px      :     1.495972
      py      :     1.635666
      dz2     :     0.005595  d :     0.051198
      dxz     :     0.011281
      dyz     :     0.015059
      dx2y2   :     0.007959
      dxy     :     0.011305

 12 H s       :     0.893038  s :     0.893038
      pz      :     0.008796  p :     0.040042
      px      :     0.019490
      py      :     0.011756

 13 O s       :     3.554219  s :     3.554219
      pz      :     1.586993  p :     4.615405
      px      :     1.560957
      py      :     1.467455
      dz2     :     0.007434  d :     0.057905
      dxz     :     0.001879
      dyz     :     0.012910
      dx2y2   :     0.018090
      dxy     :     0.017592

 14 H s       :     0.890928  s :     0.890928
      pz      :     0.007002  p :     0.039056
      px      :     0.007053
      py      :     0.025001

 15 H s       :     0.888572  s :     0.888572
      pz      :     0.013235  p :     0.040089
      px      :     0.014014
      py      :     0.012840

 16 H s       :     0.887272  s :     0.887272
      pz      :     0.007771  p :     0.040374
      px      :     0.008249
      py      :     0.024354

 17 H s       :     0.882681  s :     0.882681
      pz      :     0.005540  p :     0.040434
      px      :     0.007723
      py      :     0.027172

 18 H s       :     0.897031  s :     0.897031
      pz      :     0.008812  p :     0.038975
      px      :     0.019609
      py      :     0.010554

 19 H s       :     0.881629  s :     0.881629
      pz      :     0.025273  p :     0.041684
      px      :     0.008565
      py      :     0.007845

 20 H s       :     0.888425  s :     0.888425
      pz      :     0.013387  p :     0.039426
      px      :     0.017223
      py      :     0.008816

 21 H s       :     0.893435  s :     0.893435
      pz      :     0.023155  p :     0.039986
      px      :     0.008151
      py      :     0.008680



                      *****************************
                      * MAYER POPULATION ANALYSIS *
                      *****************************

  NA   - Mulliken gross atomic population
  ZA   - Total nuclear charge
  QA   - Mulliken gross atomic charge
  VA   - Mayer's total valence
  BVA  - Mayer's bonded valence
  FA   - Mayer's free valence

  ATOM       NA         ZA         QA         VA         BVA        FA
  0 C      6.1810     6.0000    -0.1810     3.8887     3.8887    -0.0000
  1 C      6.3379     6.0000    -0.3379     3.9018     3.9018    -0.0000
  2 C      6.0724     6.0000    -0.0724     3.9193     3.9193    -0.0000
  3 H      0.7504     1.0000     0.2496     0.9302     0.9302     0.0000
  4 H      0.7587     1.0000     0.2413     0.9195     0.9195    -0.0000
  5 C      6.0239     6.0000    -0.0239     3.8461     3.8461    -0.0000
  6 H      0.6856     1.0000     0.3144     0.9203     0.9203     0.0000
  7 C      6.3346     6.0000    -0.3346     3.8836     3.8836    -0.0000
  8 C      5.5108     6.0000     0.4892     3.9500     3.9500    -0.0000
  9 H      0.8918     1.0000     0.1082     0.9569     0.9569    -0.0000
 10 N      7.5580     7.0000    -0.5580     2.9187     2.9187    -0.0000
 11 O      8.4550     8.0000    -0.4550     2.0380     2.0380     0.0000
 12 H      0.8901     1.0000     0.1099     0.9562     0.9562     0.0000
 13 O      8.4267     8.0000    -0.4267     2.1054     2.1054    -0.0000
 14 H      0.9010     1.0000     0.0990     0.9545     0.9545    -0.0000
 15 H      0.8893     1.0000     0.1107     0.9585     0.9585    -0.0000
 16 H      0.8820     1.0000     0.1180     0.9582     0.9582    -0.0000
 17 H      0.8815     1.0000     0.1185     0.9572     0.9572    -0.0000
 18 H      0.9091     1.0000     0.0909     0.9522     0.9522    -0.0000
 19 H      0.8755     1.0000     0.1245     0.9650     0.9650    -0.0000
 20 H      0.8925     1.0000     0.1075     0.9551     0.9551     0.0000
 21 H      0.8924     1.0000     0.1076     0.9563     0.9563     0.0000

  Mayer bond orders larger than 0.100000
B(  0-C ,  1-C ) :   1.0181 B(  0-C ,  2-C ) :   1.0017 B(  0-C , 18-H ) :   0.9462 
B(  0-C , 19-H ) :   0.9332 B(  1-C , 12-H ) :   0.9595 B(  1-C , 20-H ) :   0.9615 
B(  1-C , 21-H ) :   0.9599 B(  2-C ,  5-C ) :   0.9727 B(  2-C ,  7-C ) :   1.0041 
B(  2-C , 14-H ) :   0.9313 B(  3-H , 10-N ) :   0.8951 B(  4-H , 10-N ) :   0.9087 
B(  5-C ,  8-C ) :   0.8960 B(  5-C , 10-N ) :   1.0373 B(  5-C , 17-H ) :   0.9172 
B(  6-H , 11-O ) :   0.8523 B(  7-C ,  9-H ) :   0.9567 B(  7-C , 15-H ) :   0.9519 
B(  7-C , 16-H ) :   0.9542 B(  8-C , 11-O ) :   1.0783 B(  8-C , 13-O ) :   1.9143 


-------
TIMINGS
-------

Total SCF time: 0 days 0 hours 0 min 7 sec 

Total time                  ....       7.657 sec
Sum of individual times     ....       7.174 sec  ( 93.7%)

SCF preparation             ....       0.028 sec  (  0.4%)
Fock matrix formation       ....       7.081 sec  ( 92.5%)
  Startup                   ....       0.001 sec  (  0.0% of F)
  Split-RI-J                ....       2.507 sec  ( 35.4% of F)
  XC integration            ....       4.980 sec  ( 70.3% of F)
    Basis function eval.    ....       1.765 sec  ( 35.4% of XC)
    Density eval.           ....       1.130 sec  ( 22.7% of XC)
    XC-Functional eval.     ....       0.863 sec  ( 17.3% of XC)
    XC-Potential eval.      ....       1.093 sec  ( 21.9% of XC)
Diagonalization             ....       0.000 sec  (  0.0%)
Density matrix formation    ....       0.005 sec  (  0.1%)
Total Energy calculation    ....       0.001 sec  (  0.0%)
Population analysis         ....       0.003 sec  (  0.0%)
Orbital Transformation      ....       0.006 sec  (  0.1%)
Orbital Orthonormalization  ....       0.000 sec  (  0.0%)
DIIS solution               ....       0.028 sec  (  0.4%)
SOSCF solution              ....       0.021 sec  (  0.3%)
Finished LeanSCF after   7.7 sec

Maximum memory used throughout the entire LEANSCF-calculation: 21.9 MB



-------------------------------------------------------------------------------
                          DFT DISPERSION CORRECTION                            
-------------------------------------------------------------------------------
Active option DFTDOPT                   ...         2   
Final C6-coefficient scaling factor     ...     1.250
Final VDW-radii scaling factor          ...     1.100
Damping factor alpha                    ...    20.000
-------------------------   ----------------
Dispersion correction           -0.035377956
-------------------------   ----------------


-------------------------   --------------------
FINAL SINGLE POINT ENERGY      -441.405221746158
-------------------------   --------------------

------------------------------------------------------------------------------
                         ORCA SCF GRADIENT CALCULATION
------------------------------------------------------------------------------

Nuc. rep. gradient        (SHARK) ... done (  0.0 sec)
HCore & Overlap gradient  (SHARK) ... done (  0.1 sec)
Split-RIJ-J gradient      (SHARK) ... done (  0.6 sec)
XC gradient                       ... done (  2.9 sec)
Dispersion correction             ... done (  0.0 sec)

-------------------
DISPERSION GRADIENT
-------------------

   1   C   :   -0.000083899    0.000789121   -0.000130363
   2   C   :   -0.001055659   -0.000425048   -0.000603823
   3   C   :   -0.000643963    0.000582099    0.000538057
   4   H   :    0.000649586   -0.000045978   -0.001067578
   5   H   :    0.000109501   -0.000296344   -0.000793440
   6   C   :    0.000838181   -0.001281192   -0.000317061
   7   H   :    0.000135641   -0.000351619   -0.000170631
   8   C   :    0.000202761   -0.000813137   -0.000031822
   9   C   :    0.000030412    0.000421330    0.000063587
  10   H   :    0.001054095   -0.000000861    0.000952607
  11   N   :   -0.000046921    0.000205532    0.000276199
  12   O   :    0.001112498    0.000061048   -0.000151943
  13   H   :   -0.001831811    0.000964585   -0.000033656
  14   O   :    0.001116348    0.000177620    0.000609135
  15   H   :   -0.000504837   -0.000354575    0.000303255
  16   H   :   -0.001347137    0.000597249    0.000658230
  17   H   :   -0.000352433   -0.001026102    0.001649070
  18   H   :    0.001482132   -0.000437796    0.000027971
  19   H   :   -0.000179132   -0.000118008   -0.001024864
  20   H   :   -0.000621548   -0.000250693    0.000171619
  21   H   :    0.000557607    0.000490424    0.000589645
  22   H   :   -0.000621423    0.001112345   -0.001514193

Difference to translation invariance:
           :    0.0000000000   -0.0000000000   -0.0000000000

Difference to rotation invariance:
           :   -0.0000000000   -0.0000000000   -0.0000000000

Norm of the Dispersion gradient    ...    0.0058512509
RMS gradient                       ...    0.0007202392
MAX gradient                       ...    0.0018318108

------------------
CARTESIAN GRADIENT
------------------

   1   C   :    0.000309548    0.000334195    0.000757927
   2   C   :    0.000910802    0.003438842    0.000927269
   3   C   :    0.001165564   -0.003198828    0.001124255
   4   H   :   -0.002355340    0.003572652   -0.001152351
   5   H   :   -0.003898780    0.000262364    0.001080500
   6   C   :   -0.000174821    0.003037675    0.000190021
   7   H   :   -0.001494877    0.006755995    0.000837763
   8   C   :    0.000344263    0.003409854    0.000771415
   9   C   :    0.001973475   -0.008602985    0.004153416
  10   H   :    0.007579248    0.000720610   -0.003331252
  11   N   :    0.004130775   -0.004082642    0.009221217
  12   O   :   -0.001788378   -0.026172208   -0.013189511
  13   H   :   -0.007152951   -0.005480259    0.002079152
  14   O   :   -0.007772520    0.031510878    0.003336114
  15   H   :   -0.001304396    0.004685862    0.000326869
  16   H   :   -0.004341806    0.003035050   -0.005374655
  17   H   :   -0.001044685   -0.007696359   -0.001860462
  18   H   :    0.001613310   -0.004205879    0.000102623
  19   H   :    0.005237587    0.003847097   -0.001642197
  20   H   :    0.000995462    0.002090709    0.005024720
  21   H   :    0.005728895   -0.003747205    0.004475706
  22   H   :    0.001339626   -0.003515415   -0.007858539

Difference to translation invariance:
           :   -0.0000000000    0.0000000000   -0.0000000000

Difference to rotation invariance:
           :   -0.0002437441    0.0004347302    0.0000339049

Norm of the Cartesian gradient     ...    0.0530255996
RMS gradient                       ...    0.0065270001
MAX gradient                       ...    0.0315108775

-------
TIMINGS
-------

Total SCF gradient time     ....        3.656 sec

Densities                   ....       0.000 sec  (  0.0%)
One electron gradient       ....       0.139 sec  (  3.8%)
RI-J Coulomb gradient       ....       0.642 sec  ( 17.6%)
XC gradient                 ....       2.874 sec  ( 78.6%)

Maximum memory used throughout the entire SCFGRAD-calculation: 28.2 MB
------------------------------------------------------------------------------
                         ORCA GEOMETRY RELAXATION STEP
------------------------------------------------------------------------------

Reading the OPT-File                    .... done
Getting information on internals        .... done
Copying old internal coords+grads       .... done
Making the new internal coordinates     .... (2022 redundants) done
Validating the new internal coordinates .... (2022 redundants) done
Calculating the B-matrix                .... done
Calculating the G,G- and P matrices     .... done
Transforming gradient to internals      .... done
Projecting the internal gradient        .... done
Number of atoms                         ....  22
Number of internal coordinates          ....  94
Current Energy                          ....  -441.405221746 Eh
Current gradient norm                   ....     0.053025600 Eh/bohr
Maximum allowed component of the step   ....  0.300
Current trust radius                    ....  0.300
Evaluating the initial hessian          ....  (Almloef) done
Projecting the Hessian                  .... done
Forming the augmented Hessian           .... done
Diagonalizing the augmented Hessian     .... done
Last element of RFO vector              ....  0.982448772
Lowest eigenvalues of augmented Hessian:
 -0.005933569  0.010057267  0.010926552  0.011100026  0.011422152
Length of the computed step             ....  0.189864963
The final length of the internal step   ....  0.189864963
Converting the step to Cartesian space:
 Initial RMS(Int)=    0.0195830757
Transforming coordinates:
 Iter   0:  RMS(Cart)=    0.0405644698 RMS(Int)=    0.6470127525
done
Storing new coordinates                 .... done

                                .--------------------.
          ----------------------|Geometry convergence|-------------------------
          Item                value                   Tolerance       Converged
          ---------------------------------------------------------------------
          RMS gradient        0.0055705742            0.0001000000      NO
          MAX gradient        0.0324320113            0.0003000000      NO
          RMS step            0.0195830757            0.0020000000      NO
          MAX step            0.0714947363            0.0040000000      NO
          -------------------------------------------------------------------------
          ........................................................
          Max(Bonds)      0.0171      Max(Angles)    1.68
          Max(Dihed)        4.10      Max(Improp)    0.00
          ---------------------------------------------------------------------

The optimization has not yet converged - more geometry cycles are needed


    ---------------------------------------------------------------------------
                         Redundant Internal Coordinates
                            (Angstroem and degrees)

        Definition                    Value    dE/dq     Step     New-Value
    ----------------------------------------------------------------------------
     1. B(C   1,C   0)                1.5241 -0.009328  0.0127    1.5368   
     2. B(C   2,C   0)                1.5343 -0.008706  0.0123    1.5466   
     3. B(C   5,C   2)                1.5450 -0.009741  0.0143    1.5594   
     4. B(C   7,C   2)                1.5269 -0.009813  0.0135    1.5404   
     5. B(C   8,C   5)                1.5214 -0.010713  0.0145    1.5359   
     6. B(H   9,C   7)                1.0875 -0.008253  0.0118    1.0993   
     7. B(N  10,H   3)                1.0161 -0.003602  0.0044    1.0205   
     8. B(N  10,C   5)                1.4531 -0.008773  0.0103    1.4634   
     9. B(N  10,H   4)                1.0146 -0.003680  0.0045    1.0191   
    10. B(O  11,C   8)                1.3382 -0.022073  0.0171    1.3553   
    11. B(O  11,H   6)                0.9711 -0.003442  0.0036    0.9747   
    12. B(H  12,C   1)                1.0862 -0.009172  0.0131    1.0993   
    13. B(O  13,C   8)                1.2038 -0.032432  0.0154    1.2192   
    14. B(H  14,C   2)                1.0965 -0.004648  0.0069    1.1034   
    15. B(H  15,C   7)                1.0879 -0.007360  0.0106    1.0984   
    16. B(H  16,C   7)                1.0868 -0.007920  0.0113    1.0981   
    17. B(H  17,C   5)                1.0932 -0.004070  0.0060    1.0991   
    18. B(H  18,C   0)                1.0924 -0.006647  0.0097    1.1020   
    19. B(H  19,C   0)                1.0904 -0.005102  0.0074    1.0978   
    20. B(H  20,C   1)                1.0876 -0.008033  0.0115    1.0991   
    21. B(H  21,C   1)                1.0867 -0.008605  0.0123    1.0990   
    22. A(H  18,C   0,H  19)          108.16  0.001023   -0.36    107.80   
    23. A(C   1,C   0,C   2)          114.88  0.001281   -0.14    114.74   
    24. A(C   1,C   0,H  19)          109.01 -0.000088    0.09    109.10   
    25. A(C   2,C   0,H  18)          108.05  0.000573   -0.19    107.86   
    26. A(C   2,C   0,H  19)          107.72 -0.001391    0.34    108.06   
    27. A(C   1,C   0,H  18)          108.84 -0.001362    0.23    109.07   
    28. A(C   0,C   1,H  20)          109.53 -0.002217    0.40    109.93   
    29. A(H  20,C   1,H  21)          108.07  0.000477   -0.09    107.98   
    30. A(C   0,C   1,H  12)          111.05 -0.000457    0.10    111.14   
    31. A(H  12,C   1,H  20)          107.93  0.001279   -0.21    107.72   
    32. A(H  12,C   1,H  21)          108.81  0.002111   -0.40    108.41   
    33. A(C   0,C   1,H  21)          111.34 -0.001076    0.19    111.52   
    34. A(C   0,C   2,C   7)          112.43  0.002983   -0.43    112.00   
    35. A(C   0,C   2,C   5)          110.60 -0.002244    0.64    111.24   
    36. A(C   5,C   2,H  14)          106.60  0.002040   -0.61    105.98   
    37. A(C   0,C   2,H  14)          107.25 -0.000985    0.13    107.38   
    38. A(C   5,C   2,C   7)          111.23 -0.001535    0.46    111.69   
    39. A(C   7,C   2,H  14)          108.45 -0.000234   -0.23    108.23   
    40. A(C   8,C   5,H  17)          108.25 -0.001747    0.08    108.33   
    41. A(C   2,C   5,H  17)          109.83  0.002911   -0.84    108.99   
    42. A(N  10,C   5,H  17)          109.08  0.000723   -0.34    108.74   
    43. A(C   2,C   5,C   8)          108.97 -0.000230    0.27    109.24   
    44. A(C   8,C   5,N  10)          111.22  0.001270   -0.00    111.22   
    45. A(C   2,C   5,N  10)          109.47 -0.002851    0.80    110.27   
    46. A(C   2,C   7,H   9)          109.96 -0.000247    0.08    110.03   
    47. A(H  15,C   7,H  16)          108.16  0.000321   -0.10    108.06   
    48. A(H   9,C   7,H  16)          108.84  0.002009   -0.42    108.41   
    49. A(C   2,C   7,H  16)          111.00 -0.000440    0.04    111.05   
    50. A(H   9,C   7,H  15)          108.05  0.001064   -0.10    107.95   
    51. A(C   2,C   7,H  15)          110.75 -0.002584    0.48    111.23   
    52. A(C   5,C   8,O  13)          124.50  0.002181   -0.22    124.28   
    53. A(C   5,C   8,O  11)          112.87  0.002475   -0.28    112.59   
    54. A(O  11,C   8,O  13)          122.61 -0.004707    0.61    123.22   
    55. A(H   3,N  10,H   4)          107.39  0.000965   -0.67    106.72   
    56. A(H   4,N  10,C   5)          110.45  0.000212   -0.25    110.21   
    57. A(H   3,N  10,C   5)          109.12  0.002500   -0.63    108.48   
    58. A(H   6,O  11,C   8)          110.69  0.011109   -1.68    109.01   
    59. D(H  20,C   1,C   0,H  19)     58.11  0.000392   -0.14     57.97   
    60. D(H  12,C   1,C   0,H  18)   -178.77  0.000105    0.05   -178.71   
    61. D(H  12,C   1,C   0,H  19)    -61.00  0.000507   -0.20    -61.20   
    62. D(H  12,C   1,C   0,C   2)     59.97 -0.000489    0.22     60.19   
    63. D(H  20,C   1,C   0,H  18)    -59.65 -0.000010    0.11    -59.54   
    64. D(H  20,C   1,C   0,C   2)    179.08 -0.000603    0.28    179.36   
    65. D(C   5,C   2,C   0,C   1)    -70.35  0.000083    1.64    -68.70   
    66. D(C   7,C   2,C   0,H  19)    176.33 -0.001724    2.69    179.02   
    67. D(C   7,C   2,C   0,H  18)    -67.04 -0.000955    2.35    -64.69   
    68. D(C   7,C   2,C   0,C   1)     54.66 -0.001426    2.41     57.07   
    69. D(C   5,C   2,C   0,H  18)    167.96  0.000555    1.58    169.54   
    70. D(C   5,C   2,C   0,H  19)     51.33 -0.000215    1.92     53.25   
    71. D(C   8,C   5,C   2,H  14)    -63.46 -0.000120   -0.62    -64.08   
    72. D(C   8,C   5,C   2,C   7)     54.58 -0.000015   -1.00     53.57   
    73. D(C   8,C   5,C   2,C   0)   -179.74  0.001057   -0.75   -180.49   
    74. D(N  10,C   5,C   2,H  14)     58.37 -0.000480    0.05     58.43   
    75. D(N  10,C   5,C   2,C   7)    176.41 -0.000376   -0.33    176.08   
    76. D(N  10,C   5,C   2,C   0)    -57.90  0.000697   -0.08    -57.98   
    77. D(H  15,C   7,C   2,H  14)     46.99 -0.000176    0.95     47.94   
    78. D(H  15,C   7,C   2,C   5)    -69.92 -0.001637    1.57    -68.36   
    79. D(H  15,C   7,C   2,C   0)    165.41  0.000250    0.70    166.11   
    80. D(H   9,C   7,C   2,H  14)    -72.36  0.000288    0.72    -71.64   
    81. D(H   9,C   7,C   2,C   5)    170.73 -0.001173    1.34    172.07   
    82. D(H   9,C   7,C   2,C   0)     46.07  0.000714    0.47     46.54   
    83. D(O  13,C   8,C   5,N  10)    -39.96  0.002774   -4.10    -44.06   
    84. D(O  13,C   8,C   5,C   2)     80.81 -0.000123   -2.92     77.89   
    85. D(O  11,C   8,C   5,H  17)     18.59  0.000149    0.75     19.34   
    86. D(O  11,C   8,C   5,N  10)    138.42  0.000691    0.38    138.80   
    87. D(O  11,C   8,C   5,C   2)   -100.82 -0.002206    1.56    -99.26   
    88. D(H   3,N  10,C   5,C   8)     54.94  0.001019   -0.80     54.14   
    89. D(H   3,N  10,C   5,C   2)    -65.53  0.002372   -1.66    -67.19   
    90. D(H   4,N  10,C   5,C   8)    -62.88 -0.001794    0.54    -62.34   
    91. D(H   4,N  10,C   5,C   2)    176.64 -0.000442   -0.32    176.32   
[...]
      pz      :     1.481823  p :     4.594599
      px      :     1.503709
      py      :     1.609067
      dz2     :     0.003070  d :     0.023230
      dxz     :     0.002729
      dyz     :     0.007112
      dx2y2   :     0.003461
      dxy     :     0.006858

 12 H s       :     0.871139  s :     0.871139
      pz      :     0.003459  p :     0.011343
      px      :     0.004958
      py      :     0.002926

 13 O s       :     3.873698  s :     3.873698
      pz      :     1.600921  p :     4.530917
      px      :     1.573674
      py      :     1.356322
      dz2     :     0.002831  d :     0.027263
      dxz     :     0.001270
      dyz     :     0.007360
      dx2y2   :     0.007934
      dxy     :     0.007867

 14 H s       :     0.887910  s :     0.887910
      pz      :     0.002490  p :     0.011306
      px      :     0.002353
      py      :     0.006463

 15 H s       :     0.878201  s :     0.878201
      pz      :     0.003734  p :     0.011448
      px      :     0.004428
      py      :     0.003287

 16 H s       :     0.875379  s :     0.875379
      pz      :     0.002523  p :     0.011391
      px      :     0.002620
      py      :     0.006248

 17 H s       :     0.868948  s :     0.868948
      pz      :     0.001788  p :     0.010908
      px      :     0.002424
      py      :     0.006695

 18 H s       :     0.897653  s :     0.897653
      pz      :     0.003069  p :     0.011262
      px      :     0.005238
      py      :     0.002956

 19 H s       :     0.868613  s :     0.868613
      pz      :     0.006074  p :     0.011598
      px      :     0.002690
      py      :     0.002834

 20 H s       :     0.882994  s :     0.882994
      pz      :     0.003537  p :     0.011311
      px      :     0.005063
      py      :     0.002711

 21 H s       :     0.884552  s :     0.884552
      pz      :     0.005669  p :     0.011351
      px      :     0.002616
      py      :     0.003066



                     *******************************
                     * LOEWDIN POPULATION ANALYSIS *
                     *******************************

----------------------
LOEWDIN ATOMIC CHARGES
----------------------
   0 C :   -0.122235
   1 C :   -0.206874
   2 C :   -0.062731
   3 H :    0.130417
   4 H :    0.128104
   5 C :   -0.045242
   6 H :    0.181925
   7 C :   -0.201559
   8 C :    0.124874
   9 H :    0.072719
  10 N :   -0.247788
  11 O :   -0.156929
  12 H :    0.071609
  13 O :   -0.235997
  14 H :    0.070554
  15 H :    0.071370
  16 H :    0.071117
  17 H :    0.077929
  18 H :    0.064779
  19 H :    0.075942
  20 H :    0.072287
  21 H :    0.065728

-------------------------------
LOEWDIN REDUCED ORBITAL CHARGES
-------------------------------
  0 C s       :     2.906772  s :     2.906772
      pz      :     1.071266  p :     3.136196
      px      :     1.034667
      py      :     1.030263
      dz2     :     0.016341  d :     0.079268
      dxz     :     0.013972
      dyz     :     0.013617
      dx2y2   :     0.020121
      dxy     :     0.015216

  1 C s       :     2.924157  s :     2.924157
      pz      :     1.087497  p :     3.220824
      px      :     1.091053
      py      :     1.042273
      dz2     :     0.010536  d :     0.061893
      dxz     :     0.011102
      dyz     :     0.013518
      dx2y2   :     0.015641
      dxy     :     0.011096

  2 C s       :     2.898074  s :     2.898074
      pz      :     1.018493  p :     3.070226
      px      :     0.993628
      py      :     1.058105
      dz2     :     0.025249  d :     0.094431
      dxz     :     0.021364
      dyz     :     0.010394
      dx2y2   :     0.026184
      dxy     :     0.011240

  3 H s       :     0.791632  s :     0.791632
      pz      :     0.014449  p :     0.077951
      px      :     0.018370
      py      :     0.045131

  4 H s       :     0.794780  s :     0.794780
      pz      :     0.019363  p :     0.077116
      px      :     0.040157
      py      :     0.017596

  5 C s       :     2.893057  s :     2.893057
      pz      :     0.939061  p :     3.028341
      px      :     1.028089
      py      :     1.061191
      dz2     :     0.034826  d :     0.123844
      dxz     :     0.035712
      dyz     :     0.017817
      dx2y2   :     0.022498
      dxy     :     0.012992

  6 H s       :     0.704391  s :     0.704391
      pz      :     0.031947  p :     0.113683
      px      :     0.046384
      py      :     0.035352

  7 C s       :     2.925689  s :     2.925689
      pz      :     1.034832  p :     3.214186
      px      :     1.088194
      py      :     1.091160
      dz2     :     0.016657  d :     0.061683
      dxz     :     0.014515
      dyz     :     0.009589
      dx2y2   :     0.014953
      dxy     :     0.005970

  8 C s       :     2.874122  s :     2.874122
      pz      :     0.853536  p :     2.723861
      px      :     0.903030
      py      :     0.967294
      dz2     :     0.037616  d :     0.277144
      dxz     :     0.022883
      dyz     :     0.086621
      dx2y2   :     0.055786
      dxy     :     0.074236

  9 H s       :     0.888962  s :     0.888962
      pz      :     0.008687  p :     0.038319
      px      :     0.021448
      py      :     0.008184

 10 N s       :     3.222581  s :     3.222581
      pz      :     1.259842  p :     3.968169
      px      :     1.471208
      py      :     1.237118
      dz2     :     0.021032  d :     0.057038
      dxz     :     0.009004
      dyz     :     0.007083
      dx2y2   :     0.015412
      dxy     :     0.004507

 11 O s       :     3.499501  s :     3.499501
      pz      :     1.490867  p :     4.608615
      px      :     1.496468
      py      :     1.621280
      dz2     :     0.006084  d :     0.048813
      dxz     :     0.009652
      dyz     :     0.014937
      dx2y2   :     0.006010
      dxy     :     0.012130

 12 H s       :     0.889635  s :     0.889635
      pz      :     0.010994  p :     0.038756
      px      :     0.018391
      py      :     0.009371

 13 O s       :     3.569261  s :     3.569261
      pz      :     1.589501  p :     4.611215
      px      :     1.569428
      py      :     1.452286
      dz2     :     0.007271  d :     0.055521
      dxz     :     0.001915
      dyz     :     0.012560
      dx2y2   :     0.017465
      dxy     :     0.016310

 14 H s       :     0.891103  s :     0.891103
      pz      :     0.006770  p :     0.038343
      px      :     0.006695
      py      :     0.024878

 15 H s       :     0.889618  s :     0.889618
      pz      :     0.012908  p :     0.039012
      px      :     0.015602
      py      :     0.010502

 16 H s       :     0.889954  s :     0.889954
      pz      :     0.007276  p :     0.038929
      px      :     0.007013
      py      :     0.024640

 17 H s       :     0.882283  s :     0.882283
      pz      :     0.005554  p :     0.039789
      px      :     0.007340
      py      :     0.026894

 18 H s       :     0.897403  s :     0.897403
      pz      :     0.009661  p :     0.037817
      px      :     0.019196
      py      :     0.008960

 19 H s       :     0.884311  s :     0.884311
      pz      :     0.023641  p :     0.039747
      px      :     0.007294
      py      :     0.008812

 20 H s       :     0.889653  s :     0.889653
      pz      :     0.011317  p :     0.038060
      px      :     0.018502
      py      :     0.008241

 21 H s       :     0.895761  s :     0.895761
      pz      :     0.021727  p :     0.038512
      px      :     0.006958
      py      :     0.009827



                      *****************************
                      * MAYER POPULATION ANALYSIS *
                      *****************************

  NA   - Mulliken gross atomic population
  ZA   - Total nuclear charge
  QA   - Mulliken gross atomic charge
  VA   - Mayer's total valence
  BVA  - Mayer's bonded valence
  FA   - Mayer's free valence

  ATOM       NA         ZA         QA         VA         BVA        FA
  0 C      6.1712     6.0000    -0.1712     3.8850     3.8850    -0.0000
  1 C      6.3392     6.0000    -0.3392     3.8960     3.8960    -0.0000
  2 C      6.0762     6.0000    -0.0762     3.9077     3.9077    -0.0000
  3 H      0.7509     1.0000     0.2491     0.9295     0.9295    -0.0000
  4 H      0.7589     1.0000     0.2411     0.9181     0.9181    -0.0000
  5 C      6.0242     6.0000    -0.0242     3.8419     3.8419     0.0000
  6 H      0.6836     1.0000     0.3164     0.9194     0.9194     0.0000
  7 C      6.3296     6.0000    -0.3296     3.8780     3.8780    -0.0000
  8 C      5.5053     6.0000     0.4947     3.9192     3.9192    -0.0000
  9 H      0.8922     1.0000     0.1078     0.9577     0.9577     0.0000
 10 N      7.5578     7.0000    -0.5578     2.9061     2.9061    -0.0000
 11 O      8.4618     8.0000    -0.4618     2.0347     2.0347     0.0000
 12 H      0.8825     1.0000     0.1175     0.9566     0.9566     0.0000
 13 O      8.4319     8.0000    -0.4319     2.0951     2.0951     0.0000
 14 H      0.8992     1.0000     0.1008     0.9551     0.9551    -0.0000
 15 H      0.8896     1.0000     0.1104     0.9606     0.9606    -0.0000
 16 H      0.8868     1.0000     0.1132     0.9590     0.9590    -0.0000
 17 H      0.8799     1.0000     0.1201     0.9564     0.9564     0.0000
 18 H      0.9089     1.0000     0.0911     0.9538     0.9538    -0.0000
 19 H      0.8802     1.0000     0.1198     0.9612     0.9612    -0.0000
 20 H      0.8943     1.0000     0.1057     0.9561     0.9561    -0.0000
 21 H      0.8959     1.0000     0.1041     0.9573     0.9573    -0.0000

  Mayer bond orders larger than 0.100000
B(  0-C ,  1-C ) :   1.0132 B(  0-C ,  2-C ) :   0.9936 B(  0-C , 18-H ) :   0.9452 
B(  0-C , 19-H ) :   0.9386 B(  1-C , 12-H ) :   0.9566 B(  1-C , 20-H ) :   0.9605 
B(  1-C , 21-H ) :   0.9585 B(  2-C ,  5-C ) :   0.9686 B(  2-C ,  7-C ) :   1.0018 
B(  2-C , 14-H ) :   0.9303 B(  3-H , 10-N ) :   0.8940 B(  4-H , 10-N ) :   0.9075 
B(  5-C ,  8-C ) :   0.9007 B(  5-C , 10-N ) :   1.0270 B(  5-C , 17-H ) :   0.9181 
B(  6-H , 11-O ) :   0.8526 B(  7-C ,  9-H ) :   0.9564 B(  7-C , 15-H ) :   0.9512 
B(  7-C , 16-H ) :   0.9538 B(  8-C , 11-O ) :   1.0643 B(  8-C , 13-O ) :   1.8897 


-------
TIMINGS
-------

Total SCF time: 0 days 0 hours 0 min 3 sec 

Total time                  ....       3.454 sec
Sum of individual times     ....       2.983 sec  ( 86.4%)

SCF preparation             ....       0.031 sec  (  0.9%)
Fock matrix formation       ....       2.918 sec  ( 84.5%)
  Startup                   ....       0.001 sec  (  0.0% of F)
  Split-RI-J                ....       1.087 sec  ( 37.3% of F)
  XC integration            ....       2.234 sec  ( 76.6% of F)
    Basis function eval.    ....       0.827 sec  ( 37.0% of XC)
    Density eval.           ....       0.516 sec  ( 23.1% of XC)
    XC-Functional eval.     ....       0.408 sec  ( 18.3% of XC)
    XC-Potential eval.      ....       0.423 sec  ( 19.0% of XC)
Diagonalization             ....       0.000 sec  (  0.0%)
Density matrix formation    ....       0.002 sec  (  0.1%)
Total Energy calculation    ....       0.000 sec  (  0.0%)
Population analysis         ....       0.010 sec  (  0.3%)
Orbital Transformation      ....       0.003 sec  (  0.1%)
Orbital Orthonormalization  ....       0.000 sec  (  0.0%)
DIIS solution               ....       0.004 sec  (  0.1%)
SOSCF solution              ....       0.014 sec  (  0.4%)
Finished LeanSCF after   3.5 sec

Maximum memory used throughout the entire LEANSCF-calculation: 22.2 MB



-------------------------------------------------------------------------------
                          DFT DISPERSION CORRECTION                            
-------------------------------------------------------------------------------
Active option DFTDOPT                   ...         2   
Final C6-coefficient scaling factor     ...     1.250
Final VDW-radii scaling factor          ...     1.100
Damping factor alpha                    ...    20.000
-------------------------   ----------------
Dispersion correction           -0.035201861
-------------------------   ----------------


-------------------------   --------------------
FINAL SINGLE POINT ENERGY      -441.409301374492
-------------------------   --------------------

                                *** OPTIMIZATION RUN DONE ***


------------------------------------------------------------------------------
                              ORCA PROPERTY CALCULATIONS
------------------------------------------------------------------------------

GBWName                                 ... 4.gbw
Number of atoms                         ...     22
Number of basis functions               ...    191
Max core memory                         ...   4096 MB

Electric properties:
Dipole moment                           ... YES
Quadrupole moment                       ...  NO
Static polarizability (Dipole/Dipole)   ...  NO
Static polarizability (Dipole/Quad.)    ...  NO
Static polarizability (Quad./Quad.)     ...  NO
Static polarizability (Velocity)        ...  NO
Static hyperpolarizability              ...  NO

Atomic electric properties:
Dipole moment                           ...  NO
Quadrupole moment                       ...  NO
Static polarizability                   ...  NO

Choice of electric origin               ... Center of mass
Position of electric origin             ...   -14.176997     7.932249    -0.234426

General magnetic properties:
Magnetizability                         ...  NO

EPR properties:
g-Tensor (aka g-matrix)                 ...  NO
Zero-Field splitting spin-orbit         ...  NO
Zero-field splitting spin-spin          ...  NO
Hyperfine couplings                     ...  NO (   0 nuclei)
Quadrupole couplings                    ...  NO (   0 nuclei)
Contact density                         ...  NO (   0 nuclei)

NMR properties:
Chemical shifts                         ...  NO (   0 nuclei)
Spin-rotation constants                 ...  NO (   0 nuclei)
Spin-spin couplings                     ...  NO (   0 nuclei,    0 pairs)

Choice of magnetic origin               ... GIAO
Position of magnetic origin             ...     0.000000     0.000000     0.000000

Properties with geometric perturbations:
SCF Hessian                             ...  NO
IR spectrum                             ...  NO
VCD spectrum                            ...  NO
X-ray spectroscopy properties:
SCF XES/XAS/RIXS spectra                ...  NO

SCF SOC stabilization energy            ...  NO
Diagonal Born-Oppenheimer correction    ...  NO

-------------
DIPOLE MOMENT
-------------

Method             : SCF
Type of density    : Electron Density
Multiplicity       :   1
Irrep              :   0
Energy             :  -441.3740995136082574 Eh
Basis              : AO
                                X                 Y                 Z
Electronic contribution:     11.193844350      -4.599168864       1.192507149
Nuclear contribution   :    -10.962151671       4.895285057      -0.906091253
                        -----------------------------------------
Total Dipole Moment    :      0.231692678       0.296116193       0.286415896
                        -----------------------------------------
Magnitude (a.u.)       :      0.472652475
Magnitude (Debye)      :      1.201387117



--------------------
Rotational spectrum 
--------------------
 
Rotational constants in cm-1:             0.081879             0.035523             0.030580 
Rotational constants in MHz :          2454.662441          1064.952520           916.768871 

Dipole components along the rotational axes: 
x,y,z [a.u.] :     0.177547     0.274236     0.341572 
x,y,z [Debye]:     0.451290     0.697053     0.868208 

 

Dipole moment calculation done in   0.0 sec 

Maximum memory used throughout the entire PROP-calculation: 12.5 MB

--------------------------------
SUGGESTED CITATIONS FOR THIS RUN
--------------------------------

Below you find a list of papers that are relevant to this ORCA run
We neither can nor want to force you to cite these papers, but we appreciate if you do
You receive ORCA, which is the product of decades of hard work by many enthusiastic individuals, for free
The only thing we kindly ask in return is that you cite our papers,
We deeply appreciate it, if you show your appreciation for ORCA by not just citing the generic ORCA reference.

Please note that relegating all ORCA citations to the supporting information does *not* help us.
SI sections are not indexed - citations you put there will not count into any citation statistics
But we need these citations in order to attract the funding resources that allow us to do what we are doing

Therefore, if you are a happy ORCA user, please consider citing a few of the papers listed below in the main body of your paper

In addition to the list printed below, the program has created the file 4.bibtex that contains the list in bibtex format
You can import this file easily into all common literature databanks and citation aid programs


List of essential papers. We consider these as the minimum necessary citations

  1. Neese, F.
     Software update: the ORCA program system, version 6.0
     WIRES Comput. Molec. Sci. 2025 15(1), e70019
     doi.org/10.1002/wcms.7019

List of papers to cite with high priority. The work reported in these papers was absolutely
necessary for this run to complete.
Our perspective: the developers of density functionals and basis sets usually get cited in chemistry papers
Good! But without the algorithms to do something with them, the functionals or basis sets would not do anything.
Hence, in our opinion, the algorithm design and method developments papers are equally worthy of getting cited

  1. Neese, F.
     An improvement of the resolution of the identity approximation for the formation of the Coulomb matrix
     J. Comp. Chem. 2003 24(14), 1740-1747
     doi.org/10.1002/jcc.10318
  2. Grimme, S.
     Semiempirical GGA-type density functional constructed with a long-range dispersion correction
     J.Comput.Chem. 2006 27(15), 1787-1799
     doi.org/10.1002/jcc.20495
  3. Neese, F.
     The SHARK Integral Generation and Digestion System
     J. Comp. Chem. 2022 44(3), 381
     doi.org/10.1002/jcc.26942

List of suggested additional citations. These are papers that are important in the 'surrounding' of 
of this run, or papers that preceded the highly important papers. If you like your results we are grateful for a citation.

  1. Neese, F.
     The ORCA program system
     WIRES Comput. Molec. Sci. 2012 2(1), 73-78
     doi.org/10.1002/wcms.81
  2. Neese, F.
     Software update: the ORCA program system, version 4.0
     WIRES Comput. Molec. Sci. 2018 8(1), 1-6
     doi.org/10.1002/wcms.1327
  3. Neese, F.; Wennmohs, F.; Becker, U.; Riplinger, C.
     The ORCA quantum chemistry program package
     J. Chem. Phys. 2020 152(22), 224108
     doi.org/10.1063/5.0004608
  4. Neese, F.
     Software update: The ORCA program system—Version 5.0
     WIRES Comput. Molec. Sci. 2022 12(1), e1606
     doi.org/10.1002/wcms.1606

List of optional additional citations

  1. Neese, F.
     Approximate second-order SCF convergence for spin unrestricted wavefunctions
     Chem. Phys. Lett. 2000 325(1-3), 93-98
     doi.org/10.1016/s0009-2614(00)00662-x

Timings for individual modules:

Sum of individual times          ...       91.187 sec (=   1.520 min)
Startup calculation              ...        4.661 sec (=   0.078 min)   5.1 %
SCF iterations                   ...       53.516 sec (=   0.892 min)  58.7 %
Property calculations            ...        0.038 sec (=   0.001 min)   0.0 %
SCF Gradient evaluation          ...       32.955 sec (=   0.549 min)  36.1 %
Geometry relaxation              ...        0.017 sec (=   0.000 min)   0.0 %
                             ****ORCA TERMINATED NORMALLY****
TOTAL RUN TIME: 0 days 0 hours 1 minutes 31 seconds 424 msec
