
                                 *****************
                                 * O   R   C   A *
                                 *****************

                                            #,                                       
                                            ###                                      
                                            ####                                     
                                            #####                                    
                                            ######                                   
                                           ########,                                 
                                     ,,################,,,,,                         
                               ,,#################################,,                 
                          ,,##########################################,,             
                       ,#########################################, ''#####,          
                    ,#############################################,,   '####,        
                  ,##################################################,,,,####,       
                ,###########''''           ''''###############################       
              ,#####''   ,,,,##########,,,,          '''####'''          '####       
            ,##' ,,,,###########################,,,                        '##       
           ' ,,###''''                  '''############,,,                           
         ,,##''                                '''############,,,,        ,,,,,,###''
      ,#''                                            '''#######################'''  
     '                                                          ''''####''''         
             ,#######,   #######,   ,#######,      ##                                
            ,#'     '#,  ##    ##  ,#'     '#,    #''#        ,####,    ,#,          
            ##       ##  ##   ,#'  ##            #'  '#       #'       ,# #          
            ##       ##  #######   ##           ,######,      #####,      #          
            '#,     ,#'  ##    ##  '#,     ,#' ,#      #,     #,   #      #          
             '#######'   ##     ##  '#######'  #'      '#     '####' #    #          



                #########################################################
                #                        -***-                          #
                #          Department of theory and spectroscopy        #
                #                                                       #
                #                      Frank Neese                      #
                #                                                       #
                #     Directorship, Architecture, Infrastructure        #
                #                    SHARK, DRIVERS                     #
                #        Core code/Algorithms in most modules           #
                #                                                       #
                #        Max Planck Institute fuer Kohlenforschung      #
                #                Kaiser Wilhelm Platz 1                 #
                #                 D-45470 Muelheim/Ruhr                 #
                #                      Germany                          #
                #                                                       #
                #                  All rights reserved                  #
                #                        -***-                          #
                #########################################################


                         Program Version 6.1.0  -  RELEASE   -
                                (GIT: $679e74b$)
                          ($2025-06-10 18:02:51 +0200$)


 With contributions from (in alphabetic order):
[Max-Planck-Institut fuer Kohlenforschung]                               
  Daniel Aravena         : Magnetic Suceptibility                        
  Michael Atanasov       : Ab Initio Ligand Field Theory (pilot matlab implementation)
  Alexander A. Auer      : GIAO ZORA, VPT2 properties, NMR spectrum      
  Ute Becker             : All parallelization in ORCA, NUMFREQ, NUMCALC 
  Giovanni Bistoni       : ED, misc. LED, open-shell LED, HFLD           
  Dmytro Bykov           : pre 5.0 version of the SCF Hessian            
  Marcos Casanova-Páez   : Triplet and SCS-CIS(D). UHF-(DLPNO)-IP/EA/STEOM-CCSD. UHF-CVS-IP/STEOM-CCSD   
  Vijay G. Chilkuri      : MRCI spin determinant printing, contributions to CSF-ICE 
  Pauline Colinet        : FMM embedding                                 
  Dipayan Datta          : RHF DLPNO-CCSD density                        
  Achintya Kumar Dutta   : EOM-CC, STEOM-CC                              
  Nicolas Foglia         : Exact transition moments, OPA infrastructure, MCD improvements    
  Dmitry Ganyushin       : Spin-Orbit,Spin-Spin,Magnetic field MRCI      
  Miquel Garcia-Rates    : C-PCM and meta-GGA Hessian, CCSD/C-PCM, Gaussian charge scheme 
  Tiago L. C. Gouveia    : GS-ROHF, GS-ROCIS                             
  Yang Guo               : DLPNO-NEVPT2, F12-NEVPT2, CIM, IAO-localization        
  Andreas Hansen         : Spin unrestricted coupled pair/coupled cluster methods 
  Ingolf Harden          : AUTO-CI MPn and infrastructure                
  Benjamin Helmich-Paris : MC-RPA, TRAH-(SCF,CASSCF), AVAS, COSX integrals, SCF dyn. polar., MC-PDFT, srDFT 
  Lee Huntington         : MR-EOM, pCC                                   
  Robert Izsak           : Overlap fitted RIJCOSX, COSX-SCS-MP3, EOM     
  Riya Kayal             : Wick's Theorem for AUTO-CI, AUTO-CI UHF-CCSDT 
  Emily Kempfer          : AUTO-CI RHF CISDT and CCSDT, approximate NEVPT4
  Christian Kollmar      : KDIIS, OOCD, Brueckner-CCSD(T), CCSD density, CASPT2, CASPT2-K, improved NEVPT2 
  Axel Koslowski         : Symmetry handling                             
  Simone Kossmann        : meta-GGA functionals, TD-DFT gradient, OOMP2, (MP2 Hessian; deprecated post 5.0) 
  Lucas Lang             : DCDCAS, Hyperfine gauge corrections, ICE-SOC+SSC
  Marvin Lechner         : AUTO-CI (C++ implementation), FIC-MRCC        
  Spencer Leger          : CASSCF response                               
  Dagmar Lenk            : GEPOL surface, SMD, ORCA-2-JSON               
  Dimitrios Liakos       : Extrapolation schemes; Compound Job, Property file
  Dimitrios Manganas     : Further ROCIS development; embedding schemes. LFT, Crystal Embedding 
  Dimitrios Pantazis     : SARC Basis sets                               
  Anastasios Papadopoulos: AUTO-CI, single reference methods and gradients 
  Taras Petrenko         : pre 6.0 DFT Hessian and TD-DFT gradient,  ECA, NRVS 
  Petra Pikulova         : Analytic Raman intensities                    
  Peter Pinski           : DLPNO-MP2, DLPNO-MP2 Gradient                 
  Shashank Vittal Rao    : ES-AILFT, MagRelax                            
  Christoph Reimann      : Effective Core Potentials                     
  Marius Retegan         : Local ZFS, SOC                                
  Christoph Riplinger    : Optimizer, TS searches, QM/MM, DLPNO-CCSD(T), (RO)-DLPNO pert. Triples 
  Michael Roemelt        : Original ROCIS implementation, recursive CI coupling coefficients
  Masaaki Saitow         : Open-shell DLPNO-CCSD energy and density      
  Barbara Sandhoefer     : DKH picture change effects                    
  Yorick L. A. Schmerwitz: GMF and freeze-and-release deltaSCF, NEB S-IDPP initial path                    
  Kantharuban Sivalingam : CASSCF convergence/infrastructure, NEVPT2, NEVPT3, NEVPT4(SD), FIC-MRCI and CEPA variants
  Bernardo de Souza      : ESD, SOC TD-DFT                               
  Georgi L. Stoychev     : AutoAux, RI-MP2 NMR, DLPNO-MP2 response, X2C  
  Van Anh Tran           : RI-MP2 g-tensors                              
  Willem Van den Heuvel  : Paramagnetic NMR                              
  Zikuan Wang            : NOTCH, Electric field optimization            
  Frank Wennmohs         : Technical directorship and infrastructure     
  Hang Xu                : AUTO-CI-Response properties                   
                                                                         
[FACCTs GmbH]                                                            
  Markus Bursch, Nicolas Foglia, Miquel Garcia-Rates, Ingolf Harden, Hagen Neugebauer, Anastasios Papadopoulos, 
  Christoph Riplinger, Bernardo de Souza, Georgi L. Stoychev                                                    
                                                                 
  APM, various basis sets, CI-OPT, improved COSX, DLPNO-Multilevel,           
  DOCKER, DRACO, updates on ESD, Fragmentator, GOAT, IRC, LR-CPCM, L-BFGS, MBIS, meta-GGA TD-DFT gradient, ML-optimized integration grids, 
  MM, NACMEs, nearIR, NEB, NEB-TS, NL-DFT gradient (VV10), 2- and 3-layer-ONIOM, interface openCOSMO-RS, QMMM,   
  Crystal-QMMM, RESP, rigid body optimization, SF, symmetry and pop. for TD-DFT, various functionals, SOLVATOR                                   
                                                                         
[Other institutions]                                                     
  V. Asgeirsson          : NEB                                           
  Christoph Bannwarth    : sTDA-DFT, sTD-DFT, PBEh-3c, B97-3c, D3        
  Giovanni Bistoni       : ETS/NOCV, ADLD/ADEX, COVALED                  
  Martin Brehm           : Molecular dynamics                            
  Ronald Cardenas        : ETS/NOCV                                      
  Martina Colucci        : COVALED                                       
  Sebastian Ehlert       : rSCAN, r2SCAN, r2SCAN-3c, D4, dhf basis sets  
  Marvin Friede          : D4 for Fr, Ra, Ac-Lr                          
  Lars Goerigk           : TD-DFT with DH, B97 family of functionals     
  Stefan Grimme          : VdW corrections, initial TS optimization, DFT functionals, gCP, sTDA/sTD-DF 
  Waldemar Hujo          : DFT-NL                                        
  H. Jonsson             : NEB                                           
  Holger Kruse           : gCP                                           
  Marcel Mueller         : wB97X-3c, vDZP basis set                      
  Hagen Neugebauer       : wr2SCAN, Native XTB                           
  Gianluca Regni         : ADLD/ADEX                                     
  Tobias Risthaus        : pre 6.0 range-separated hybrid DFT and stability analysis
  Lukas Wittmann         : regularized MP2, r2SCAN double-hybrids, wr2SCAN        
                                                                         
We gratefully acknowledge several colleagues who have allowed us to      
interface, adapt or use parts of their codes:                            
  Ed Valeev, F. Pavosevic, A. Kumar             : LibInt (2-el integral package), F12 methods 
  Garnet Chan, S. Sharma, J. Yang, R. Olivares  : DMRG                   
  Ulf Ekstrom                                   : XCFun DFT Library      
  Mihaly Kallay                                 : mrcc  (arbitrary order and MRCC methods)
  Frank Weinhold                                : gennbo (NPA and NBO analysis)           
  Simon Mueller                                 : openCOSMO-RS                            
  Christopher J. Cramer and Donald G. Truhlar   : smd solvation model                     
  S Lehtola, MJT Oliveira, MAL Marques          : LibXC Library                           
  Liviu Ungur et al                             : ANISO software                          


 Your calculation uses the libint2 library for the computation of 2-el integrals
 For citations please refer to: http://libint.valeyev.net

 Your ORCA version has been built with support for libXC version: 7.0.0
 For citations please refer to: https://libxc.gitlab.io

 This ORCA versions uses:
   CBLAS   interface :  Fast vector & matrix operations
   LAPACKE interface :  Fast linear algebra routines
   SCALAPACK package :  Parallel linear algebra routines
   Shared memory     :  Shared parallel matrices
   BLAS/LAPACK       :  OpenBLAS 0.3.29  USE64BITINT DYNAMIC_ARCH NO_AFFINITY Haswell SINGLE_THREADED
        Core in use  :  Haswell
   Copyright (c) 2011-2014, The OpenBLAS Project


  ***********************************
  * Starting time: Sat Aug 30 14:49:35 2025
  * Host name:     chemlab03
  * Process ID:    75241
  * Working dir.:  /home/vivek/mm-project/vivek/xtb-goat/B97-D-opt/c/1
  ***********************************



***************************************
The coordinates will be read from file: /home/vivek/mm-project/vivek/xtb-goat/xtb-goat/c/C_CONF/1.xyz
***************************************


Your calculation utilizes empirical dispersion correction


Warning: RI is on but no J-basis has been assigned. Assigning Def2/J (nothing to worry about!)
================================================================================

----- Orbital basis set information -----
Your calculation utilizes the basis: 6-31G**
   H-He, Li-Ne : W. J. Hehre, R. Ditchfield and J.A. Pople, J. Chem. Phys. 56, 2257 (1972).
                 Note: He and Ne are unpublished basis sets taken from the Gaussian program.
                 Note: Li and B from J. D. Dill and J. A. Pople, J. Chem. Phys. 62, 2921 (1975).
   Na - Ar     : M. M. Francl, W. J. Pietro, W. J. Hehre, J. S. Binkley, M. S. Gordon, 
                 D. J. DeFrees and J. A. Pople, J. Chem. Phys. 77, 3654 (1982).
   K - Zn      : V. A. Rassolov, J. A. Pople, M. A. Ratner, and T. L. Windus, J. Chem. Phys. 109, 1223 (1998).

----- AuxJ basis set information -----
Your calculation utilizes the auxiliary basis: def2/J
   H-Rn: F. Weigend, Phys. Chem. Chem. Phys. 8, 1057 (2006).
   Fr-Lr: K. Eichkorn, F. Weigend, O. Treutler, R. Ahlrichs; Theor. Chem. Acc. 97, 119 (1997).

================================================================================
                                        WARNINGS
                       Please study these warnings very carefully!
================================================================================


WARNING: Geometry Optimization
  ===> : Switching off AutoStart
         For restart on a previous wavefunction, please use MOREAD

INFO   : The exchange functional is Grimme's B97(-D)
         As described in S. Grimme, J. Comput. Chem. 27, 1787 (2006).
         Note that this functional defaults to a pure GGA. 

INFO   : The correlation functional is Grimme's B97(-D)
         As described in S. Grimme, J. Comput. Chem. 27, 1787 (2006).

================================================================================
                                       INPUT FILE
================================================================================
NAME = 1.inp
|  1> ! B97-D 6-31G** opt
|  2> 
|  3> * xyzfile 0 1 /home/vivek/mm-project/vivek/xtb-goat/xtb-goat/c/C_CONF/1.xyz
|  4> 
|  5>                          ****END OF INPUT****
================================================================================

                       *****************************
                       * Geometry Optimization Run *
                       *****************************

Geometry optimization settings:
Update method            Update   .... BFGS
Choice of coordinates    CoordSys .... (2022) Redundant Internals
Initial Hessian          InHess   .... Almloef's Model
Max. no of cycles        MaxIter  .... 50

Convergence Tolerances:
Energy Change            TolE     ....  5.0000e-06 Eh
Max. Gradient            TolMAXG  ....  3.0000e-04 Eh/bohr
RMS Gradient             TolRMSG  ....  1.0000e-04 Eh/bohr
Max. Displacement        TolMAXD  ....  4.0000e-03 bohr
RMS Displacement         TolRMSD  ....  2.0000e-03 bohr
Strict Convergence                .... False

------------------------------------------------------------------------------
                        ORCA OPTIMIZATION COORDINATE SETUP
------------------------------------------------------------------------------

The optimization will be done in redundant internal coordinates (2022)
Making redundant internal coordinates   ...  (2022 redundants) done
Evaluating the initial hessian          ...  (Almloef) done
Evaluating the coordinates              ...  done
Calculating the B-matrix                .... done
Calculating the G-matrix                .... done
The number of degrees of freedom        ....   57

    -----------------------------------------------------------------
                    Redundant Internal Coordinates


    -----------------------------------------------------------------
         Definition                    Initial Value    Approx d2E/dq
    -----------------------------------------------------------------
      1. B(H   2,C   1)                  1.0885         0.362138   
      2. B(C   5,H   0)                  1.0960         0.352235   
      3. B(C   5,C   1)                  1.5331         0.369348   
      4. B(S   7,H   3)                  1.3305         0.401365   
      5. B(S   7,C   1)                  1.8213         0.345467   
      6. B(N   8,H   6)                  1.0130         0.427946   
      7. B(N   8,C   5)                  1.4475         0.453058   
      8. B(N   8,H   3)                  2.3432         0.010000   
      9. B(H   9,O   4)                  2.4164         0.010000   
     10. B(H   9,N   8)                  1.0151         0.424646   
     11. B(C  10,C   5)                  1.5282         0.375999   
     12. B(C  10,O   4)                  1.3395         0.673610   
     13. B(H  11,C   1)                  1.0913         0.358393   
     14. B(O  12,C  10)                  1.1999         1.125018   
     15. B(H  13,O   4)                  0.9702         0.500773   
     16. A(H   2,C   1,C   5)          110.8232         0.324014   
     17. A(H   2,C   1,H  11)          109.7510         0.290880   
     18. A(C   5,C   1,S   7)          110.6045         0.376717   
     19. A(H   2,C   1,S   7)          106.6992         0.336736   
     20. A(C   5,C   1,H  11)          110.4927         0.323461   
     21. A(S   7,C   1,H  11)          108.3684         0.336154   
     22. A(C  10,O   4,H  13)          110.4285         0.373016   
     23. A(C   1,C   5,N   8)          109.3313         0.372506   
     24. A(C   1,C   5,C  10)          106.7972         0.363047   
     25. A(H   0,C   5,N   8)          108.8525         0.331582   
     26. A(H   0,C   5,C  10)          107.7430         0.323489   
     27. A(N   8,C   5,C  10)          115.4326         0.373653   
     28. A(H   0,C   5,C   1)          108.4820         0.322543   
     29. A(C   1,S   7,H   3)           93.9247         0.367269   
     30. A(H   6,N   8,H   9)          107.8937         0.301813   
     31. A(C   5,N   8,H   9)          110.2627         0.339118   
     32. A(C   5,N   8,H   6)          111.0596         0.339557   
     33. A(O   4,C  10,C   5)          112.2522         0.400390   
     34. A(C   5,C  10,O  12)          124.8479         0.438720   
     35. A(O   4,C  10,O  12)          122.8837         0.484773   
     36. D(N   8,C   5,C   1,H   2)   -179.7270         0.010908   
     37. D(H   0,C   5,C   1,H   2)    -61.1514         0.010908   
     38. D(N   8,C   5,C   1,S   7)    -61.6000         0.010908   
     39. D(H   0,C   5,C   1,S   7)     56.9756         0.010908   
     40. D(H   0,C   5,C   1,H  11)    176.9703         0.010908   
     41. D(N   8,C   5,C   1,H  11)     58.3947         0.010908   
     42. D(H   3,S   7,C   1,H  11)    -76.4526         0.010000   
     43. D(H   3,S   7,C   1,C   5)     44.8078         0.010000   
     44. D(H   3,S   7,C   1,H   2)    165.4243         0.010000   
     45. D(H   9,N   8,C   5,C   1)    -67.7729         0.018780   
     46. D(H   9,N   8,C   5,H   0)    173.8824         0.018780   
     47. D(H   6,N   8,C   5,C  10)    -66.9249         0.018780   
     48. D(H   6,N   8,C   5,H   0)     54.3369         0.018780   
     49. D(H   9,N   8,C   5,C  10)     52.6206         0.018780   
     50. D(H   6,N   8,C   5,C   1)    172.6816         0.018780   
     51. D(O  12,C  10,C   5,C   1)    -76.4821         0.010564   
     52. D(O  12,C  10,C   5,H   0)     39.8938         0.010564   
     53. D(O   4,C  10,C   5,N   8)    -19.6786         0.010564   
     54. D(O   4,C  10,C   5,C   1)    102.0863         0.010564   
     55. D(O   4,C  10,C   5,H   0)   -141.5378         0.010564   
     56. D(O  12,C  10,O   4,H  13)      0.3033         0.037270   
     57. D(C   5,C  10,O   4,H  13)   -178.2977         0.037270   
    -----------------------------------------------------------------

Number of atoms                         .... 14
Number of degrees of freedom            .... 57


         *************************************************************
         *                GEOMETRY OPTIMIZATION CYCLE   1            *
         *************************************************************
---------------------------------
CARTESIAN COORDINATES (ANGSTROEM)
---------------------------------
  H     -1.604707    2.183468    1.765667
  C     -2.965673    0.992920    0.604925
  H     -2.980526    0.152766    1.296788
  H     -3.964628    3.074973    0.311490
  O      0.031237    0.877740   -0.660584
  C     -1.663897    1.790650    0.744182
  H     -0.889117    3.514688   -0.032120
  S     -4.402503    2.034212    1.015213
  N     -1.680977    2.901388   -0.183825
  H     -1.634009    2.561928   -1.139351
  C     -0.516131    0.798673    0.559440
  H     -3.084257    0.630709   -0.417651
  O     -0.149233    0.012537    1.388385
  H      0.737686    0.219883   -0.758085

----------------------------
CARTESIAN COORDINATES (A.U.)
----------------------------
  NO LB      ZA    FRAG     MASS         X           Y           Z
   0 H     1.0000    0     1.008   -3.032457    4.126156    3.336627
   1 C     6.0000    0    12.011   -5.604309    1.876347    1.143142
   2 H     1.0000    0     1.008   -5.632378    0.288686    2.450574
   3 H     1.0000    0     1.008   -7.492062    5.810858    0.588630
   4 O     8.0000    0    15.999    0.059030    1.658687   -1.248322
   5 C     6.0000    0    12.011   -3.144309    3.383839    1.406301
   6 H     1.0000    0     1.008   -1.680188    6.641798   -0.060699
   7 S    16.0000    0    32.060   -8.319524    3.844103    1.918475
   8 N     7.0000    0    14.007   -3.176586    5.482829   -0.347379
   9 H     1.0000    0     1.008   -3.087830    4.841343   -2.153061
  10 C     6.0000    0    12.011   -0.975347    1.509273    1.057188
  11 H     1.0000    0     1.008   -5.828400    1.191867   -0.789246
  12 O     8.0000    0    15.999   -0.282010    0.023692    2.623668
  13 H     1.0000    0     1.008    1.394025    0.415518   -1.432573

--------------------------------
INTERNAL COORDINATES (ANGSTROEM)
--------------------------------
 H      0   0   0     0.000000000000     0.00000000     0.00000000
 C      1   0   0     2.148709824958     0.00000000     0.00000000
 H      2   1   0     1.088463740963    95.33316383     0.00000000
 H      2   1   3     2.327866739723    81.04445084   139.70482875
 O      1   2   3     3.204361732536    71.85414648   102.36892125
 C      1   2   3     1.096010962029    42.58607213   124.68982387
 H      6   1   2     2.043339552026    91.78836517   140.96824221
 S      4   2   1     1.330468258034    51.31114435   250.38415285
 N      7   6   1     1.013012254645    41.38220111   230.28643724
 H      9   7   6     1.015119738906   107.89371765   239.04929970
 C      5   1   2     1.339522932114    29.05050801   278.94785274
 H      2   1   3     1.091293171458   139.36889113   230.94978868
 O     11   5   1     1.199905330453   122.88372573   203.26445708
 H      5   1   2     0.970233026000   136.39524193   246.93819617

---------------------------
INTERNAL COORDINATES (A.U.)
---------------------------
 H      0   0   0     0.000000000000     0.00000000     0.00000000
 C      1   0   0     4.060473110436     0.00000000     0.00000000
 H      2   1   0     2.056898377124    95.33316383     0.00000000
 H      2   1   3     4.399030614341    81.04445084   139.70482875
 O      1   2   3     6.055366108510    71.85414648   102.36892125
 C      1   2   3     2.071160558011    42.58607213   124.68982387
 H      6   1   2     3.861352151939    91.78836517   140.96824221
 S      4   2   1     2.514220637559    51.31114435   250.38415285
 N      7   6   1     1.914315731586    41.38220111   230.28643724
 H      9   7   6     1.918298299671   107.89371765   239.04929970
 C      5   1   2     2.531331491803    29.05050801   278.94785274
 H      2   1   3     2.062245225874   139.36889113   230.94978868
 O     11   5   1     2.267492461189   122.88372573   203.26445708
 H      5   1   2     1.833474705226   136.39524193   246.93819617

---------------------
BASIS SET INFORMATION
---------------------
There are 5 groups of distinct atoms

 Group   1 Type H   : 4s1p contracted to 2s1p pattern {31/1}
 Group   2 Type C   : 10s4p1d contracted to 3s2p1d pattern {631/31/1}
 Group   3 Type O   : 10s4p1d contracted to 3s2p1d pattern {631/31/1}
 Group   4 Type S   : 16s10p1d contracted to 4s3p1d pattern {6631/631/1}
 Group   5 Type N   : 10s4p1d contracted to 3s2p1d pattern {631/31/1}

Atom   0H    basis set group =>   1
Atom   1C    basis set group =>   2
Atom   2H    basis set group =>   1
Atom   3H    basis set group =>   1
Atom   4O    basis set group =>   3
Atom   5C    basis set group =>   2
Atom   6H    basis set group =>   1
Atom   7S    basis set group =>   4
Atom   8N    basis set group =>   5
Atom   9H    basis set group =>   1
Atom  10C    basis set group =>   2
Atom  11H    basis set group =>   1
Atom  12O    basis set group =>   3
Atom  13H    basis set group =>   1
---------------------------------
AUXILIARY/J BASIS SET INFORMATION
---------------------------------
There are 5 groups of distinct atoms

 Group   1 Type H   : 5s2p1d contracted to 3s1p1d pattern {311/2/1}
 Group   2 Type C   : 12s5p4d2f1g contracted to 6s4p3d1f1g pattern {711111/2111/211/2/1}
 Group   3 Type O   : 12s5p4d2f1g contracted to 6s4p3d1f1g pattern {711111/2111/211/2/1}
 Group   4 Type S   : 14s5p5d2f1g contracted to 8s4p3d1f1g pattern {71111111/2111/311/2/1}
 Group   5 Type N   : 12s5p4d2f1g contracted to 6s4p3d1f1g pattern {711111/2111/211/2/1}

Atom   0H    basis set group =>   1
Atom   1C    basis set group =>   2
Atom   2H    basis set group =>   1
Atom   3H    basis set group =>   1
Atom   4O    basis set group =>   3
Atom   5C    basis set group =>   2
Atom   6H    basis set group =>   1
Atom   7S    basis set group =>   4
Atom   8N    basis set group =>   5
Atom   9H    basis set group =>   1
Atom  10C    basis set group =>   2
Atom  11H    basis set group =>   1
Atom  12O    basis set group =>   3
Atom  13H    basis set group =>   1
------------------------------------------------------------------------------
                             ORCA STARTUP CALCULATIONS
                           -- RI-GTO INTEGRALS CHOSEN --
------------------------------------------------------------------------------
------------------------------------------------------------------------------
                   ___                                                        
                  /   \      - P O W E R E D   B Y -                         
                 /     \                                                     
                 |  |  |   _    _      __       _____    __    __             
                 |  |  |  | |  | |    /  \     |  _  \  |  |  /  |          
                  \  \/   | |  | |   /    \    | | | |  |  | /  /          
                 / \  \   | |__| |  /  /\  \   | |_| |  |  |/  /          
                |  |  |   |  __  | /  /__\  \  |    /   |      \           
                |  |  |   | |  | | |   __   |  |    \   |  |\   \          
                \     /   | |  | | |  |  |  |  | |\  \  |  | \   \       
                 \___/    |_|  |_| |__|  |__|  |_| \__\ |__|  \__/        
                                                                              
                      - O R C A' S   B I G   F R I E N D -                    
                                      &                                       
                       - I N T E G R A L  F E E D E R -                       
                                                                              
 v1 FN, 2020, v2 2021, v3 2022-2024                                           
------------------------------------------------------------------------------


----------------------
SHARK INTEGRAL PACKAGE
----------------------

Number of atoms                             ...     14
Number of basis functions                   ...    137
Number of shells                            ...     65
Maximum angular momentum                    ...      2
Integral batch strategy                     ... SHARK/LIBINT Hybrid
RI-J (if used) integral strategy            ... SPLIT-RIJ (Revised 2003 algorithm where possible)
Printlevel                                  ...      1
Contraction scheme used                     ... SEGMENTED contraction
Prescreening option                         ... SCHWARTZ
   Thresh                                   ... 2.500e-11
   Tcut                                     ... 2.500e-12
   Tpresel                                  ... 2.500e-12 
Coulomb Range Separation                    ... NOT USED
Exchange Range Separation                   ... NOT USED
Multipole approximations                    ... NOT USED
Finite Nucleus Model                        ... NOT USED
CABS basis                                  ... NOT available
Auxiliary Coulomb fitting basis             ... AVAILABLE
   # of basis functions in Aux-J            ...    422
   # of shells in Aux-J                     ...    142
   Maximum angular momentum in Aux-J        ...      4
Auxiliary J/K fitting basis                 ... NOT available
Auxiliary Correlation fitting basis         ... NOT available
Auxiliary 'external' fitting basis          ... NOT available

Checking pre-screening integrals            ... done (  0.0 sec) Dimension = 65
   => SHARK Basis and OBASIS are compatible. Storing Pre-screening
Shell pair information
Shell pair cut-off parameter TPreSel        ...   2.5e-12
Total number of shell pairs                 ...      2145
Shell pairs after pre-screening             ...      2015
Total number of primitive shell pairs       ...     11826
Primitive shell pairs kept                  ...      7487
          la=0 lb=0:    616 shell pairs
          la=1 lb=0:    746 shell pairs
          la=1 lb=1:    241 shell pairs
          la=2 lb=0:    237 shell pairs
          la=2 lb=1:    147 shell pairs
          la=2 lb=2:     28 shell pairs

Checking whether 4 symmetric matrices of dimension 137 fit in memory
:Max Core in MB      =   4096.00
 MB in use           =      6.22
 MB left             =   4089.78
 MB needed           =      0.29
 Data fit in memory  = YES
Calculating RI/J V-Matrix + Cholesky decomp.... done (  0.0 sec)
Calculating Nuclear repulsion               ... done (  0.0 sec) ENN=    376.664284365738 Eh

Diagonalization of the overlap matrix:
Smallest eigenvalue                        ... 3.446e-03
Time for diagonalization                   ...    0.001 sec
Threshold for overlap eigenvalues          ... 1.000e-07
Number of eigenvalues below threshold      ... 0
Time for construction of square roots      ...    0.000 sec
Total time needed                          ...    0.001 sec

-------------------
DFT GRID GENERATION
-------------------

General Integration Accuracy     IntAcc      ... 4.388
Radial Grid Type                 RadialGrid  ... OptM3 with GC (2021)
Angular Grid (max. ang.)         AngularGrid ... 4 (Lebedev-302)
Angular grid pruning method      GridPruning ... 4 (adaptive)
Weight generation scheme         WeightScheme... mBecke (2022)
Basis function cutoff            BFCut       ... 1.0000e-11
Integration weight cutoff        WCut        ... 1.0000e-14
Partially contracted basis set               ... off
Rotationally invariant grid construction     ... off
Angular grids for H and He will be reduced by one unit

Total number of grid points                  ...    66144
Total number of batches                      ...     1039
Average number of points per batch           ...       63
Average number of grid points per atom       ...     4725
Grids setup in   0.2 sec
Initializing property integral containers    ... done (  0.0 sec)

SHARK setup successfully completed in   0.3 seconds

Maximum memory used throughout the entire STARTUP-calculation: 27.9 MB
-------------------------------------------------------------------------------
                                 ORCA GUESS
                   Start orbitals & Density for SCF / CASSCF
-------------------------------------------------------------------------------

------------
SCF SETTINGS
------------
Hamiltonian:
 Density Functional     Method          .... DFT(GTOs)
 Exchange Functional    Exchange        .... B97(D)
 Correlation Functional Correlation     .... B97(D)
 Gradients option       PostSCFGGA      .... off
 RI-approximation to the Coulomb term is turned on
   Number of AuxJ basis functions       .... 422


General Settings:
 Integral files         IntName         .... 1
 Hartree-Fock type      HFTyp           .... RHF
 Total Charge           Charge          ....    0
 Multiplicity           Mult            ....    1
 Number of Electrons    NEL             ....   64
 Basis Dimension        Dim             ....  137
 Nuclear Repulsion      ENuc            ....    376.6642843657 Eh

Convergence Acceleration:
 AO-DIIS                CNVDIIS         .... on
   Start iteration      DIISMaxIt       ....    12
   Startup error        DIISStart       ....  0.200000
   # of expansion vecs  DIISMaxEq       ....     5
   Bias factor          DIISBfac        ....   1.050
   Max. coefficient     DIISMaxC        ....  10.000
 MO-DIIS                CNVKDIIS        .... off
 Trust-Rad. Augm. Hess. CNVTRAH         .... auto
   Auto Start mean grad. ratio tolernc. ....  1.125000
   Auto Start start iteration           ....    50
   Auto Start num. interpolation iter.  ....    10
   Max. Number of Micro iterations      ....    24
   Max. Number of Macro iterations      .... Maxiter - #DIIS iter
   Number of Davidson start vectors     ....     2
   Converg. threshold    (grad. norm)   ....   1.000e-05
   Grad. Scal. Fac. for Micro threshold ....   0.100
   Minimum threshold for Micro iter.    ....   1.000e-02
   NR start threshold (gradient norm)   ....   1.000e-04
   Initial trust radius                 ....   0.400
   Minimum AH scaling param. (alpha)    ....   1.000
   Maximum AH scaling param. (alpha)    .... 1000.000
   Quad. conv. algorithm                .... NR
   White noise on init. David. guess    .... on
   Maximum white noise                  ....   0.010
   Pseudo random numbers                .... off
   Inactive MOs                         .... canonical
   Orbital update algorithm             .... Taylor
   Preconditioner                       .... Diag
   Full preconditioner red. dimension   ....   250
 SOSCF                 CNVSOSCF           .... on
   Start iteration     SOSCFMaxIt         ....   150
   Startup grad/error  SOSCFStart         ....  0.003300
   Hessian update      SOSCFHessUp        .... L-BFGS
   Autom. constraints  SOSCFAutoConstrain .... off
 Level Shifting         CNVShift        .... on
   Level shift para.    LevelShift      ....    0.2500
   Turn off err/grad.   ShiftErr        ....    0.0010
 Zerner damping         CNVZerner       .... off
 Static damping         CNVDamp         .... on
   Fraction old density DampFac         ....    0.7000
   Max. Damping (<1)    DampMax         ....    0.9800
   Min. Damping (>=0)   DampMin         ....    0.0000
   Turn off err/grad.   DampErr         ....    0.1000

SCF Procedure:
 Maximum # iterations   MaxIter         ....   125
 SCF integral mode      SCFMode         .... Direct
   Integral package                     .... SHARK and LIBINT hybrid scheme
 Reset frequency        DirectResetFreq ....    20
 Integral Threshold     Thresh          ....  2.500e-11 Eh
 Primitive CutOff       TCut            ....  2.500e-12 Eh

Convergence Tolerance:
 Convergence Check Mode ConvCheckMode   .... Total+1el-Energy
 Convergence forced     ConvForced      .... 0
 Energy Change          TolE            ....  1.000e-08 Eh
 1-El. energy change                    ....  1.000e-05 Eh
 Orbital Gradient       TolG            ....  1.000e-05
 Orbital Rotation angle TolX            ....  1.000e-05
 DIIS Error             TolErr          ....  5.000e-07

------------------------------
INITIAL GUESS: MODEL POTENTIAL
------------------------------
Loading Hartree-Fock densities                     ... done
Calculating cut-offs                               ... done
Initializing the effective Hamiltonian             ... done
Setting up the integral package (SHARK)            ... done
Starting the Coulomb interaction                   ... done (   0.0 sec)
Making the grid                                    ... done (   0.1 sec)
Mapping shells                                     ... done
Starting the XC term evaluation                    ... done (   0.1 sec)
  promolecular density results
     # of electrons  =     63.999577060
     EX              =    -64.733547912
     EC              =     -2.962371182
     EX+EC           =    -67.695919094
Transforming the Hamiltonian                       ... done (   0.0 sec)
Diagonalizing the Hamiltonian                      ... done (   0.0 sec)
Back transforming the eigenvectors                 ... done (   0.0 sec)
Now organizing SCF variables                       ... done
                      ------------------
                      INITIAL GUESS DONE (   0.2 sec)
                      ------------------
             **** ENERGY FILE WAS UPDATED (1.en.tmp) ****
Finished Guess after   0.2 sec
Maximum memory used throughout the entire GUESS-calculation: 10.3 MB

-------------------------------------------------------------------------------------------
                                      ORCA LEAN-SCF
                              memory conserving SCF solver
-------------------------------------------------------------------------------------------

----------------------------------------D-I-I-S--------------------------------------------
Iteration    Energy (Eh)           Delta-E    RMSDP     MaxDP     DIISErr   Damp  Time(sec)
-------------------------------------------------------------------------------------------
               ***  Starting incremental Fock matrix formation  ***
    1    -721.4646220041875040     0.00e+00  4.25e-03  1.00e-01  2.57e-01  0.700   0.3
    2    -721.5867529967486007    -1.22e-01  2.61e-03  5.17e-02  9.62e-02  0.700   0.3
                               ***Turning on AO-DIIS***
    3    -721.6220831302885017    -3.53e-02  9.89e-04  2.08e-02  2.59e-02  0.700   0.3
    4    -721.6461523498514907    -2.41e-02  1.37e-03  3.57e-02  1.55e-02  0.000   0.3
    5    -721.7029622636521253    -5.68e-02  4.77e-04  9.99e-03  9.06e-03  0.000   0.3
                              *** Initializing SOSCF ***
---------------------------------------S-O-S-C-F--------------------------------------
Iteration    Energy (Eh)           Delta-E    RMSDP     MaxDP     MaxGrad    Time(sec)
--------------------------------------------------------------------------------------
    6    -721.7035359767819500    -5.74e-04  1.58e-04  2.06e-03  3.13e-03     0.3
               *** Restarting incremental Fock matrix formation ***
    7    -721.7035860751980181    -5.01e-05  1.17e-04  2.07e-03  5.57e-04     0.3
    8    -721.7035784883087217     7.59e-06  6.11e-05  1.59e-03  1.42e-03     0.3
    9    -721.7035907675851831    -1.23e-05  5.01e-05  8.06e-04  2.02e-04     0.3
   10    -721.7035902472862290     5.20e-07  2.38e-05  4.13e-04  1.92e-04     0.3
   11    -721.7035918488243169    -1.60e-06  1.36e-05  2.92e-04  4.65e-05     0.3
   12    -721.7035917856587730     6.32e-08  7.38e-06  1.59e-04  5.16e-05     0.3
   13    -721.7035919211505188    -1.35e-07  1.92e-06  3.64e-05  5.79e-06     0.2
   14    -721.7035919212512454    -1.01e-10  9.77e-07  2.27e-05  7.63e-06     0.2
                 **** Energy Check signals convergence ****

               *****************************************************
               *                     SUCCESS                       *
               *           SCF CONVERGED AFTER  14 CYCLES          *
               *****************************************************

             **** ENERGY FILE WAS UPDATED (1.en.tmp) ****

----------------
TOTAL SCF ENERGY
----------------

Total Energy       :       -721.70359192100614 Eh          -19638.55314 eV

Components:
Nuclear Repulsion  :        376.66428436573807 Eh           10249.55625 eV
Electronic Energy  :      -1098.36787628674415 Eh          -29888.10940 eV
One Electron Energy:      -1739.43356805163353 Eh          -47332.39372 eV
Two Electron Energy:        641.06569176488938 Eh           17444.28432 eV

Virial components:
Potential Energy   :      -1441.21245152229994 Eh          -39217.38458 eV
Kinetic Energy     :        719.50885960129392 Eh           19578.83144 eV
Virial Ratio       :          2.00305032007657

DFT components:
N(Alpha)           :       31.999985467594 electrons
N(Beta)            :       31.999985467594 electrons
N(Total)           :       63.999970935187 electrons
E(X)               :      -65.657582129879 Eh       
E(C)               :       -2.954709392335 Eh       
E(XC)              :      -68.612291522214 Eh       

---------------
SCF CONVERGENCE
---------------

  Last Energy change         ...    1.0073e-10  Tolerance :   1.0000e-08
  Last MAX-Density change    ...    2.2729e-05  Tolerance :   1.0000e-07
  Last RMS-Density change    ...    9.7735e-07  Tolerance :   5.0000e-09
  Last DIIS Error            ...    3.1277e-03  Tolerance :   5.0000e-07
  Last Orbital Gradient      ...    7.6277e-06  Tolerance :   1.0000e-05
  Last Orbital Rotation      ...    5.6565e-06  Tolerance :   1.0000e-05


----------------
ORBITAL ENERGIES
----------------

  NO   OCC          E(Eh)            E(eV) 
   0   2.0000     -88.017770     -2395.0853 
   1   2.0000     -18.826259      -512.2886 
   2   2.0000     -18.761695      -510.5317 
   3   2.0000     -14.006815      -381.1448 
   4   2.0000     -10.038732      -273.1678 
   5   2.0000      -9.963795      -271.1287 
   6   2.0000      -9.945881      -270.6412 
   7   2.0000      -7.704744      -209.6567 
   8   2.0000      -5.739006      -156.1663 
   9   2.0000      -5.734493      -156.0435 
  10   2.0000      -5.727576      -155.8553 
  11   2.0000      -1.031953       -28.0809 
  12   2.0000      -0.941884       -25.6300 
  13   2.0000      -0.836644       -22.7662 
  14   2.0000      -0.720718       -19.6117 
  15   2.0000      -0.652054       -17.7433 
  16   2.0000      -0.586006       -15.9460 
  17   2.0000      -0.548409       -14.9230 
  18   2.0000      -0.470655       -12.8072 
  19   2.0000      -0.459664       -12.5081 
  20   2.0000      -0.426486       -11.6053 
  21   2.0000      -0.407104       -11.0779 
  22   2.0000      -0.404675       -11.0118 
  23   2.0000      -0.371017       -10.0959 
  24   2.0000      -0.355969        -9.6864 
  25   2.0000      -0.340087        -9.2542 
  26   2.0000      -0.331406        -9.0180 
  27   2.0000      -0.287398        -7.8205 
  28   2.0000      -0.282105        -7.6765 
  29   2.0000      -0.251595        -6.8463 
  30   2.0000      -0.203761        -5.5446 
  31   2.0000      -0.191320        -5.2061 
  32   0.0000      -0.033086        -0.9003 
  33   0.0000       0.022600         0.6150 
  34   0.0000       0.037306         1.0151 
  35   0.0000       0.067098         1.8258 
  36   0.0000       0.077377         2.1055 
  37   0.0000       0.094287         2.5657 
  38   0.0000       0.115702         3.1484 
  39   0.0000       0.138588         3.7712 
  40   0.0000       0.144956         3.9444 
  41   0.0000       0.176037         4.7902 
  42   0.0000       0.182397         4.9633 
*Only the first 10 virtual orbitals were printed.

                    ********************************
                    * MULLIKEN POPULATION ANALYSIS *
                    ********************************

-----------------------
MULLIKEN ATOMIC CHARGES
-----------------------
   0 H :    0.157651
   1 C :   -0.341547
   2 H :    0.169955
   3 H :    0.095179
   4 O :   -0.460901
   5 C :   -0.051990
   6 H :    0.253415
   7 S :   -0.070459
   8 N :   -0.560250
   9 H :    0.253723
  10 C :    0.495505
  11 H :    0.143338
  12 O :   -0.406217
  13 H :    0.322598
Sum of atomic charges:   -0.0000000

--------------------------------
MULLIKEN REDUCED ORBITAL CHARGES
--------------------------------
  0 H s       :     0.831504  s :     0.831504
      pz      :     0.006197  p :     0.010844
      px      :     0.002241
      py      :     0.002406

  1 C s       :     3.306372  s :     3.306372
      pz      :     1.093387  p :     2.998482
      px      :     0.890365
      py      :     1.014730
      dz2     :     0.008076  d :     0.036693
      dxz     :     0.004227
      dyz     :     0.009418
      dx2y2   :     0.007513
      dxy     :     0.007458

  2 H s       :     0.818329  s :     0.818329
      pz      :     0.004244  p :     0.011716
      px      :     0.002404
      py      :     0.005068

  3 H s       :     0.887614  s :     0.887614
      pz      :     0.006026  p :     0.017208
      px      :     0.004756
      py      :     0.006425

  4 O s       :     3.819924  s :     3.819924
      pz      :     1.494497  p :     4.618266
      px      :     1.496580
      py      :     1.627189
      dz2     :     0.008309  d :     0.022710
      dxz     :     0.004066
      dyz     :     0.004249
      dx2y2   :     0.000785
      dxy     :     0.005301

  5 C s       :     3.201820  s :     3.201820
      pz      :     0.987608  p :     2.792892
      px      :     0.942703
      py      :     0.862581
      dz2     :     0.012962  d :     0.057278
      dxz     :     0.005393
      dyz     :     0.012693
      dx2y2   :     0.009128
      dxy     :     0.017101

  6 H s       :     0.722600  s :     0.722600
      pz      :     0.004731  p :     0.023986
      px      :     0.010332
      py      :     0.008923

  7 S s       :     5.849711  s :     5.849711
      pz      :     3.703265  p :    10.163213
      px      :     3.353047
      py      :     3.106900
      dz2     :     0.004496  d :     0.057535
      dxz     :     0.007548
      dyz     :     0.015796
      dx2y2   :     0.011430
      dxy     :     0.018264

  8 N s       :     3.580908  s :     3.580908
      pz      :     1.128591  p :     3.951445
      px      :     1.552130
      py      :     1.270723
      dz2     :     0.008280  d :     0.027897
      dxz     :     0.001877
      dyz     :     0.006554
      dx2y2   :     0.004447
      dxy     :     0.006740

  9 H s       :     0.722358  s :     0.722358
      pz      :     0.011031  p :     0.023919
      px      :     0.007070
      py      :     0.005817

 10 C s       :     2.988918  s :     2.988918
      pz      :     0.710621  p :     2.390512
      px      :     0.842836
      py      :     0.837056
      dz2     :     0.042758  d :     0.125064
      dxz     :     0.027470
      dyz     :     0.024596
      dx2y2   :     0.012570
      dxy     :     0.017670

 11 H s       :     0.845031  s :     0.845031
      pz      :     0.006093  p :     0.011632
      px      :     0.002622
      py      :     0.002917

 12 O s       :     3.855847  s :     3.855847
      pz      :     1.530100  p :     4.521994
      px      :     1.567801
      py      :     1.424093
      dz2     :     0.006743  d :     0.028376
      dxz     :     0.005444
      dyz     :     0.007111
      dx2y2   :     0.005115
      dxy     :     0.003964

 13 H s       :     0.639479  s :     0.639479
      pz      :     0.007416  p :     0.037922
      px      :     0.015649
      py      :     0.014858



                     *******************************
                     * LOEWDIN POPULATION ANALYSIS *
                     *******************************

----------------------
LOEWDIN ATOMIC CHARGES
----------------------
   0 H :    0.097568
   1 C :   -0.210080
   2 H :    0.097157
   3 H :    0.053426
   4 O :   -0.144399
   5 C :   -0.056234
   6 H :    0.131593
   7 S :   -0.008609
   8 N :   -0.240594
   9 H :    0.129085
  10 C :    0.101145
  11 H :    0.076436
  12 O :   -0.210732
  13 H :    0.184239

-------------------------------
LOEWDIN REDUCED ORBITAL CHARGES
-------------------------------
  0 H s       :     0.862966  s :     0.862966
      pz      :     0.024563  p :     0.039467
      px      :     0.006687
      py      :     0.008217

  1 C s       :     2.955200  s :     2.955200
      pz      :     1.109930  p :     3.174550
      px      :     0.994241
      py      :     1.070379
      dz2     :     0.017772  d :     0.080330
      dxz     :     0.008748
      dyz     :     0.018416
      dx2y2   :     0.015794
      dxy     :     0.019601

  2 H s       :     0.861096  s :     0.861096
      pz      :     0.015362  p :     0.041747
      px      :     0.006600
      py      :     0.019785

  3 H s       :     0.893948  s :     0.893948
      pz      :     0.018171  p :     0.052627
      px      :     0.012624
      py      :     0.021832

  4 O s       :     3.470533  s :     3.470533
      pz      :     1.521929  p :     4.622947
      px      :     1.488746
      py      :     1.612273
      dz2     :     0.018629  d :     0.050919
      dxz     :     0.011723
      dyz     :     0.007851
      dx2y2   :     0.001660
      dxy     :     0.011056

  5 C s       :     2.885952  s :     2.885952
      pz      :     1.036812  p :     3.038968
      px      :     1.024697
      py      :     0.977458
      dz2     :     0.028588  d :     0.131314
      dxz     :     0.010155
      dyz     :     0.029440
      dx2y2   :     0.019978
      dxy     :     0.043153

  6 H s       :     0.788915  s :     0.788915
      pz      :     0.012210  p :     0.079491
      px      :     0.038604
      py      :     0.028677

  7 S s       :     5.643972  s :     5.643972
      pz      :     3.726107  p :    10.300720
      px      :     3.425280
      py      :     3.149333
      dz2     :     0.005182  d :     0.063918
      dxz     :     0.007879
      dyz     :     0.016984
      dx2y2   :     0.012547
      dxy     :     0.021326

  8 N s       :     3.187848  s :     3.187848
      pz      :     1.165788  p :     3.995077
      px      :     1.534991
      py      :     1.294298
      dz2     :     0.017872  d :     0.057668
      dxz     :     0.003207
      dyz     :     0.016349
      dx2y2   :     0.007709
      dxy     :     0.012531

  9 H s       :     0.791222  s :     0.791222
      pz      :     0.041668  p :     0.079693
      px      :     0.020274
      py      :     0.017750

 10 C s       :     2.858060  s :     2.858060
      pz      :     0.908784  p :     2.742144
      px      :     0.901211
      py      :     0.932149
      dz2     :     0.106482  d :     0.298652
      dxz     :     0.064263
      dyz     :     0.060025
      dx2y2   :     0.025907
      dxy     :     0.041974

 11 H s       :     0.882060  s :     0.882060
      pz      :     0.024613  p :     0.041504
      px      :     0.007095
      py      :     0.009796

 12 O s       :     3.552731  s :     3.552731
      pz      :     1.569695  p :     4.599117
      px      :     1.562324
      py      :     1.467099
      dz2     :     0.012549  d :     0.058884
      dxz     :     0.010144
      dyz     :     0.018953
      dx2y2   :     0.008354
      dxy     :     0.008885

 13 H s       :     0.699701  s :     0.699701
      pz      :     0.020941  p :     0.116060
      px      :     0.048504
      py      :     0.046615



                      *****************************
                      * MAYER POPULATION ANALYSIS *
                      *****************************

  NA   - Mulliken gross atomic population
  ZA   - Total nuclear charge
  QA   - Mulliken gross atomic charge
  VA   - Mayer's total valence
  BVA  - Mayer's bonded valence
  FA   - Mayer's free valence

  ATOM       NA         ZA         QA         VA         BVA        FA
  0 H      0.8423     1.0000     0.1577     0.9480     0.9480    -0.0000
  1 C      6.3415     6.0000    -0.3415     3.8557     3.8557     0.0000
  2 H      0.8300     1.0000     0.1700     0.9429     0.9429     0.0000
  3 H      0.9048     1.0000     0.0952     0.9866     0.9866     0.0000
  4 O      8.4609     8.0000    -0.4609     2.0539     2.0539    -0.0000
  5 C      6.0520     6.0000    -0.0520     3.8567     3.8567    -0.0000
  6 H      0.7466     1.0000     0.2534     0.9165     0.9165    -0.0000
  7 S     16.0705    16.0000    -0.0705     1.9738     1.9738    -0.0000
  8 N      7.5603     7.0000    -0.5603     2.9156     2.9156    -0.0000
  9 H      0.7463     1.0000     0.2537     0.9249     0.9249    -0.0000
 10 C      5.5045     6.0000     0.4955     3.9565     3.9565     0.0000
 11 H      0.8567     1.0000     0.1433     0.9370     0.9370    -0.0000
 12 O      8.4062     8.0000    -0.4062     2.1077     2.1077     0.0000
 13 H      0.6774     1.0000     0.3226     0.9151     0.9151    -0.0000

  Mayer bond orders larger than 0.100000
B(  0-H ,  5-C ) :   0.9269 B(  1-C ,  2-H ) :   0.9377 B(  1-C ,  5-C ) :   0.9637 
B(  1-C ,  7-S ) :   1.0036 B(  1-C , 11-H ) :   0.9363 B(  3-H ,  7-S ) :   0.9209 
B(  4-O , 10-C ) :   1.0953 B(  4-O , 13-H ) :   0.8501 B(  5-C ,  8-N ) :   1.0292 
B(  5-C , 10-C ) :   0.8973 B(  6-H ,  8-N ) :   0.9068 B(  8-N ,  9-H ) :   0.8970 
B( 10-C , 12-O ) :   1.9152 

-------
TIMINGS
-------

Total SCF time: 0 days 0 hours 0 min 4 sec 

Total time                  ....       4.104 sec
Sum of individual times     ....       3.823 sec  ( 93.2%)

SCF preparation             ....       0.024 sec  (  0.6%)
Fock matrix formation       ....       3.770 sec  ( 91.9%)
  Startup                   ....       0.001 sec  (  0.0% of F)
  Split-RI-J                ....       1.147 sec  ( 30.4% of F)
  XC integration            ....       2.853 sec  ( 75.7% of F)
    Basis function eval.    ....       1.001 sec  ( 35.1% of XC)
    Density eval.           ....       0.567 sec  ( 19.9% of XC)
    XC-Functional eval.     ....       0.606 sec  ( 21.2% of XC)
    XC-Potential eval.      ....       0.607 sec  ( 21.3% of XC)
Diagonalization             ....       0.000 sec  (  0.0%)
Density matrix formation    ....       0.003 sec  (  0.1%)
Total Energy calculation    ....       0.001 sec  (  0.0%)
Population analysis         ....       0.002 sec  (  0.0%)
Orbital Transformation      ....       0.003 sec  (  0.1%)
Orbital Orthonormalization  ....       0.000 sec  (  0.0%)
DIIS solution               ....       0.012 sec  (  0.3%)
SOSCF solution              ....       0.008 sec  (  0.2%)
Finished LeanSCF after   4.1 sec

Maximum memory used throughout the entire LEANSCF-calculation: 14.9 MB



-------------------------------------------------------------------------------
                          DFT DISPERSION CORRECTION                            
-------------------------------------------------------------------------------
Active option DFTDOPT                   ...         2   
Final C6-coefficient scaling factor     ...     1.250
Final VDW-radii scaling factor          ...     1.100
Damping factor alpha                    ...    20.000
-------------------------   ----------------
Dispersion correction           -0.016521078
-------------------------   ----------------


-------------------------   --------------------
FINAL SINGLE POINT ENERGY      -721.720112999106
-------------------------   --------------------

------------------------------------------------------------------------------
                         ORCA SCF GRADIENT CALCULATION
------------------------------------------------------------------------------

Nuc. rep. gradient        (SHARK) ... done (  0.0 sec)
HCore & Overlap gradient  (SHARK) ... done (  0.1 sec)
Split-RIJ-J gradient      (SHARK) ... done (  0.3 sec)
XC gradient                       ... done (  1.4 sec)
Dispersion correction             ... done (  0.0 sec)

-------------------
DISPERSION GRADIENT
-------------------

   1   H   :    0.000074871   -0.000024832   -0.000012785
   2   C   :   -0.000401293    0.000965047    0.000365594
   3   H   :   -0.000847741    0.000419679   -0.000659353
   4   H   :    0.000213368   -0.000215657   -0.000022952
   5   O   :    0.000074710    0.000197537    0.000096291
   6   C   :   -0.000479061   -0.000716290   -0.000406476
   7   H   :    0.000008136    0.000754494   -0.000533736
   8   S   :    0.000723765   -0.000578172   -0.000375479
   9   N   :   -0.000479696   -0.000726897    0.000797093
  10   H   :    0.000669455    0.000733996   -0.000413421
  11   C   :    0.000353312    0.000076080    0.000346596
  12   H   :   -0.000906748   -0.000433703    0.000953198
  13   O   :    0.000950252   -0.000240680   -0.000511817
  14   H   :    0.000046670   -0.000210602    0.000377247

Difference to translation invariance:
           :    0.0000000000    0.0000000000   -0.0000000000

Difference to rotation invariance:
           :   -0.0000000000   -0.0000000000    0.0000000000

Norm of the Dispersion gradient    ...    0.0034062426
RMS gradient                       ...    0.0005255946
MAX gradient                       ...    0.0009650473

------------------
CARTESIAN GRADIENT
------------------

   1   H   :   -0.001239099    0.000954926   -0.001954398
   2   C   :    0.005283272   -0.003602472   -0.002152786
   3   H   :   -0.001518983    0.004928223   -0.002371822
   4   H   :   -0.003828702   -0.009654707    0.005970194
   5   O   :   -0.004153455   -0.009481213    0.027350487
   6   C   :   -0.003273020    0.000983165    0.003617480
   7   H   :   -0.003389977   -0.001404526    0.000318190
   8   S   :    0.016223596    0.005610821   -0.010312412
   9   N   :    0.005551801   -0.010372236    0.001481319
  10   H   :   -0.001938862    0.000905323    0.002590874
  11   C   :    0.003996322   -0.009406470    0.001113658
  12   H   :   -0.002921229    0.004499588    0.005232000
  13   O   :   -0.007663638    0.021566824   -0.025714383
  14   H   :   -0.001128027    0.004472753   -0.005168399

Difference to translation invariance:
           :   -0.0000000002    0.0000000001    0.0000000000

Difference to rotation invariance:
           :   -0.0000575880    0.0002449205    0.0002027700

Norm of the Cartesian gradient     ...    0.0553976708
RMS gradient                       ...    0.0085480462
MAX gradient                       ...    0.0273504865

-------
TIMINGS
-------

Total SCF gradient time     ....        1.770 sec

Densities                   ....       0.000 sec  (  0.0%)
One electron gradient       ....       0.057 sec  (  3.2%)
RI-J Coulomb gradient       ....       0.345 sec  ( 19.5%)
XC gradient                 ....       1.367 sec  ( 77.3%)

Maximum memory used throughout the entire SCFGRAD-calculation: 19.5 MB
------------------------------------------------------------------------------
                         ORCA GEOMETRY RELAXATION STEP
------------------------------------------------------------------------------

Reading the OPT-File                    .... done
Getting information on internals        .... done
Copying old internal coords+grads       .... done
Making the new internal coordinates     .... (2022 redundants) done
Validating the new internal coordinates .... (2022 redundants) done
Calculating the B-matrix                .... done
Calculating the G,G- and P matrices     .... done
Transforming gradient to internals      .... done
Projecting the internal gradient        .... done
Number of atoms                         ....  14
Number of internal coordinates          ....  57
Current Energy                          ....  -721.720112999 Eh
Current gradient norm                   ....     0.055397671 Eh/bohr
Maximum allowed component of the step   ....  0.300
Current trust radius                    ....  0.300
Evaluating the initial hessian          ....  (Almloef) done
Projecting the Hessian                  .... done
Forming the augmented Hessian           .... done
Diagonalizing the augmented Hessian     .... done
Last element of RFO vector              ....  0.979100340
Lowest eigenvalues of augmented Hessian:
 -0.005439819  0.010010516  0.010565659  0.010803609  0.016438680
Length of the computed step             ....  0.207719045
The final length of the internal step   ....  0.207719045
Converting the step to Cartesian space:
 Initial RMS(Int)=    0.0275130597
Transforming coordinates:
 Iter   0:  RMS(Cart)=    0.0464654832 RMS(Int)=    0.8299063478
done
Storing new coordinates                 .... done

                                .--------------------.
          ----------------------|Geometry convergence|-------------------------
          Item                value                   Tolerance       Converged
          ---------------------------------------------------------------------
          RMS gradient        0.0068115935            0.0001000000      NO
          MAX gradient        0.0342345063            0.0003000000      NO
          RMS step            0.0275130597            0.0020000000      NO
          MAX step            0.1176272590            0.0040000000      NO
          -------------------------------------------------------------------------
          ........................................................
          Max(Bonds)      0.0622      Max(Angles)    1.68
          Max(Dihed)        2.90      Max(Improp)    0.00
          ---------------------------------------------------------------------

The optimization has not yet converged - more geometry cycles are needed


    ---------------------------------------------------------------------------
                         Redundant Internal Coordinates
                            (Angstroem and degrees)

        Definition                    Value    dE/dq     Step     New-Value
    ----------------------------------------------------------------------------
     1. B(H   2,C   1)                1.0885 -0.005296  0.0076    1.0961   
     2. B(C   5,H   0)                1.0960 -0.001546  0.0023    1.0983   
     3. B(C   5,C   1)                1.5331 -0.009101  0.0147    1.5478   
     4. B(S   7,H   3)                1.3305 -0.013295  0.0164    1.3469   
     5. B(S   7,C   1)                1.8213 -0.010014  0.0174    1.8386   
     6. B(N   8,H   6)                1.0130 -0.003448  0.0042    1.0172   
     7. B(N   8,C   5)                1.4475 -0.008972  0.0120    1.4595   
     8. B(N   8,H   3)                2.3432 -0.003555  0.0622    2.4054   
     9. B(H   9,O   4)                2.4164 -0.002918  0.0334    2.4498   
    10. B(H   9,N   8)                1.0151 -0.003064  0.0036    1.0187   
    11. B(C  10,C   5)                1.5282 -0.008308  0.0141    1.5423   
    12. B(C  10,O   4)                1.3395 -0.022490  0.0176    1.3571   
    13. B(H  11,C   1)                1.0913 -0.006074  0.0088    1.1001   
    14. B(O  12,C  10)                1.1999 -0.034235  0.0160    1.2159   
    15. B(H  13,O   4)                0.9702 -0.003333  0.0035    0.9737   
    16. A(H   2,C   1,C   5)          110.82  0.001052   -0.60    110.22   
    17. A(H   2,C   1,H  11)          109.75  0.000728   -0.78    108.97   
    18. A(C   5,C   1,S   7)          110.60 -0.002867    1.42    112.02   
    19. A(H   2,C   1,S   7)          106.70 -0.000383   -0.02    106.68   
    20. A(C   5,C   1,H  11)          110.49  0.003583   -0.76    109.73   
    21. A(S   7,C   1,H  11)          108.37 -0.002330    0.79    109.15   
    22. A(C  10,O   4,H  13)          110.43  0.011091   -1.68    108.75   
    23. A(C   1,C   5,N   8)          109.33  0.000035    0.64    109.97   
    24. A(C   1,C   5,C  10)          106.80 -0.000533    0.13    106.93   
    25. A(H   0,C   5,N   8)          108.85 -0.000109   -0.28    108.57   
    26. A(H   0,C   5,C  10)          107.74  0.002094   -1.07    106.67   
    27. A(N   8,C   5,C  10)          115.43 -0.001989    1.04    116.48   
    28. A(H   0,C   5,C   1)          108.48  0.000659   -0.57    107.91   
    29. A(C   1,S   7,H   3)           93.92  0.007077   -0.49     93.43   
    30. A(H   6,N   8,H   9)          107.89  0.000105   -0.60    107.30   
    31. A(C   5,N   8,H   9)          110.26  0.004294   -0.52    109.74   
    32. A(C   5,N   8,H   6)          111.06  0.000036   -0.27    110.79   
    33. A(O   4,C  10,C   5)          112.25  0.004315   -0.14    112.11   
    34. A(C   5,C  10,O  12)          124.85  0.001878   -0.45    124.40   
    35. A(O   4,C  10,O  12)          122.88 -0.006172    0.54    123.42   
    36. D(N   8,C   5,C   1,H   2)   -179.73  0.001473   -1.23   -180.95   
    37. D(H   0,C   5,C   1,H   2)    -61.15  0.001745   -1.53    -62.68   
    38. D(N   8,C   5,C   1,S   7)    -61.60 -0.000153   -0.73    -62.33   
    39. D(H   0,C   5,C   1,S   7)     56.98  0.000119   -1.03     55.94   
    40. D(H   0,C   5,C   1,H  11)    176.97 -0.002325    0.38    177.35   
    41. D(N   8,C   5,C   1,H  11)     58.39 -0.002597    0.68     59.08   
    42. D(H   3,S   7,C   1,H  11)    -76.45  0.000518   -2.90    -79.35   
    43. D(H   3,S   7,C   1,C   5)     44.81  0.001675   -2.46     42.35   
    44. D(H   3,S   7,C   1,H   2)    165.42  0.001076   -2.38    163.04   
    45. D(H   9,N   8,C   5,C   1)    -67.77  0.003144   -2.08    -69.85   
    46. D(H   9,N   8,C   5,H   0)    173.88  0.002392   -1.60    172.28   
    47. D(H   6,N   8,C   5,C  10)    -66.92 -0.001840    0.55    -66.38   
    48. D(H   6,N   8,C   5,H   0)     54.34 -0.000561   -0.34     54.00   
    49. D(H   9,N   8,C   5,C  10)     52.62  0.001113   -0.71     51.91   
    50. D(H   6,N   8,C   5,C   1)    172.68  0.000191   -0.82    171.86   
    51. D(O  12,C  10,C   5,C   1)    -76.48 -0.001239    1.55    -74.94   
    52. D(O  12,C  10,C   5,H   0)     39.89  0.000294    0.42     40.32   
    53. D(O   4,C  10,C   5,N   8)    -19.68  0.001224   -2.32    -22.00   
    54. D(O   4,C  10,C   5,C   1)    102.09 -0.000420   -0.72    101.36   
    55. D(O   4,C  10,C   5,H   0)   -141.54  0.001113   -1.85   -143.39   
    56. D(O  12,C  10,O   4,H  13)      0.30  0.000075   -0.59     -0.29   
    57. D(C   5,C  10,O   4,H  13)   -178.30 -0.000855    1.64   -176.66   
    ----------------------------------------------------------------------------

Geometry step timings:
Preparation and reading OPT file:      0.000 s ( 1.488 %)
Internal coordinates            :      0.000 s ( 1.624 %)
B/P matrices and projection     :      0.000 s (38.024 %)
Hessian update/contruction      :      0.000 s (10.961 %)
Making the step                 :      0.000 s (24.087 %)
Converting the step to Cartesian:      0.000 s ( 4.060 %)
Storing new data                :      0.000 s ( 1.894 %)
Checking convergence            :      0.000 s ( 1.759 %)
Final printing                  :      0.000 s (15.968 %)
Total time                      :      0.001 s

Time for energy+gradient        :      6.408 s
Time for complete geometry iter :      6.420 s

         *************************************************************
         *                GEOMETRY OPTIMIZATION CYCLE   2            *
         *************************************************************
---------------------------------
CARTESIAN COORDINATES (ANGSTROEM)
---------------------------------
  H     -1.604140    2.195956    1.747116
  C     -2.974188    0.995615    0.593985
  H     -2.959261    0.138427    1.276931
  H     -4.005075    3.088993    0.382218
  O      0.049295    0.847160   -0.674796
  C     -1.661081    1.804875    0.722386
  H     -0.885064    3.547268   -0.039415
  S     -4.448559    1.999886    1.039041
  N     -1.677685    2.931602   -0.205088
  H     -1.601393    2.590561   -1.161974
  C     -0.499155    0.802867    0.565795
  H     -3.084975    0.629057   -0.437345
  O     -0.153920    0.012165    1.422586
  H      0.738466    0.162103   -0.736965

----------------------------
CARTESIAN COORDINATES (A.U.)
----------------------------
  NO LB      ZA    FRAG     MASS         X           Y           Z
   0 H     1.0000    0     1.008   -3.031385    4.149756    3.301570
   1 C     6.0000    0    12.011   -5.620401    1.881440    1.122468
   2 H     1.0000    0     1.008   -5.592193    0.261590    2.413049
   3 H     1.0000    0     1.008   -7.568494    5.837350    0.722288
   4 O     8.0000    0    15.999    0.093154    1.600900   -1.275179
   5 C     6.0000    0    12.011   -3.138988    3.410720    1.365111
   6 H     1.0000    0     1.008   -1.672529    6.703365   -0.074484
   7 S    16.0000    0    32.060   -8.406559    3.779237    1.963503
   8 N     7.0000    0    14.007   -3.170366    5.539925   -0.387561
   9 H     1.0000    0     1.008   -3.026194    4.895450   -2.195812
  10 C     6.0000    0    12.011   -0.943265    1.517199    1.069197
  11 H     1.0000    0     1.008   -5.829758    1.188745   -0.826463
  12 O     8.0000    0    15.999   -0.290867    0.022988    2.688297
  13 H     1.0000    0     1.008    1.395499    0.306331   -1.392661

--------------------------------
INTERNAL COORDINATES (ANGSTROEM)
--------------------------------
 H      0   0   0     0.000000000000     0.00000000     0.00000000
 C      1   0   0     2.155820800177     0.00000000     0.00000000
 H      2   1   0     1.096087816761    95.36505818     0.00000000
 H      2   1   3     2.343032563839    80.24082714   139.41491150
 O      1   2   3     3.227809154136    72.03296265    99.88513217
 C      1   2   3     1.098297966656    43.09074969   123.14224008
 H      6   1   2     2.053892875268    91.39803187   141.15067649
 S      4   2   1     1.346940580533    51.56463364   247.67460346
 N      7   6   1     1.017222012128    41.63050458   230.08844583
 H      9   7   6     1.018704792143   107.29260493   240.23765937
 C      5   1   2     1.357137846827    28.44642052   277.26066244
 H      2   1   3     1.100127421097   138.67367167   233.05901034
 O     11   5   1     1.215930806073   123.40872893   200.43981012
 H      5   1   2     0.973716778070   134.78518654   249.06623633

---------------------------
INTERNAL COORDINATES (A.U.)
---------------------------
 H      0   0   0     0.000000000000     0.00000000     0.00000000
 C      1   0   0     4.073910906146     0.00000000     0.00000000
 H      2   1   0     2.071305792406    95.36505818     0.00000000
 H      2   1   3     4.427689868515    80.24082714   139.41491150
 O      1   2   3     6.099675313880    72.03296265    99.88513217
 C      1   2   3     2.075482370422    43.09074969   123.14224008
 H      6   1   2     3.881295042668    91.39803187   141.15067649
 S      4   2   1     2.545348815872    51.56463364   247.67460346
 N      7   6   1     1.922271020319    41.63050458   230.08844583
 H      9   7   6     1.925073068463   107.29260493   240.23765937
 C      5   1   2     2.564618856483    28.44642052   277.26066244
 H      2   1   3     2.078939538291   138.67367167   233.05901034
 O     11   5   1     2.297776221276   123.40872893   200.43981012
 H      5   1   2     1.840058042557   134.78518654   249.06623633

------------------------------------------------------------------------------
                   ___                                                        
                  /   \      - P O W E R E D   B Y -                         
                 /     \                                                     
                 |  |  |   _    _      __       _____    __    __             
                 |  |  |  | |  | |    /  \     |  _  \  |  |  /  |          
                  \  \/   | |  | |   /    \    | | | |  |  | /  /          
                 / \  \   | |__| |  /  /\  \   | |_| |  |  |/  /          
                |  |  |   |  __  | /  /__\  \  |    /   |      \           
                |  |  |   | |  | | |   __   |  |    \   |  |\   \          
                \     /   | |  | | |  |  |  |  | |\  \  |  | \   \       
                 \___/    |_|  |_| |__|  |__|  |_| \__\ |__|  \__/        
                                                                              
                      - O R C A' S   B I G   F R I E N D -                    
                                      &                                       
                       - I N T E G R A L  F E E D E R -                       
                                                                              
 v1 FN, 2020, v2 2021, v3 2022-2024                                           
------------------------------------------------------------------------------


----------------------
SHARK INTEGRAL PACKAGE
----------------------

Number of atoms                             ...     14
Number of basis functions                   ...    137
Number of shells                            ...     65
Maximum angular momentum                    ...      2
Integral batch strategy                     ... SHARK/LIBINT Hybrid
RI-J (if used) integral strategy            ... SPLIT-RIJ (Revised 2003 algorithm where possible)
Printlevel                                  ...      1
Contraction scheme used                     ... SEGMENTED contraction
Prescreening option                         ... SCHWARTZ
   Thresh                                   ... 2.500e-11
   Tcut                                     ... 2.500e-12
   Tpresel                                  ... 2.500e-12 
Coulomb Range Separation                    ... NOT USED
Exchange Range Separation                   ... NOT USED
Multipole approximations                    ... NOT USED
Finite Nucleus Model                        ... NOT USED
CABS basis                                  ... NOT available
Auxiliary Coulomb fitting basis             ... AVAILABLE
   # of basis functions in Aux-J            ...    422
   # of shells in Aux-J                     ...    142
   Maximum angular momentum in Aux-J        ...      4
Auxiliary J/K fitting basis                 ... NOT available
Auxiliary Correlation fitting basis         ... NOT available
Auxiliary 'external' fitting basis          ... NOT available

Checking pre-screening integrals            ... done (  0.0 sec) Dimension = 65
   => SHARK Basis and OBASIS are compatible. Storing Pre-screening
Shell pair information
Shell pair cut-off parameter TPreSel        ...   2.5e-12
Total number of shell pairs                 ...      2145
Shell pairs after pre-screening             ...      2010
Total number of primitive shell pairs       ...     11826
Primitive shell pairs kept                  ...      7457
          la=0 lb=0:    614 shell pairs
          la=1 lb=0:    744 shell pairs
          la=1 lb=1:    241 shell pairs
          la=2 lb=0:    237 shell pairs
          la=2 lb=1:    146 shell pairs
          la=2 lb=2:     28 shell pairs

Checking whether 4 symmetric matrices of dimension 137 fit in memory
:Max Core in MB      =   4096.00
 MB in use           =      6.36
 MB left             =   4089.64
 MB needed           =      0.29
 Data fit in memory  = YES
Calculating RI/J V-Matrix + Cholesky decomp.... done (  0.0 sec)
Calculating Nuclear repulsion               ... done (  0.0 sec) ENN=    372.353135877240 Eh

Diagonalization of the overlap matrix:
Smallest eigenvalue                        ... 3.788e-03
Time for diagonalization                   ...    0.001 sec
Threshold for overlap eigenvalues          ... 1.000e-07
Number of eigenvalues below threshold      ... 0
Time for construction of square roots      ...    0.000 sec
Total time needed                          ...    0.001 sec

-------------------
DFT GRID GENERATION
-------------------

General Integration Accuracy     IntAcc      ... 4.388
Radial Grid Type                 RadialGrid  ... OptM3 with GC (2021)
Angular Grid (max. ang.)         AngularGrid ... 4 (Lebedev-302)
Angular grid pruning method      GridPruning ... 4 (adaptive)
Weight generation scheme         WeightScheme... mBecke (2022)
Basis function cutoff            BFCut       ... 1.0000e-11
Integration weight cutoff        WCut        ... 1.0000e-14
Partially contracted basis set               ... off
Rotationally invariant grid construction     ... off
Angular grids for H and He will be reduced by one unit

Total number of grid points                  ...    66195
Total number of batches                      ...     1042
Average number of points per batch           ...       63
Average number of grid points per atom       ...     4728
Grids setup in   0.2 sec
Initializing property integral containers    ... done (  0.0 sec)

SHARK setup successfully completed in   0.3 seconds

Maximum memory used throughout the entire STARTUP-calculation: 28.1 MB
Occupation numbers will be reassigned to an Aufbau configuration
             **** ENERGY FILE WAS UPDATED (1.en.tmp) ****
Finished Guess after   0.0 sec
Maximum memory used throughout the entire GUESS-calculation: 10.4 MB
----------------------------------------D-I-I-S--------------------------------------------
Iteration    Energy (Eh)           Delta-E    RMSDP     MaxDP     DIISErr   Damp  Time(sec)
-------------------------------------------------------------------------------------------
               ***  Starting incremental Fock matrix formation  ***
    1    -721.7047003260358906     0.00e+00  2.39e-04  4.45e-03  1.25e-02  0.700   0.3
    2    -721.7053186823513897    -6.18e-04  2.31e-04  4.23e-03  9.49e-03  0.700   0.3
                               ***Turning on AO-DIIS***
    3    -721.7057768956722157    -4.58e-04  1.82e-04  3.20e-03  6.81e-03  0.700   0.3
    4    -721.7060964869560848    -3.20e-04  4.53e-04  7.77e-03  4.80e-03  0.000   0.3
                              *** Initializing SOSCF ***
---------------------------------------S-O-S-C-F--------------------------------------
Iteration    Energy (Eh)           Delta-E    RMSDP     MaxDP     MaxGrad    Time(sec)
--------------------------------------------------------------------------------------
    5    -721.7068472271696464    -7.51e-04  3.46e-05  7.67e-04  6.19e-04     0.3
               *** Restarting incremental Fock matrix formation ***
    6    -721.7068483927400848    -1.17e-06  4.24e-05  1.12e-03  2.44e-04     0.3
    7    -721.7068451843097137     3.21e-06  2.90e-05  8.42e-04  7.93e-04     0.3
    8    -721.7068490689414375    -3.88e-06  1.59e-05  2.86e-04  6.65e-05     0.3
    9    -721.7068487896401621     2.79e-07  1.07e-05  2.32e-04  9.18e-05     0.3
   10    -721.7068491802565404    -3.91e-07  2.29e-06  4.03e-05  7.65e-06     0.3
   11    -721.7068491771262870     3.13e-09  1.25e-06  2.83e-05  1.15e-05     0.2
                 **** Energy Check signals convergence ****

               *****************************************************
               *                     SUCCESS                       *
               *           SCF CONVERGED AFTER  11 CYCLES          *
               *****************************************************

             **** ENERGY FILE WAS UPDATED (1.en.tmp) ****

----------------
TOTAL SCF ENERGY
----------------

Total Energy       :       -721.70684918333404 Eh          -19638.64178 eV

[...]
  34   0.0000       0.034145         0.9291 
  35   0.0000       0.057998         1.5782 
  36   0.0000       0.073140         1.9902 
  37   0.0000       0.092891         2.5277 
  38   0.0000       0.114008         3.1023 
  39   0.0000       0.136956         3.7268 
  40   0.0000       0.139607         3.7989 
  41   0.0000       0.170125         4.6293 
  42   0.0000       0.177695         4.8353 
*Only the first 10 virtual orbitals were printed.

                    ********************************
                    * MULLIKEN POPULATION ANALYSIS *
                    ********************************

-----------------------
MULLIKEN ATOMIC CHARGES
-----------------------
   0 H :    0.160848
   1 C :   -0.335854
   2 H :    0.172340
   3 H :    0.094214
   4 O :   -0.468624
   5 C :   -0.057523
   6 H :    0.254001
   7 S :   -0.066907
   8 N :   -0.556644
   9 H :    0.250748
  10 C :    0.502873
  11 H :    0.138394
  12 O :   -0.412090
  13 H :    0.324224
Sum of atomic charges:   -0.0000000

--------------------------------
MULLIKEN REDUCED ORBITAL CHARGES
--------------------------------
  0 H s       :     0.828225  s :     0.828225
      pz      :     0.006051  p :     0.010927
      px      :     0.002380
      py      :     0.002496

  1 C s       :     3.316187  s :     3.316187
      pz      :     1.085839  p :     2.984245
      px      :     0.885693
      py      :     1.012713
      dz2     :     0.007469  d :     0.035422
      dxz     :     0.004175
      dyz     :     0.009503
      dx2y2   :     0.007218
      dxy     :     0.007057

  2 H s       :     0.816056  s :     0.816056
      pz      :     0.004159  p :     0.011603
      px      :     0.002385
      py      :     0.005059

  3 H s       :     0.889543  s :     0.889543
      pz      :     0.005725  p :     0.016243
      px      :     0.004235
      py      :     0.006283

  4 O s       :     3.839885  s :     3.839885
      pz      :     1.557708  p :     4.605539
      px      :     1.441059
      py      :     1.606772
      dz2     :     0.007103  d :     0.023200
      dxz     :     0.004241
      dyz     :     0.003989
      dx2y2   :     0.001515
      dxy     :     0.006352

  5 C s       :     3.210961  s :     3.210961
      pz      :     0.988836  p :     2.791171
      px      :     0.937079
      py      :     0.865257
      dz2     :     0.012509  d :     0.055391
      dxz     :     0.005430
      dyz     :     0.012310
      dx2y2   :     0.008663
      dxy     :     0.016478

  6 H s       :     0.722333  s :     0.722333
      pz      :     0.004713  p :     0.023665
      px      :     0.010490
      py      :     0.008462

  7 S s       :     5.854533  s :     5.854533
      pz      :     3.681111  p :    10.158040
      px      :     3.376547
      py      :     3.100382
      dz2     :     0.003949  d :     0.054334
      dxz     :     0.007463
      dyz     :     0.015881
      dx2y2   :     0.011217
      dxy     :     0.015825

  8 N s       :     3.601875  s :     3.601875
      pz      :     1.123183  p :     3.926404
      px      :     1.525545
      py      :     1.277676
      dz2     :     0.008063  d :     0.028365
      dxz     :     0.001894
      dyz     :     0.006910
      dx2y2   :     0.005202
      dxy     :     0.006295

  9 H s       :     0.725665  s :     0.725665
      pz      :     0.010851  p :     0.023586
      px      :     0.006855
      py      :     0.005880

 10 C s       :     3.013783  s :     3.013783
      pz      :     0.717370  p :     2.365628
      px      :     0.824717
      py      :     0.823541
      dz2     :     0.032300  d :     0.117716
      dxz     :     0.024114
      dyz     :     0.021961
      dx2y2   :     0.015705
      dxy     :     0.023636

 11 H s       :     0.850252  s :     0.850252
      pz      :     0.005902  p :     0.011354
      px      :     0.002519
      py      :     0.002932

 12 O s       :     3.871764  s :     3.871764
      pz      :     1.492063  p :     4.512761
      px      :     1.625463
      py      :     1.395234
      dz2     :     0.006446  d :     0.027566
      dxz     :     0.003714
      dyz     :     0.007300
      dx2y2   :     0.005298
      dxy     :     0.004807

 13 H s       :     0.638418  s :     0.638418
      pz      :     0.007661  p :     0.037358
      px      :     0.014257
      py      :     0.015441



                     *******************************
                     * LOEWDIN POPULATION ANALYSIS *
                     *******************************

----------------------
LOEWDIN ATOMIC CHARGES
----------------------
   0 H :    0.099299
   1 C :   -0.206689
   2 H :    0.098900
   3 H :    0.059695
   4 O :   -0.161777
   5 C :   -0.055820
   6 H :    0.133646
   7 S :   -0.015895
   8 N :   -0.248341
   9 H :    0.130415
  10 C :    0.124710
  11 H :    0.075680
  12 O :   -0.220528
  13 H :    0.186706

-------------------------------
LOEWDIN REDUCED ORBITAL CHARGES
-------------------------------
  0 H s       :     0.861514  s :     0.861514
      pz      :     0.024008  p :     0.039188
      px      :     0.006858
      py      :     0.008322

  1 C s       :     2.964510  s :     2.964510
      pz      :     1.108452  p :     3.165601
      px      :     0.990222
      py      :     1.066927
      dz2     :     0.016336  d :     0.076578
      dxz     :     0.008690
      dyz     :     0.018372
      dx2y2   :     0.015078
      dxy     :     0.018103

  2 H s       :     0.859763  s :     0.859763
      pz      :     0.015108  p :     0.041337
      px      :     0.006441
      py      :     0.019788

  3 H s       :     0.891843  s :     0.891843
      pz      :     0.016812  p :     0.048462
      px      :     0.010707
      py      :     0.020943

  4 O s       :     3.498494  s :     3.498494
      pz      :     1.571652  p :     4.614679
      px      :     1.443626
      py      :     1.599402
      dz2     :     0.013375  d :     0.048604
      dxz     :     0.012515
      dyz     :     0.006592
      dx2y2   :     0.003328
      dxy     :     0.012794

  5 C s       :     2.895693  s :     2.895693
      pz      :     1.034053  p :     3.034500
      px      :     1.021751
      py      :     0.978696
      dz2     :     0.027296  d :     0.125627
      dxz     :     0.010046
      dyz     :     0.028204
      dx2y2   :     0.018891
      dxy     :     0.041190

  6 H s       :     0.788499  s :     0.788499
      pz      :     0.011881  p :     0.077856
      px      :     0.039206
      py      :     0.026768

  7 S s       :     5.661543  s :     5.661543
      pz      :     3.709480  p :    10.294193
      px      :     3.440843
      py      :     3.143869
      dz2     :     0.004472  d :     0.060159
      dxz     :     0.007921
      dyz     :     0.017076
      dx2y2   :     0.012266
      dxy     :     0.018424

  8 N s       :     3.208705  s :     3.208705
      pz      :     1.164010  p :     3.982810
      px      :     1.515023
      py      :     1.303776
      dz2     :     0.017128  d :     0.056826
      dxz     :     0.003064
      dyz     :     0.016521
      dx2y2   :     0.008615
      dxy     :     0.011498

  9 H s       :     0.791789  s :     0.791789
      pz      :     0.040471  p :     0.077796
      px      :     0.019310
      py      :     0.018016

 10 C s       :     2.875960  s :     2.875960
      pz      :     0.875111  p :     2.721636
      px      :     0.891876
      py      :     0.954649
      dz2     :     0.075250  d :     0.277694
      dxz     :     0.057501
      dyz     :     0.055021
      dx2y2   :     0.034759
      dxy     :     0.055163

 11 H s       :     0.884142  s :     0.884142
      pz      :     0.023568  p :     0.040178
      px      :     0.006787
      py      :     0.009823

 12 O s       :     3.568229  s :     3.568229
      pz      :     1.524784  p :     4.595896
      px      :     1.611916
      py      :     1.459196
      dz2     :     0.010334  d :     0.056403
      dxz     :     0.006310
      dyz     :     0.019839
      dx2y2   :     0.010895
      dxy     :     0.009025

 13 H s       :     0.699263  s :     0.699263
      pz      :     0.021225  p :     0.114031
      px      :     0.043884
      py      :     0.048921



                      *****************************
                      * MAYER POPULATION ANALYSIS *
                      *****************************

  NA   - Mulliken gross atomic population
  ZA   - Total nuclear charge
  QA   - Mulliken gross atomic charge
  VA   - Mayer's total valence
  BVA  - Mayer's bonded valence
  FA   - Mayer's free valence

  ATOM       NA         ZA         QA         VA         BVA        FA
  0 H      0.8392     1.0000     0.1608     0.9453     0.9453    -0.0000
  1 C      6.3359     6.0000    -0.3359     3.8510     3.8510     0.0000
  2 H      0.8277     1.0000     0.1723     0.9455     0.9455    -0.0000
  3 H      0.9058     1.0000     0.0942     0.9848     0.9848    -0.0000
  4 O      8.4686     8.0000    -0.4686     2.0524     2.0524    -0.0000
  5 C      6.0575     6.0000    -0.0575     3.8548     3.8548    -0.0000
  6 H      0.7460     1.0000     0.2540     0.9161     0.9161     0.0000
  7 S     16.0669    16.0000    -0.0669     1.9804     1.9804    -0.0000
  8 N      7.5566     7.0000    -0.5566     2.9079     2.9079     0.0000
  9 H      0.7493     1.0000     0.2507     0.9220     0.9220    -0.0000
 10 C      5.4971     6.0000     0.5029     3.9147     3.9147     0.0000
 11 H      0.8616     1.0000     0.1384     0.9382     0.9382     0.0000
 12 O      8.4121     8.0000    -0.4121     2.0935     2.0935    -0.0000
 13 H      0.6758     1.0000     0.3242     0.9144     0.9144    -0.0000

  Mayer bond orders larger than 0.100000
B(  0-H ,  5-C ) :   0.9230 B(  1-C ,  2-H ) :   0.9327 B(  1-C ,  5-C ) :   0.9624 
B(  1-C ,  7-S ) :   1.0040 B(  1-C , 11-H ) :   0.9367 B(  3-H ,  7-S ) :   0.9284 
B(  4-O , 10-C ) :   1.0837 B(  4-O , 13-H ) :   0.8498 B(  5-C ,  8-N ) :   1.0279 
B(  5-C , 10-C ) :   0.8934 B(  6-H ,  8-N ) :   0.9041 B(  8-N ,  9-H ) :   0.9005 
B( 10-C , 12-O ) :   1.8856 

-------
TIMINGS
-------

Total SCF time: 0 days 0 hours 0 min 2 sec 

Total time                  ....       2.151 sec
Sum of individual times     ....       1.873 sec  ( 87.1%)

SCF preparation             ....       0.028 sec  (  1.3%)
Fock matrix formation       ....       1.819 sec  ( 84.6%)
  Startup                   ....       0.000 sec  (  0.0% of F)
  Split-RI-J                ....       0.585 sec  ( 32.2% of F)
  XC integration            ....       1.467 sec  ( 80.7% of F)
    XC Preparation          ....       0.000 sec  (  0.0% of XC)
    Basis function eval.    ....       0.533 sec  ( 36.3% of XC)
    Density eval.           ....       0.293 sec  ( 20.0% of XC)
    XC-Functional eval.     ....       0.323 sec  ( 22.0% of XC)
    XC-Potential eval.      ....       0.279 sec  ( 19.0% of XC)
Diagonalization             ....       0.000 sec  (  0.0%)
Density matrix formation    ....       0.001 sec  (  0.1%)
Total Energy calculation    ....       0.000 sec  (  0.0%)
Population analysis         ....       0.011 sec  (  0.5%)
Orbital Transformation      ....       0.003 sec  (  0.1%)
Orbital Orthonormalization  ....       0.000 sec  (  0.0%)
DIIS solution               ....       0.005 sec  (  0.2%)
SOSCF solution              ....       0.006 sec  (  0.3%)
Finished LeanSCF after   2.2 sec

Maximum memory used throughout the entire LEANSCF-calculation: 15.5 MB



-------------------------------------------------------------------------------
                          DFT DISPERSION CORRECTION                            
-------------------------------------------------------------------------------
Active option DFTDOPT                   ...         2   
Final C6-coefficient scaling factor     ...     1.250
Final VDW-radii scaling factor          ...     1.100
Damping factor alpha                    ...    20.000
-------------------------   ----------------
Dispersion correction           -0.016526470
-------------------------   ----------------


-------------------------   --------------------
FINAL SINGLE POINT ENERGY      -721.723978992712
-------------------------   --------------------

                                *** OPTIMIZATION RUN DONE ***


------------------------------------------------------------------------------
                              ORCA PROPERTY CALCULATIONS
------------------------------------------------------------------------------

GBWName                                 ... 1.gbw
Number of atoms                         ...     14
Number of basis functions               ...    137
Max core memory                         ...   4096 MB

Electric properties:
Dipole moment                           ... YES
Quadrupole moment                       ...  NO
Static polarizability (Dipole/Dipole)   ...  NO
Static polarizability (Dipole/Quad.)    ...  NO
Static polarizability (Quad./Quad.)     ...  NO
Static polarizability (Velocity)        ...  NO
Static hyperpolarizability              ...  NO

Atomic electric properties:
Dipole moment                           ...  NO
Quadrupole moment                       ...  NO
Static polarizability                   ...  NO

Choice of electric origin               ... Center of mass
Position of electric origin             ...    -3.803634     2.724245     1.040594

General magnetic properties:
Magnetizability                         ...  NO

EPR properties:
g-Tensor (aka g-matrix)                 ...  NO
Zero-Field splitting spin-orbit         ...  NO
Zero-field splitting spin-spin          ...  NO
Hyperfine couplings                     ...  NO (   0 nuclei)
Quadrupole couplings                    ...  NO (   0 nuclei)
Contact density                         ...  NO (   0 nuclei)

NMR properties:
Chemical shifts                         ...  NO (   0 nuclei)
Spin-rotation constants                 ...  NO (   0 nuclei)
Spin-spin couplings                     ...  NO (   0 nuclei,    0 pairs)

Choice of magnetic origin               ... GIAO
Position of magnetic origin             ...     0.000000     0.000000     0.000000

Properties with geometric perturbations:
SCF Hessian                             ...  NO
IR spectrum                             ...  NO
VCD spectrum                            ...  NO
X-ray spectroscopy properties:
SCF XES/XAS/RIXS spectra                ...  NO

SCF SOC stabilization energy            ...  NO
Diagonal Born-Oppenheimer correction    ...  NO

-------------
DIPOLE MOMENT
-------------

Method             : SCF
Type of density    : Electron Density
Multiplicity       :   1
Irrep              :   0
Energy             :  -721.7074525223652017 Eh
Basis              : AO
                                X                 Y                 Z
Electronic contribution:      0.258020852      -1.934896275       1.677277499
Nuclear contribution   :      0.851578153       2.140398243      -2.597816370
                        -----------------------------------------
Total Dipole Moment    :      1.109599005       0.205501968      -0.920538870
                        -----------------------------------------
Magnitude (a.u.)       :      1.456307942
Magnitude (Debye)      :      3.701640615



--------------------
Rotational spectrum 
--------------------
 
Rotational constants in cm-1:             0.145080             0.038318             0.032087 
Rotational constants in MHz :          4349.387583          1148.734800           961.953043 

Dipole components along the rotational axes: 
x,y,z [a.u.] :    -1.139004    -0.866380     0.269981 
x,y,z [Debye]:    -2.895117    -2.202162     0.686238 

 

Dipole moment calculation done in   0.0 sec 

Maximum memory used throughout the entire PROP-calculation: 9.0 MB

--------------------------------
SUGGESTED CITATIONS FOR THIS RUN
--------------------------------

Below you find a list of papers that are relevant to this ORCA run
We neither can nor want to force you to cite these papers, but we appreciate if you do
You receive ORCA, which is the product of decades of hard work by many enthusiastic individuals, for free
The only thing we kindly ask in return is that you cite our papers,
We deeply appreciate it, if you show your appreciation for ORCA by not just citing the generic ORCA reference.

Please note that relegating all ORCA citations to the supporting information does *not* help us.
SI sections are not indexed - citations you put there will not count into any citation statistics
But we need these citations in order to attract the funding resources that allow us to do what we are doing

Therefore, if you are a happy ORCA user, please consider citing a few of the papers listed below in the main body of your paper

In addition to the list printed below, the program has created the file 1.bibtex that contains the list in bibtex format
You can import this file easily into all common literature databanks and citation aid programs


List of essential papers. We consider these as the minimum necessary citations

  1. Neese, F.
     Software update: the ORCA program system, version 6.0
     WIRES Comput. Molec. Sci. 2025 15(1), e70019
     doi.org/10.1002/wcms.7019

List of papers to cite with high priority. The work reported in these papers was absolutely
necessary for this run to complete.
Our perspective: the developers of density functionals and basis sets usually get cited in chemistry papers
Good! But without the algorithms to do something with them, the functionals or basis sets would not do anything.
Hence, in our opinion, the algorithm design and method developments papers are equally worthy of getting cited

  1. Neese, F.
     An improvement of the resolution of the identity approximation for the formation of the Coulomb matrix
     J. Comp. Chem. 2003 24(14), 1740-1747
     doi.org/10.1002/jcc.10318
  2. Grimme, S.
     Semiempirical GGA-type density functional constructed with a long-range dispersion correction
     J.Comput.Chem. 2006 27(15), 1787-1799
     doi.org/10.1002/jcc.20495
  3. Neese, F.
     The SHARK Integral Generation and Digestion System
     J. Comp. Chem. 2022 44(3), 381
     doi.org/10.1002/jcc.26942

List of suggested additional citations. These are papers that are important in the 'surrounding' of 
of this run, or papers that preceded the highly important papers. If you like your results we are grateful for a citation.

  1. Neese, F.
     The ORCA program system
     WIRES Comput. Molec. Sci. 2012 2(1), 73-78
     doi.org/10.1002/wcms.81
  2. Neese, F.
     Software update: the ORCA program system, version 4.0
     WIRES Comput. Molec. Sci. 2018 8(1), 1-6
     doi.org/10.1002/wcms.1327
  3. Neese, F.; Wennmohs, F.; Becker, U.; Riplinger, C.
     The ORCA quantum chemistry program package
     J. Chem. Phys. 2020 152(22), 224108
     doi.org/10.1063/5.0004608
  4. Neese, F.
     Software update: The ORCA program system—Version 5.0
     WIRES Comput. Molec. Sci. 2022 12(1), e1606
     doi.org/10.1002/wcms.1606

List of optional additional citations

  1. Neese, F.
     Approximate second-order SCF convergence for spin unrestricted wavefunctions
     Chem. Phys. Lett. 2000 325(1-3), 93-98
     doi.org/10.1016/s0009-2614(00)00662-x

Timings for individual modules:

Sum of individual times          ...       81.928 sec (=   1.365 min)
Startup calculation              ...        5.135 sec (=   0.086 min)   6.3 %
SCF iterations                   ...       47.647 sec (=   0.794 min)  58.2 %
Property calculations            ...        0.034 sec (=   0.001 min)   0.0 %
SCF Gradient evaluation          ...       29.066 sec (=   0.484 min)  35.5 %
Geometry relaxation              ...        0.045 sec (=   0.001 min)   0.1 %
                             ****ORCA TERMINATED NORMALLY****
TOTAL RUN TIME: 0 days 0 hours 1 minutes 22 seconds 282 msec
