
                                 *****************
                                 * O   R   C   A *
                                 *****************

                                            #,                                       
                                            ###                                      
                                            ####                                     
                                            #####                                    
                                            ######                                   
                                           ########,                                 
                                     ,,################,,,,,                         
                               ,,#################################,,                 
                          ,,##########################################,,             
                       ,#########################################, ''#####,          
                    ,#############################################,,   '####,        
                  ,##################################################,,,,####,       
                ,###########''''           ''''###############################       
              ,#####''   ,,,,##########,,,,          '''####'''          '####       
            ,##' ,,,,###########################,,,                        '##       
           ' ,,###''''                  '''############,,,                           
         ,,##''                                '''############,,,,        ,,,,,,###''
      ,#''                                            '''#######################'''  
     '                                                          ''''####''''         
             ,#######,   #######,   ,#######,      ##                                
            ,#'     '#,  ##    ##  ,#'     '#,    #''#        ,####,    ,#,          
            ##       ##  ##   ,#'  ##            #'  '#       #'       ,# #          
            ##       ##  #######   ##           ,######,      #####,      #          
            '#,     ,#'  ##    ##  '#,     ,#' ,#      #,     #,   #      #          
             '#######'   ##     ##  '#######'  #'      '#     '####' #    #          



                #########################################################
                #                        -***-                          #
                #          Department of theory and spectroscopy        #
                #                                                       #
                #                      Frank Neese                      #
                #                                                       #
                #     Directorship, Architecture, Infrastructure        #
                #                    SHARK, DRIVERS                     #
                #        Core code/Algorithms in most modules           #
                #                                                       #
                #        Max Planck Institute fuer Kohlenforschung      #
                #                Kaiser Wilhelm Platz 1                 #
                #                 D-45470 Muelheim/Ruhr                 #
                #                      Germany                          #
                #                                                       #
                #                  All rights reserved                  #
                #                        -***-                          #
                #########################################################


                         Program Version 6.1.0  -  RELEASE   -
                                (GIT: $679e74b$)
                          ($2025-06-10 18:02:51 +0200$)


 With contributions from (in alphabetic order):
[Max-Planck-Institut fuer Kohlenforschung]                               
  Daniel Aravena         : Magnetic Suceptibility                        
  Michael Atanasov       : Ab Initio Ligand Field Theory (pilot matlab implementation)
  Alexander A. Auer      : GIAO ZORA, VPT2 properties, NMR spectrum      
  Ute Becker             : All parallelization in ORCA, NUMFREQ, NUMCALC 
  Giovanni Bistoni       : ED, misc. LED, open-shell LED, HFLD           
  Dmytro Bykov           : pre 5.0 version of the SCF Hessian            
  Marcos Casanova-Páez   : Triplet and SCS-CIS(D). UHF-(DLPNO)-IP/EA/STEOM-CCSD. UHF-CVS-IP/STEOM-CCSD   
  Vijay G. Chilkuri      : MRCI spin determinant printing, contributions to CSF-ICE 
  Pauline Colinet        : FMM embedding                                 
  Dipayan Datta          : RHF DLPNO-CCSD density                        
  Achintya Kumar Dutta   : EOM-CC, STEOM-CC                              
  Nicolas Foglia         : Exact transition moments, OPA infrastructure, MCD improvements    
  Dmitry Ganyushin       : Spin-Orbit,Spin-Spin,Magnetic field MRCI      
  Miquel Garcia-Rates    : C-PCM and meta-GGA Hessian, CCSD/C-PCM, Gaussian charge scheme 
  Tiago L. C. Gouveia    : GS-ROHF, GS-ROCIS                             
  Yang Guo               : DLPNO-NEVPT2, F12-NEVPT2, CIM, IAO-localization        
  Andreas Hansen         : Spin unrestricted coupled pair/coupled cluster methods 
  Ingolf Harden          : AUTO-CI MPn and infrastructure                
  Benjamin Helmich-Paris : MC-RPA, TRAH-(SCF,CASSCF), AVAS, COSX integrals, SCF dyn. polar., MC-PDFT, srDFT 
  Lee Huntington         : MR-EOM, pCC                                   
  Robert Izsak           : Overlap fitted RIJCOSX, COSX-SCS-MP3, EOM     
  Riya Kayal             : Wick's Theorem for AUTO-CI, AUTO-CI UHF-CCSDT 
  Emily Kempfer          : AUTO-CI RHF CISDT and CCSDT, approximate NEVPT4
  Christian Kollmar      : KDIIS, OOCD, Brueckner-CCSD(T), CCSD density, CASPT2, CASPT2-K, improved NEVPT2 
  Axel Koslowski         : Symmetry handling                             
  Simone Kossmann        : meta-GGA functionals, TD-DFT gradient, OOMP2, (MP2 Hessian; deprecated post 5.0) 
  Lucas Lang             : DCDCAS, Hyperfine gauge corrections, ICE-SOC+SSC
  Marvin Lechner         : AUTO-CI (C++ implementation), FIC-MRCC        
  Spencer Leger          : CASSCF response                               
  Dagmar Lenk            : GEPOL surface, SMD, ORCA-2-JSON               
  Dimitrios Liakos       : Extrapolation schemes; Compound Job, Property file
  Dimitrios Manganas     : Further ROCIS development; embedding schemes. LFT, Crystal Embedding 
  Dimitrios Pantazis     : SARC Basis sets                               
  Anastasios Papadopoulos: AUTO-CI, single reference methods and gradients 
  Taras Petrenko         : pre 6.0 DFT Hessian and TD-DFT gradient,  ECA, NRVS 
  Petra Pikulova         : Analytic Raman intensities                    
  Peter Pinski           : DLPNO-MP2, DLPNO-MP2 Gradient                 
  Shashank Vittal Rao    : ES-AILFT, MagRelax                            
  Christoph Reimann      : Effective Core Potentials                     
  Marius Retegan         : Local ZFS, SOC                                
  Christoph Riplinger    : Optimizer, TS searches, QM/MM, DLPNO-CCSD(T), (RO)-DLPNO pert. Triples 
  Michael Roemelt        : Original ROCIS implementation, recursive CI coupling coefficients
  Masaaki Saitow         : Open-shell DLPNO-CCSD energy and density      
  Barbara Sandhoefer     : DKH picture change effects                    
  Yorick L. A. Schmerwitz: GMF and freeze-and-release deltaSCF, NEB S-IDPP initial path                    
  Kantharuban Sivalingam : CASSCF convergence/infrastructure, NEVPT2, NEVPT3, NEVPT4(SD), FIC-MRCI and CEPA variants
  Bernardo de Souza      : ESD, SOC TD-DFT                               
  Georgi L. Stoychev     : AutoAux, RI-MP2 NMR, DLPNO-MP2 response, X2C  
  Van Anh Tran           : RI-MP2 g-tensors                              
  Willem Van den Heuvel  : Paramagnetic NMR                              
  Zikuan Wang            : NOTCH, Electric field optimization            
  Frank Wennmohs         : Technical directorship and infrastructure     
  Hang Xu                : AUTO-CI-Response properties                   
                                                                         
[FACCTs GmbH]                                                            
  Markus Bursch, Nicolas Foglia, Miquel Garcia-Rates, Ingolf Harden, Hagen Neugebauer, Anastasios Papadopoulos, 
  Christoph Riplinger, Bernardo de Souza, Georgi L. Stoychev                                                    
                                                                 
  APM, various basis sets, CI-OPT, improved COSX, DLPNO-Multilevel,           
  DOCKER, DRACO, updates on ESD, Fragmentator, GOAT, IRC, LR-CPCM, L-BFGS, MBIS, meta-GGA TD-DFT gradient, ML-optimized integration grids, 
  MM, NACMEs, nearIR, NEB, NEB-TS, NL-DFT gradient (VV10), 2- and 3-layer-ONIOM, interface openCOSMO-RS, QMMM,   
  Crystal-QMMM, RESP, rigid body optimization, SF, symmetry and pop. for TD-DFT, various functionals, SOLVATOR                                   
                                                                         
[Other institutions]                                                     
  V. Asgeirsson          : NEB                                           
  Christoph Bannwarth    : sTDA-DFT, sTD-DFT, PBEh-3c, B97-3c, D3        
  Giovanni Bistoni       : ETS/NOCV, ADLD/ADEX, COVALED                  
  Martin Brehm           : Molecular dynamics                            
  Ronald Cardenas        : ETS/NOCV                                      
  Martina Colucci        : COVALED                                       
  Sebastian Ehlert       : rSCAN, r2SCAN, r2SCAN-3c, D4, dhf basis sets  
  Marvin Friede          : D4 for Fr, Ra, Ac-Lr                          
  Lars Goerigk           : TD-DFT with DH, B97 family of functionals     
  Stefan Grimme          : VdW corrections, initial TS optimization, DFT functionals, gCP, sTDA/sTD-DF 
  Waldemar Hujo          : DFT-NL                                        
  H. Jonsson             : NEB                                           
  Holger Kruse           : gCP                                           
  Marcel Mueller         : wB97X-3c, vDZP basis set                      
  Hagen Neugebauer       : wr2SCAN, Native XTB                           
  Gianluca Regni         : ADLD/ADEX                                     
  Tobias Risthaus        : pre 6.0 range-separated hybrid DFT and stability analysis
  Lukas Wittmann         : regularized MP2, r2SCAN double-hybrids, wr2SCAN        
                                                                         
We gratefully acknowledge several colleagues who have allowed us to      
interface, adapt or use parts of their codes:                            
  Ed Valeev, F. Pavosevic, A. Kumar             : LibInt (2-el integral package), F12 methods 
  Garnet Chan, S. Sharma, J. Yang, R. Olivares  : DMRG                   
  Ulf Ekstrom                                   : XCFun DFT Library      
  Mihaly Kallay                                 : mrcc  (arbitrary order and MRCC methods)
  Frank Weinhold                                : gennbo (NPA and NBO analysis)           
  Simon Mueller                                 : openCOSMO-RS                            
  Christopher J. Cramer and Donald G. Truhlar   : smd solvation model                     
  S Lehtola, MJT Oliveira, MAL Marques          : LibXC Library                           
  Liviu Ungur et al                             : ANISO software                          


 Your calculation uses the libint2 library for the computation of 2-el integrals
 For citations please refer to: http://libint.valeyev.net

 Your ORCA version has been built with support for libXC version: 7.0.0
 For citations please refer to: https://libxc.gitlab.io

 This ORCA versions uses:
   CBLAS   interface :  Fast vector & matrix operations
   LAPACKE interface :  Fast linear algebra routines
   SCALAPACK package :  Parallel linear algebra routines
   Shared memory     :  Shared parallel matrices
   BLAS/LAPACK       :  OpenBLAS 0.3.29  USE64BITINT DYNAMIC_ARCH NO_AFFINITY Haswell SINGLE_THREADED
        Core in use  :  Haswell
   Copyright (c) 2011-2014, The OpenBLAS Project


  ***********************************
  * Starting time: Sun Aug 31 13:30:54 2025
  * Host name:     chemlab03
  * Process ID:    92573
  * Working dir.:  /home/vivek/mm-project/vivek/xtb-goat/MP2-opt/d/2
  ***********************************



***************************************
The coordinates will be read from file: /home/vivek/mm-project/vivek/xtb-goat/xtb-goat/d/D_CONF/2.xyz
***************************************


================================================================================

----- Orbital basis set information -----
Your calculation utilizes the basis: 6-31G**
   H-He, Li-Ne : W. J. Hehre, R. Ditchfield and J.A. Pople, J. Chem. Phys. 56, 2257 (1972).
                 Note: He and Ne are unpublished basis sets taken from the Gaussian program.
                 Note: Li and B from J. D. Dill and J. A. Pople, J. Chem. Phys. 62, 2921 (1975).
   Na - Ar     : M. M. Francl, W. J. Pietro, W. J. Hehre, J. S. Binkley, M. S. Gordon, 
                 D. J. DeFrees and J. A. Pople, J. Chem. Phys. 77, 3654 (1982).
   K - Zn      : V. A. Rassolov, J. A. Pople, M. A. Ratner, and T. L. Windus, J. Chem. Phys. 109, 1223 (1998).

================================================================================
                                        WARNINGS
                       Please study these warnings very carefully!
================================================================================


WARNING: The frozen-core approximation for MP2-gradient calculations is turned on by default.

WARNING: Geometry Optimization
  ===> : Switching off AutoStart
         For restart on a previous wavefunction, please use MOREAD

WARNING: Post HF methods need fully converged wavefunctions
  ===> : Setting SCFConvForced true
         You can overwrite this default with %scf ConvForced false 


================================================================================
                                       INPUT FILE
================================================================================
NAME = 2.inp
|  1> ! MP2 6-31G** opt
|  2> 
|  3> * xyzfile 0 1 /home/vivek/mm-project/vivek/xtb-goat/xtb-goat/d/D_CONF/2.xyz
|  4> 
|  5>                          ****END OF INPUT****
================================================================================

                       *****************************
                       * Geometry Optimization Run *
                       *****************************

Geometry optimization settings:
Update method            Update   .... BFGS
Choice of coordinates    CoordSys .... (2022) Redundant Internals
Initial Hessian          InHess   .... Almloef's Model
Max. no of cycles        MaxIter  .... 50

Convergence Tolerances:
Energy Change            TolE     ....  5.0000e-06 Eh
Max. Gradient            TolMAXG  ....  3.0000e-04 Eh/bohr
RMS Gradient             TolRMSG  ....  1.0000e-04 Eh/bohr
Max. Displacement        TolMAXD  ....  4.0000e-03 bohr
RMS Displacement         TolRMSD  ....  2.0000e-03 bohr
Strict Convergence                .... False

------------------------------------------------------------------------------
                        ORCA OPTIMIZATION COORDINATE SETUP
------------------------------------------------------------------------------

The optimization will be done in redundant internal coordinates (2022)
Making redundant internal coordinates   ...  (2022 redundants) done
Evaluating the initial hessian          ...  (Almloef) done
Evaluating the coordinates              ...  done
Calculating the B-matrix                .... done
Calculating the G-matrix                .... done
The number of degrees of freedom        ....   64

    -----------------------------------------------------------------
                    Redundant Internal Coordinates


    -----------------------------------------------------------------
         Definition                    Initial Value    Approx d2E/dq
    -----------------------------------------------------------------
      1. B(C   1,C   0)                  1.5116         0.399673   
      2. B(O   4,C   0)                  1.3365         0.681171   
      3. B(C   5,C   1)                  1.5455         0.352932   
      4. B(H   6,C   1)                  1.0890         0.361423   
      5. B(H   7,C   1)                  1.0887         0.361823   
      6. B(C   8,C   5)                  1.5322         0.370620   
      7. B(C   8,O   2)                  1.2021         1.115878   
      8. B(O   9,C   0)                  1.2008         1.121252   
      9. B(N  10,C   5)                  1.4445         0.458117   
     10. B(O  11,C   8)                  1.3306         0.696073   
     11. B(O  11,H   3)                  0.9710         0.499412   
     12. B(H  12,N  10)                  1.0144         0.425790   
     13. B(H  13,O   4)                  0.9708         0.499795   
     14. B(H  14,C   5)                  1.0960         0.352253   
     15. B(H  15,N  10)                  1.0155         0.424044   
     16. B(H  15,O   4)                  2.3204         0.010000   
     17. A(C   1,C   0,O   9)          125.0108         0.443318   
     18. A(C   1,C   0,O   4)          112.3168         0.405522   
     19. A(O   4,C   0,O   9)          122.6511         0.485473   
     20. A(C   5,C   1,H   7)          109.8540         0.321562   
     21. A(C   0,C   1,H   6)          110.0237         0.328141   
     22. A(H   6,C   1,H   7)          111.0245         0.291225   
     23. A(C   5,C   1,H   6)          107.9636         0.321504   
     24. A(C   0,C   1,C   5)          109.4968         0.364016   
     25. A(C   0,C   1,H   7)          108.4674         0.328201   
     26. A(C   0,O   4,H  13)          110.6816         0.373608   
     27. A(C   8,C   5,N  10)          113.4686         0.373441   
     28. A(C   1,C   5,N  10)          110.1203         0.370310   
     29. A(N  10,C   5,H  14)          108.6021         0.332196   
     30. A(C   8,C   5,H  14)          108.2103         0.322728   
     31. A(C   1,C   5,H  14)          108.7537         0.320155   
     32. A(C   1,C   5,C   8)          107.5788         0.359358   
     33. A(C   5,C   8,O  11)          112.1872         0.401689   
     34. A(O   2,C   8,O  11)          123.8027         0.486987   
     35. A(O   2,C   8,C   5)          124.0097         0.436939   
     36. A(H  12,N  10,H  15)          107.3734         0.301502   
     37. A(C   5,N  10,H  15)          109.9563         0.339667   
     38. A(C   5,N  10,H  12)          110.3583         0.339901   
     39. A(H   3,O  11,C   8)          110.9884         0.374956   
     40. D(H   6,C   1,C   0,O   9)   -140.4028         0.011856   
     41. D(C   5,C   1,C   0,O   9)    101.0910         0.011856   
     42. D(H   6,C   1,C   0,O   4)     41.2404         0.011856   
     43. D(C   5,C   1,C   0,O   4)    -77.2657         0.011856   
     44. D(H   7,C   1,C   0,O   4)    162.8609         0.011856   
     45. D(H  13,O   4,C   0,O   9)     -1.4283         0.038192   
     46. D(H  13,O   4,C   0,C   1)    176.9733         0.038192   
     47. D(N  10,C   5,C   1,H   7)   -160.3247         0.010023   
     48. D(N  10,C   5,C   1,H   6)    -39.1227         0.010023   
     49. D(N  10,C   5,C   1,C   0)     80.6553         0.010023   
     50. D(C   8,C   5,C   1,H   7)     75.5524         0.010023   
     51. D(C   8,C   5,C   1,H   6)   -163.2456         0.010023   
     52. D(C   8,C   5,C   1,C   0)    -43.4676         0.010023   
     53. D(O   2,C   8,C   5,N  10)    -14.4205         0.010284   
     54. D(O   2,C   8,C   5,C   1)    107.6479         0.010284   
     55. D(O  11,C   8,C   5,N  10)    165.8033         0.010284   
     56. D(O  11,C   8,C   5,C   1)    -72.1282         0.010284   
     57. D(O   2,C   8,C   5,H  14)   -135.0129         0.010284   
     58. D(H  15,N  10,C   5,C   1)    -55.4854         0.017913   
     59. D(H  12,N  10,C   5,H  14)     67.2633         0.017913   
     60. D(H  12,N  10,C   5,C   8)    -53.1076         0.017913   
     61. D(H  15,N  10,C   5,C   8)     65.1590         0.017913   
     62. D(H  12,N  10,C   5,C   1)   -173.7520         0.017913   
     63. D(H   3,O  11,C   8,C   5)    175.5775         0.036245   
     64. D(H   3,O  11,C   8,O   2)     -4.1992         0.036245   
    -----------------------------------------------------------------

Number of atoms                         .... 16
Number of degrees of freedom            .... 64


         *************************************************************
         *                GEOMETRY OPTIMIZATION CYCLE   1            *
         *************************************************************
---------------------------------
CARTESIAN COORDINATES (ANGSTROEM)
---------------------------------
  C     -4.616533    1.529451    1.091050
  C     -4.081568    1.314763   -0.306345
  O     -2.463879    3.839298    1.176732
  H     -3.939305    5.102410   -0.146227
  O     -3.960302    0.805073    2.002548
  C     -2.763490    2.102632   -0.480758
  H     -3.865420    0.259255   -0.464798
  H     -4.823300    1.672741   -1.018352
  C     -2.966148    3.487415    0.142802
  O     -5.506746    2.281804    1.379923
  N     -1.664067    1.366239    0.098447
  O     -3.767395    4.256217   -0.590291
  H     -0.816588    1.923329    0.078149
  H     -4.290711    0.996300    2.895098
  H     -2.570619    2.234100   -1.551611
  H     -1.863739    1.153295    1.071092

----------------------------
CARTESIAN COORDINATES (A.U.)
----------------------------
  NO LB      ZA    FRAG     MASS         X           Y           Z
   0 C     6.0000    0    12.011   -8.723982    2.890243    2.061785
   1 C     6.0000    0    12.011   -7.713046    2.484543   -0.578907
   2 O     8.0000    0    15.999   -4.656057    7.255221    2.223701
   3 H     1.0000    0     1.008   -7.444207    9.642158   -0.276328
   4 O     8.0000    0    15.999   -7.483886    1.521367    3.784267
   5 C     6.0000    0    12.011   -5.222240    3.973399   -0.908500
   6 H     1.0000    0     1.008   -7.304585    0.489921   -0.878341
   7 H     1.0000    0     1.008   -9.114716    3.161023   -1.924406
   8 C     6.0000    0    12.011   -5.605207    6.590259    0.269856
   9 O     8.0000    0    15.999  -10.406243    4.311985    2.607677
  10 N     7.0000    0    14.007   -3.144630    2.581818    0.186038
  11 O     8.0000    0    15.999   -7.119345    8.043084   -1.115489
  12 H     1.0000    0     1.008   -1.543127    3.634565    0.147680
  13 H     1.0000    0     1.008   -8.108269    1.882735    5.470942
  14 H     1.0000    0     1.008   -4.857766    4.221838   -2.932120
  15 H     1.0000    0     1.008   -3.521956    2.179411    2.024070

--------------------------------
INTERNAL COORDINATES (ANGSTROEM)
--------------------------------
 C      0   0   0     0.000000000000     0.00000000     0.00000000
 C      1   0   0     1.511618083182     0.00000000     0.00000000
 O      1   2   0     3.158583570940    83.55471639     0.00000000
 H      3   1   2     2.350011094154    87.12858880    76.74725280
 O      1   2   3     1.336484480848   112.31683286   269.96273067
 C      2   1   3     1.545472883282   109.49675442    12.77152511
 H      2   1   3     1.089001969674   110.02368949   131.27771457
 H      2   1   3     1.088700643578   108.46744688   252.89816774
 C      3   1   2     1.202125917945    58.52372564    28.12280649
 O      1   2   3     1.200817998495   125.01081299    88.31951555
 N      6   2   1     1.444467200280   110.12031021    80.65534644
 O      4   3   1     0.970973620322    71.20922510   305.21250846
 H     11   6   2     1.014387070178   110.35827267   186.24795102
 H      5   1   2     0.970764815111   110.68156342   176.97326803
 H      6   2   1     1.095997142765   108.75372526   199.54728028
 H     11   6   2     1.015505913196   109.95634186   304.51461139

---------------------------
INTERNAL COORDINATES (A.U.)
---------------------------
 C      0   0   0     0.000000000000     0.00000000     0.00000000
 C      1   0   0     2.856544196297     0.00000000     0.00000000
 O      1   2   0     5.968857920180    83.55471639     0.00000000
 H      3   1   2     4.440877379628    87.12858880    76.74725280
 O      1   2   3     2.525589651039   112.31683286   269.96273067
 C      2   1   3     2.920520496805   109.49675442    12.77152511
 H      2   1   3     2.057915481985   110.02368949   131.27771457
 H      2   1   3     2.057346058185   108.46744688   252.89816774
 C      3   1   2     2.271688763405    58.52372564    28.12280649
 O      1   2   3     2.269217153839   125.01081299    88.31951555
 N      6   2   1     2.729647417961   110.12031021    80.65534644
 O      4   3   1     1.834874225670    71.20922510   305.21250846
 H     11   6   2     1.916913756427   110.35827267   186.24795102
 H      5   1   2     1.834479641006   110.68156342   176.97326803
 H      6   2   1     2.071134443386   108.75372526   199.54728028
 H     11   6   2     1.919028063319   109.95634186   304.51461139

---------------------
BASIS SET INFORMATION
---------------------
There are 4 groups of distinct atoms

 Group   1 Type C   : 10s4p1d contracted to 3s2p1d pattern {631/31/1}
 Group   2 Type O   : 10s4p1d contracted to 3s2p1d pattern {631/31/1}
 Group   3 Type H   : 4s1p contracted to 2s1p pattern {31/1}
 Group   4 Type N   : 10s4p1d contracted to 3s2p1d pattern {631/31/1}

Atom   0C    basis set group =>   1
Atom   1C    basis set group =>   1
Atom   2O    basis set group =>   2
Atom   3H    basis set group =>   3
Atom   4O    basis set group =>   2
Atom   5C    basis set group =>   1
Atom   6H    basis set group =>   3
Atom   7H    basis set group =>   3
Atom   8C    basis set group =>   1
Atom   9O    basis set group =>   2
Atom  10N    basis set group =>   4
Atom  11O    basis set group =>   2
Atom  12H    basis set group =>   3
Atom  13H    basis set group =>   3
Atom  14H    basis set group =>   3
Atom  15H    basis set group =>   3
------------------------------------------------------------------------------
                             ORCA STARTUP CALCULATIONS
------------------------------------------------------------------------------
------------------------------------------------------------------------------
                   ___                                                        
                  /   \      - P O W E R E D   B Y -                         
                 /     \                                                     
                 |  |  |   _    _      __       _____    __    __             
                 |  |  |  | |  | |    /  \     |  _  \  |  |  /  |          
                  \  \/   | |  | |   /    \    | | | |  |  | /  /          
                 / \  \   | |__| |  /  /\  \   | |_| |  |  |/  /          
                |  |  |   |  __  | /  /__\  \  |    /   |      \           
                |  |  |   | |  | | |   __   |  |    \   |  |\   \          
                \     /   | |  | | |  |  |  |  | |\  \  |  | \   \       
                 \___/    |_|  |_| |__|  |__|  |_| \__\ |__|  \__/        
                                                                              
                      - O R C A' S   B I G   F R I E N D -                    
                                      &                                       
                       - I N T E G R A L  F E E D E R -                       
                                                                              
 v1 FN, 2020, v2 2021, v3 2022-2024                                           
------------------------------------------------------------------------------


----------------------
SHARK INTEGRAL PACKAGE
----------------------

Number of atoms                             ...     16
Number of basis functions                   ...    161
Number of shells                            ...     75
Maximum angular momentum                    ...      2
Integral batch strategy                     ... SHARK/LIBINT Hybrid
RI-J (if used) integral strategy            ... SPLIT-RIJ (Revised 2003 algorithm where possible)
Printlevel                                  ...      1
Contraction scheme used                     ... SEGMENTED contraction
Prescreening option                         ... SCHWARTZ
   Thresh                                   ... 2.500e-11
   Tcut                                     ... 2.500e-12
   Tpresel                                  ... 2.500e-12 
Coulomb Range Separation                    ... NOT USED
Exchange Range Separation                   ... NOT USED
Multipole approximations                    ... NOT USED
Finite Nucleus Model                        ... NOT USED
CABS basis                                  ... NOT available
Auxiliary Coulomb fitting basis             ... NOT available
Auxiliary J/K fitting basis                 ... NOT available
Auxiliary Correlation fitting basis         ... NOT available
Auxiliary 'external' fitting basis          ... NOT available

Checking pre-screening integrals            ... done (  0.0 sec) Dimension = 75
   => SHARK Basis and OBASIS are compatible. Storing Pre-screening
Shell pair information
Shell pair cut-off parameter TPreSel        ...   2.5e-12
Total number of shell pairs                 ...      2850
Shell pairs after pre-screening             ...      2670
Total number of primitive shell pairs       ...     14745
Primitive shell pairs kept                  ...      9122
          la=0 lb=0:    785 shell pairs
          la=1 lb=0:    952 shell pairs
          la=1 lb=1:    308 shell pairs
          la=2 lb=0:    358 shell pairs
          la=2 lb=1:    222 shell pairs
          la=2 lb=2:     45 shell pairs

Checking whether 4 symmetric matrices of dimension 161 fit in memory
:Max Core in MB      =   4096.00
 MB in use           =      4.92
 MB left             =   4091.08
 MB needed           =      0.40
 Data fit in memory  = YES
Calculating Nuclear repulsion               ... done (  0.0 sec) ENN=    488.106207080415 Eh

Diagonalization of the overlap matrix:
Smallest eigenvalue                        ... 2.808e-03
Time for diagonalization                   ...    0.001 sec
Threshold for overlap eigenvalues          ... 1.000e-07
Number of eigenvalues below threshold      ... 0
Time for construction of square roots      ...    0.000 sec
Total time needed                          ...    0.002 sec

-------------------
DFT GRID GENERATION
-------------------

General Integration Accuracy     IntAcc      ... 4.388
Radial Grid Type                 RadialGrid  ... OptM3 with GC (2021)
Angular Grid (max. ang.)         AngularGrid ... 4 (Lebedev-302)
Angular grid pruning method      GridPruning ... 4 (adaptive)
Weight generation scheme         WeightScheme... mBecke (2022)
Basis function cutoff            BFCut       ... 1.0000e-11
Integration weight cutoff        WCut        ... 1.0000e-14
Partially contracted basis set               ... off
Rotationally invariant grid construction     ... off
Angular grids for H and He will be reduced by one unit

Total number of grid points                  ...    76876
Total number of batches                      ...     1211
Average number of points per batch           ...       63
Average number of grid points per atom       ...     4805
Grids setup in   0.3 sec
Initializing property integral containers    ... done (  0.0 sec)

SHARK setup successfully completed in   0.4 seconds

Maximum memory used throughout the entire STARTUP-calculation: 30.3 MB
-------------------------------------------------------------------------------
                                 ORCA GUESS
                   Start orbitals & Density for SCF / CASSCF
-------------------------------------------------------------------------------

------------
SCF SETTINGS
------------
Hamiltonian:
 Ab initio Hamiltonian  Method          .... Hartree-Fock(GTOs)


General Settings:
 Integral files         IntName         .... 2
 Hartree-Fock type      HFTyp           .... RHF
 Total Charge           Charge          ....    0
 Multiplicity           Mult            ....    1
 Number of Electrons    NEL             ....   70
 Basis Dimension        Dim             ....  161
 Nuclear Repulsion      ENuc            ....    488.1062070804 Eh

Convergence Acceleration:
 AO-DIIS                CNVDIIS         .... on
   Start iteration      DIISMaxIt       ....    12
   Startup error        DIISStart       ....  0.200000
   # of expansion vecs  DIISMaxEq       ....     5
   Bias factor          DIISBfac        ....   1.050
   Max. coefficient     DIISMaxC        ....  10.000
 MO-DIIS                CNVKDIIS        .... off
 Trust-Rad. Augm. Hess. CNVTRAH         .... auto
   Auto Start mean grad. ratio tolernc. ....  1.125000
   Auto Start start iteration           ....    50
   Auto Start num. interpolation iter.  ....    10
   Max. Number of Micro iterations      ....    24
   Max. Number of Macro iterations      .... Maxiter - #DIIS iter
   Number of Davidson start vectors     ....     2
   Converg. threshold    (grad. norm)   ....   1.000e-05
   Grad. Scal. Fac. for Micro threshold ....   0.100
   Minimum threshold for Micro iter.    ....   1.000e-02
   NR start threshold (gradient norm)   ....   1.000e-04
   Initial trust radius                 ....   0.400
   Minimum AH scaling param. (alpha)    ....   1.000
   Maximum AH scaling param. (alpha)    .... 1000.000
   Quad. conv. algorithm                .... NR
   White noise on init. David. guess    .... on
   Maximum white noise                  ....   0.010
   Pseudo random numbers                .... off
   Inactive MOs                         .... canonical
   Orbital update algorithm             .... Taylor
   Preconditioner                       .... Diag
   Full preconditioner red. dimension   ....   250
 SOSCF                 CNVSOSCF           .... on
   Start iteration     SOSCFMaxIt         ....   150
   Startup grad/error  SOSCFStart         ....  0.003300
   Hessian update      SOSCFHessUp        .... L-BFGS
   Autom. constraints  SOSCFAutoConstrain .... off
 Level Shifting         CNVShift        .... on
   Level shift para.    LevelShift      ....    0.2500
   Turn off err/grad.   ShiftErr        ....    0.0010
 Zerner damping         CNVZerner       .... off
 Static damping         CNVDamp         .... on
   Fraction old density DampFac         ....    0.7000
   Max. Damping (<1)    DampMax         ....    0.9800
   Min. Damping (>=0)   DampMin         ....    0.0000
   Turn off err/grad.   DampErr         ....    0.1000

SCF Procedure:
 Maximum # iterations   MaxIter         ....   125
 SCF integral mode      SCFMode         .... Direct
   Integral package                     .... SHARK and LIBINT hybrid scheme
 Reset frequency        DirectResetFreq ....    20
 Integral Threshold     Thresh          ....  2.500e-11 Eh
 Primitive CutOff       TCut            ....  2.500e-12 Eh

Convergence Tolerance:
 Convergence Check Mode ConvCheckMode   .... Total+1el-Energy
 Convergence forced     ConvForced      .... 1
 Energy Change          TolE            ....  1.000e-08 Eh
 1-El. energy change                    ....  1.000e-05 Eh
 Orbital Gradient       TolG            ....  1.000e-05
 Orbital Rotation angle TolX            ....  1.000e-05
 DIIS Error             TolErr          ....  5.000e-07

------------------------------
INITIAL GUESS: MODEL POTENTIAL
------------------------------
Loading Hartree-Fock densities                     ... done
Calculating cut-offs                               ... done
Initializing the effective Hamiltonian             ... done
Setting up the integral package (SHARK)            ... done
Starting the Coulomb interaction                   ... done (   0.0 sec)
Making the grid                                    ... done (   0.1 sec)
Mapping shells                                     ... done
Starting the XC term evaluation                    ... done (   0.0 sec)
Transforming the Hamiltonian                       ... done (   0.0 sec)
Diagonalizing the Hamiltonian                      ... done (   0.0 sec)
Back transforming the eigenvectors                 ... done (   0.0 sec)
Now organizing SCF variables                       ... done
                      ------------------
                      INITIAL GUESS DONE (   0.2 sec)
                      ------------------
             **** ENERGY FILE WAS UPDATED (2.en.tmp) ****
Finished Guess after   0.2 sec
Maximum memory used throughout the entire GUESS-calculation: 9.8 MB

-------------------------------------------------------------------------------------------
                                      ORCA LEAN-SCF
                              memory conserving SCF solver
-------------------------------------------------------------------------------------------

----------------------------------------D-I-I-S--------------------------------------------
Iteration    Energy (Eh)           Delta-E    RMSDP     MaxDP     DIISErr   Damp  Time(sec)
-------------------------------------------------------------------------------------------
               ***  Starting incremental Fock matrix formation  ***
    1    -509.1238538557941524     0.00e+00  2.74e-03  6.40e-02  2.45e-01  0.700   1.3
    2    -509.2597977114330092    -1.36e-01  1.99e-03  4.58e-02  1.48e-01  0.700   1.2
                               ***Turning on AO-DIIS***
    3    -509.3376639427290797    -7.79e-02  1.06e-03  1.99e-02  8.22e-02  0.700   1.2
    4    -509.3867243090505212    -4.91e-02  2.44e-03  3.99e-02  5.66e-02  0.000   1.2
    5    -509.4967273664399841    -1.10e-01  3.37e-04  4.67e-03  5.48e-03  0.000   1.2
                              *** Initializing SOSCF ***
---------------------------------------S-O-S-C-F--------------------------------------
Iteration    Energy (Eh)           Delta-E    RMSDP     MaxDP     MaxGrad    Time(sec)
--------------------------------------------------------------------------------------
    6    -509.4973360141441958    -6.09e-04  1.64e-04  2.93e-03  2.84e-03     1.2
               *** Restarting incremental Fock matrix formation ***
    7    -509.4974864913080523    -1.50e-04  1.10e-04  1.70e-03  1.57e-03     1.3
    8    -509.4975392831761951    -5.28e-05  1.32e-04  2.67e-03  5.95e-04     1.1
    9    -509.4975580699730813    -1.88e-05  2.55e-05  4.44e-04  2.98e-04     1.1
   10    -509.4975602841150817    -2.21e-06  6.20e-06  8.28e-05  5.11e-05     1.0
   11    -509.4975604189722276    -1.35e-07  3.48e-06  7.05e-05  1.68e-05     1.0
   12    -509.4975604421624098    -2.32e-08  6.63e-07  1.64e-05  6.45e-06     0.9
   13    -509.4975604442766439    -2.11e-09  1.79e-07  3.89e-06  1.62e-06     0.8
                 **** Energy Check signals convergence ****

               *****************************************************
               *                     SUCCESS                       *
               *           SCF CONVERGED AFTER  13 CYCLES          *
               *****************************************************

             **** ENERGY FILE WAS UPDATED (2.en.tmp) ****

----------------
TOTAL SCF ENERGY
----------------

Total Energy       :       -509.49756044518955 Eh          -13864.13346 eV

Components:
Nuclear Repulsion  :        488.10620708041500 Eh           13282.04514 eV
Electronic Energy  :       -997.60376752560455 Eh          -27146.17860 eV
One Electron Energy:      -1667.77841171815567 Eh          -45382.55779 eV
Two Electron Energy:        670.17464419255111 Eh           18236.37919 eV

Virial components:
Potential Energy   :      -1018.25494115148763 Eh          -27708.12560 eV
Kinetic Energy     :        508.75738070629802 Eh           13843.99214 eV
Virial Ratio       :          2.00145487764298

---------------
SCF CONVERGENCE
---------------

  Last Energy change         ...    2.1142e-09  Tolerance :   1.0000e-08
  Last MAX-Density change    ...    3.8891e-06  Tolerance :   1.0000e-07
  Last RMS-Density change    ...    1.7901e-07  Tolerance :   5.0000e-09
  Last DIIS Error            ...    2.8387e-03  Tolerance :   5.0000e-07
  Last Orbital Gradient      ...    1.6212e-06  Tolerance :   1.0000e-05
  Last Orbital Rotation      ...    1.3594e-06  Tolerance :   1.0000e-05


----------------
ORBITAL ENERGIES
----------------

  NO   OCC          E(Eh)            E(eV) 
   0   2.0000     -20.625967      -561.2611 
   1   2.0000     -20.622124      -561.1565 
   2   2.0000     -20.560357      -559.4758 
   3   2.0000     -20.559980      -559.4655 
   4   2.0000     -15.551697      -423.1832 
   5   2.0000     -11.395361      -310.0835 
   6   2.0000     -11.388793      -309.9048 
   7   2.0000     -11.292367      -307.2809 
   8   2.0000     -11.258102      -306.3485 
   9   2.0000      -1.479246       -40.2523 
  10   2.0000      -1.473484       -40.0955 
  11   2.0000      -1.370136       -37.2833 
  12   2.0000      -1.369115       -37.2555 
  13   2.0000      -1.207473       -32.8570 
  14   2.0000      -1.057760       -28.7831 
  15   2.0000      -0.944791       -25.7091 
  16   2.0000      -0.848479       -23.0883 
  17   2.0000      -0.803965       -21.8770 
  18   2.0000      -0.727387       -19.7932 
  19   2.0000      -0.714940       -19.4545 
  20   2.0000      -0.704268       -19.1641 
  21   2.0000      -0.689705       -18.7678 
  22   2.0000      -0.665595       -18.1118 
  23   2.0000      -0.646452       -17.5909 
  24   2.0000      -0.623159       -16.9570 
  25   2.0000      -0.608439       -16.5565 
  26   2.0000      -0.595879       -16.2147 
  27   2.0000      -0.569663       -15.5013 
  28   2.0000      -0.545262       -14.8373 
  29   2.0000      -0.529772       -14.4158 
  30   2.0000      -0.484090       -13.1728 
  31   2.0000      -0.482820       -13.1382 
  32   2.0000      -0.462323       -12.5805 
  33   2.0000      -0.448961       -12.2169 
  34   2.0000      -0.406646       -11.0654 
  35   0.0000       0.169465         4.6114 
  36   0.0000       0.181931         4.9506 
  37   0.0000       0.213057         5.7976 
  38   0.0000       0.224706         6.1146 
  39   0.0000       0.249807         6.7976 
  40   0.0000       0.278007         7.5650 
  41   0.0000       0.295389         8.0379 
  42   0.0000       0.319822         8.7028 
  43   0.0000       0.338073         9.1994 
  44   0.0000       0.365446         9.9443 
  45   0.0000       0.411386        11.1944 
*Only the first 10 virtual orbitals were printed.

                    ********************************
                    * MULLIKEN POPULATION ANALYSIS *
                    ********************************

-----------------------
MULLIKEN ATOMIC CHARGES
-----------------------
   0 C :    0.766789
   1 C :   -0.286784
   2 O :   -0.584002
   3 H :    0.378224
   4 O :   -0.632368
   5 C :   -0.044745
   6 H :    0.186424
   7 H :    0.184185
   8 C :    0.783880
   9 O :   -0.572421
  10 N :   -0.684317
  11 O :   -0.628321
  12 H :    0.279608
  13 H :    0.377841
  14 H :    0.174463
  15 H :    0.301544
Sum of atomic charges:    0.0000000

--------------------------------
MULLIKEN REDUCED ORBITAL CHARGES
--------------------------------
  0 C s       :     2.963180  s :     2.963180
      pz      :     0.791529  p :     2.121042
      px      :     0.691939
      py      :     0.637575
      dz2     :     0.025671  d :     0.148989
      dxz     :     0.038924
      dyz     :     0.031162
      dx2y2   :     0.031930
      dxy     :     0.021302

  1 C s       :     3.259889  s :     3.259889
      pz      :     0.914449  p :     2.982121
      px      :     0.984908
      py      :     1.082765
      dz2     :     0.012459  d :     0.044774
      dxz     :     0.010967
      dyz     :     0.003713
      dx2y2   :     0.009173
      dxy     :     0.008462

  2 O s       :     3.878115  s :     3.878115
      pz      :     1.392954  p :     4.672868
      px      :     1.529461
      py      :     1.750453
      dz2     :     0.012494  d :     0.033019
      dxz     :     0.008984
      dyz     :     0.006129
      dx2y2   :     0.002219
      dxy     :     0.003193

  3 H s       :     0.580107  s :     0.580107
      pz      :     0.010801  p :     0.041669
      px      :     0.008524
      py      :     0.022343

  4 O s       :     3.834370  s :     3.834370
      pz      :     1.294645  p :     4.772962
      px      :     1.736509
      py      :     1.741808
      dz2     :     0.003155  d :     0.025035
      dxz     :     0.007439
      dyz     :     0.005747
      dx2y2   :     0.004188
      dxy     :     0.004506

  5 C s       :     3.216011  s :     3.216011
      pz      :     1.060585  p :     2.757573
      px      :     0.848438
      py      :     0.848551
      dz2     :     0.017204  d :     0.071162
      dxz     :     0.010565
      dyz     :     0.009742
      dx2y2   :     0.016534
      dxy     :     0.017116

  6 H s       :     0.800656  s :     0.800656
      pz      :     0.001688  p :     0.012920
      px      :     0.002076
      py      :     0.009156

  7 H s       :     0.803096  s :     0.803096
      pz      :     0.004861  p :     0.012719
      px      :     0.005380
      py      :     0.002478

  8 C s       :     2.950893  s :     2.950893
      pz      :     0.688966  p :     2.117562
      px      :     0.633251
      py      :     0.795345
      dz2     :     0.032531  d :     0.147665
      dxz     :     0.029204
      dyz     :     0.043465
      dx2y2   :     0.022872
      dxy     :     0.019593

  9 O s       :     3.877001  s :     3.877001
      pz      :     1.808282  p :     4.662242
      px      :     1.412409
      py      :     1.441551
      dz2     :     0.003744  d :     0.033178
      dxz     :     0.004413
      dyz     :     0.003719
      dx2y2   :     0.012897
      dxy     :     0.008405

 10 N s       :     3.598484  s :     3.598484
      pz      :     1.342277  p :     4.051697
      px      :     1.122845
      py      :     1.586575
      dz2     :     0.013464  d :     0.034136
      dxz     :     0.003338
      dyz     :     0.001618
      dx2y2   :     0.001912
      dxy     :     0.013804

 11 O s       :     3.836602  s :     3.836602
      pz      :     1.692777  p :     4.766303
      px      :     1.684199
      py      :     1.389326
      dz2     :     0.003463  d :     0.025416
      dxz     :     0.005873
      dyz     :     0.009488
      dx2y2   :     0.004379
      dxy     :     0.002213

 12 H s       :     0.694282  s :     0.694282
      pz      :     0.004769  p :     0.026110
      px      :     0.012800
      py      :     0.008541

 13 H s       :     0.580555  s :     0.580555
      pz      :     0.023835  p :     0.041604
      px      :     0.009547
      py      :     0.008223

 14 H s       :     0.813322  s :     0.813322
      pz      :     0.009142  p :     0.012214
      px      :     0.001482
      py      :     0.001591

 15 H s       :     0.671828  s :     0.671828
      pz      :     0.015396  p :     0.026629
      px      :     0.003999
      py      :     0.007234



                     *******************************
                     * LOEWDIN POPULATION ANALYSIS *
                     *******************************

----------------------
LOEWDIN ATOMIC CHARGES
----------------------
   0 C :    0.233803
   1 C :   -0.120212
   2 O :   -0.304125
   3 H :    0.206058
   4 O :   -0.204611
   5 C :   -0.015439
   6 H :    0.098120
   7 H :    0.096790
   8 C :    0.218205
   9 O :   -0.295794
  10 N :   -0.276647
  11 O :   -0.199020
  12 H :    0.133895
  13 H :    0.204584
  14 H :    0.086899
  15 H :    0.137494

-------------------------------
LOEWDIN REDUCED ORBITAL CHARGES
-------------------------------
  0 C s       :     2.839460  s :     2.839460
      pz      :     0.952164  p :     2.605885
      px      :     0.853661
      py      :     0.800060
      dz2     :     0.053503  d :     0.320852
      dxz     :     0.085222
      dyz     :     0.068149
      dx2y2   :     0.062128
      dxy     :     0.051849

  1 C s       :     2.899734  s :     2.899734
      pz      :     1.019110  p :     3.135934
      px      :     1.038834
      py      :     1.077990
      dz2     :     0.024347  d :     0.084544
      dxz     :     0.021551
      dyz     :     0.006891
      dx2y2   :     0.016317
      dxy     :     0.015439

  2 O s       :     3.547324  s :     3.547324
      pz      :     1.459677  p :     4.699101
      px      :     1.516696
      py      :     1.722728
      dz2     :     0.019450  d :     0.057700
      dxz     :     0.016487
      dyz     :     0.013398
      dx2y2   :     0.003602
      dxy     :     0.004763

  3 H s       :     0.673578  s :     0.673578
      pz      :     0.033510  p :     0.120364
      px      :     0.025778
      py      :     0.061076

  4 O s       :     3.457312  s :     3.457312
      pz      :     1.281293  p :     4.699625
      px      :     1.705660
      py      :     1.712672
      dz2     :     0.012115  d :     0.047674
      dxz     :     0.012915
      dyz     :     0.011159
      dx2y2   :     0.004764
      dxy     :     0.006721

  5 C s       :     2.869977  s :     2.869977
      pz      :     1.052329  p :     3.003679
      px      :     0.969068
      py      :     0.982282
      dz2     :     0.032098  d :     0.141783
      dxz     :     0.020245
      dyz     :     0.019626
      dx2y2   :     0.034294
      dxy     :     0.035520

  6 H s       :     0.859535  s :     0.859535
      pz      :     0.006722  p :     0.042345
      px      :     0.007634
      py      :     0.027989

  7 H s       :     0.861517  s :     0.861517
      pz      :     0.015770  p :     0.041693
      px      :     0.016903
      py      :     0.009020

  8 C s       :     2.848368  s :     2.848368
      pz      :     0.920028  p :     2.612650
      px      :     0.754591
      py      :     0.938031
      dz2     :     0.068282  d :     0.320777
      dxz     :     0.067720
      dyz     :     0.095007
      dx2y2   :     0.048574
      dxy     :     0.041194

  9 O s       :     3.547093  s :     3.547093
      pz      :     1.776076  p :     4.690827
      px      :     1.450770
      py      :     1.463981
      dz2     :     0.007570  d :     0.057874
      dxz     :     0.009240
      dyz     :     0.006992
      dx2y2   :     0.014508
      dxy     :     0.019564

 10 N s       :     3.181451  s :     3.181451
      pz      :     1.322871  p :     4.034373
      px      :     1.152017
      py      :     1.559486
      dz2     :     0.020963  d :     0.060823
      dxz     :     0.007531
      dyz     :     0.003850
      dx2y2   :     0.006004
      dxy     :     0.022474

 11 O s       :     3.452949  s :     3.452949
      pz      :     1.671388  p :     4.697435
      px      :     1.659459
      py      :     1.366588
      dz2     :     0.006148  d :     0.048636
      dxz     :     0.009568
      dyz     :     0.015349
      dx2y2   :     0.009366
      dxy     :     0.008205

 12 H s       :     0.784381  s :     0.784381
      pz      :     0.015048  p :     0.081724
      px      :     0.037859
      py      :     0.028816

 13 H s       :     0.674978  s :     0.674978
      pz      :     0.064439  p :     0.120438
      px      :     0.029895
      py      :     0.026104

 14 H s       :     0.873265  s :     0.873265
      pz      :     0.027703  p :     0.039836
      px      :     0.006199
      py      :     0.005933

 15 H s       :     0.778290  s :     0.778290
      pz      :     0.048169  p :     0.084217
      px      :     0.012716
      py      :     0.023332



                      *****************************
                      * MAYER POPULATION ANALYSIS *
                      *****************************

  NA   - Mulliken gross atomic population
  ZA   - Total nuclear charge
  QA   - Mulliken gross atomic charge
  VA   - Mayer's total valence
  BVA  - Mayer's bonded valence
  FA   - Mayer's free valence

  ATOM       NA         ZA         QA         VA         BVA        FA
  0 C      5.2332     6.0000     0.7668     3.7296     3.7296    -0.0000
  1 C      6.2868     6.0000    -0.2868     3.7293     3.7293     0.0000
  2 O      8.5840     8.0000    -0.5840     1.8913     1.8913     0.0000
  3 H      0.6218     1.0000     0.3782     0.8670     0.8670     0.0000
  4 O      8.6324     8.0000    -0.6324     1.8325     1.8325     0.0000
  5 C      6.0447     6.0000    -0.0447     3.7711     3.7711    -0.0000
  6 H      0.8136     1.0000     0.1864     0.9413     0.9413     0.0000
  7 H      0.8158     1.0000     0.1842     0.9422     0.9422     0.0000
  8 C      5.2161     6.0000     0.7839     3.6863     3.6863     0.0000
  9 O      8.5724     8.0000    -0.5724     1.8958     1.8958    -0.0000
 10 N      7.6843     7.0000    -0.6843     2.7619     2.7619     0.0000
 11 O      8.6283     8.0000    -0.6283     1.8312     1.8312     0.0000
 12 H      0.7204     1.0000     0.2796     0.9052     0.9052     0.0000
 13 H      0.6222     1.0000     0.3778     0.8678     0.8678     0.0000
 14 H      0.8255     1.0000     0.1745     0.9368     0.9368    -0.0000
 15 H      0.6985     1.0000     0.3015     0.9005     0.9005     0.0000

  Mayer bond orders larger than 0.100000
B(  0-C ,  1-C ) :   0.9374 B(  0-C ,  4-O ) :   0.9747 B(  0-C ,  9-O ) :   1.8216 
B(  1-C ,  5-C ) :   0.9483 B(  1-C ,  6-H ) :   0.9491 B(  1-C ,  7-H ) :   0.9589 
B(  2-O ,  8-C ) :   1.8148 B(  3-H , 11-O ) :   0.8365 B(  4-O , 13-H ) :   0.8368 
B(  5-C ,  8-C ) :   0.9061 B(  5-C , 10-N ) :   0.9999 B(  5-C , 14-H ) :   0.9568 
B(  8-C , 11-O ) :   0.9789 B( 10-N , 12-H ) :   0.9067 B( 10-N , 15-H ) :   0.8829 


-------
TIMINGS
-------

Total SCF time: 0 days 0 hours 0 min 15 sec 

Total time                  ....      15.384 sec
Sum of individual times     ....      14.686 sec  ( 95.5%)

SCF preparation             ....       0.016 sec  (  0.1%)
Fock matrix formation       ....      14.630 sec  ( 95.1%)
  Startup                   ....       0.001 sec  (  0.0% of F)
  Coulomb+Exchange Fock     ....      15.316 sec  (104.7% of F)
Diagonalization             ....       0.000 sec  (  0.0%)
Density matrix formation    ....       0.004 sec  (  0.0%)
Total Energy calculation    ....       0.001 sec  (  0.0%)
Population analysis         ....       0.002 sec  (  0.0%)
Orbital Transformation      ....       0.004 sec  (  0.0%)
Orbital Orthonormalization  ....       0.000 sec  (  0.0%)
DIIS solution               ....       0.017 sec  (  0.1%)
SOSCF solution              ....       0.011 sec  (  0.1%)
Finished LeanSCF after  15.4 sec

Maximum memory used throughout the entire LEANSCF-calculation: 13.3 MB

------------------------------------------------------------------------------
                                ORCA  MP2 
------------------------------------------------------------------------------

Freezing NCore=18 chemical core electrons
MP2 will be done in the AO integral direct mode
The Q1-step will be done using symmetric double matrices
Dimension of the basis                    ...  161
Memory devoted for MP2                    ... 4096 MB   
Memory needed for all in one shot         ...  417 MB
Number of MOs that can be treated together...  254      
MP2 density construction                  ... relaxed
The MP2 gradient is requested => amplitudes will be stored on disk
Total number of MOs              ...   26
Number of MOs treated per batch  ...   26 
Number of batches necessary      ...    1 
OPERATORS   0/  0 PASS   0
-----------------------------------------------
 MP2 CORRELATION ENERGY   :     -1.403346464 Eh
-----------------------------------------------


---------------------
MP2 DENSITY FORMATION
---------------------

Completing the external part of the density      ... done
Storing the unrelaxed density                    ... done

Calculating G(D)                                 ... done
Completing the Lagrangian                        ... done
Solving the Z-vector equations                   ... 
-------------------
SHARK CP-SCF DRIVER
-------------------

Dimension of the orbital basis          ...    161
Dimension of the CPSCF-problem          ...   4410
Number of operators                     ...      1
Max. number of iterations               ...    128
Convergence Tolerance                   ... 1.0e-04
Number of perturbations                 ...      1
Perturbation type                       ... REAL

----------------------------
POPLE LINEAR EQUATION SOLVER
----------------------------

  ITERATION   0:   ||err||_max =   1.6250e-01 (   1.6 sec)
  ITERATION   1:   ||err||_max =   3.9812e-02 (   1.7 sec)
  ITERATION   2:   ||err||_max =   1.7261e-02 (   1.7 sec)
  ITERATION   3:   ||err||_max =   4.2278e-03 (   1.7 sec)
  ITERATION   4:   ||err||_max =   1.2605e-03 (   1.7 sec)
  ITERATION   5:   ||err||_max =   3.2746e-04 (   1.7 sec)
  ITERATION   6:   ||err||_max =   8.9543e-05 (   1.7 sec)
                                                 ... done
Finalizing the relaxed density                   ... done
Transforming P to the AO basis                   ... done
Storing the relaxed density                      ... done

------------------------------------
ENERGY WEIGHTED DENSITY FINALIZATION
------------------------------------

Gathering the parts of the W-matrix              ...                                                      done
Forming the Z-density                            ... done
Transforming Z to the AO basis                   ... done
Calculating G(Z)                                 ... done
Finalizing the W-matrix                          ...                                                      done
Transforming W to the AO basis and storing       ... done

                *********************************************
                * UNRELAXED MP2 DENSITY POPULATION ANALYSIS *
                *********************************************

------------------------------------------------------------------------------
                           ORCA POPULATION ANALYSIS
------------------------------------------------------------------------------
Input electron density              ... 2.pmp2ur
BaseName (.gbw .S,...)              ... 2

                    ********************************
                    * MULLIKEN POPULATION ANALYSIS *
                    ********************************

-----------------------
MULLIKEN ATOMIC CHARGES
-----------------------
   0 C :    0.733831
   1 C :   -0.287544
   2 O :   -0.560883
   3 H :    0.375079
   4 O :   -0.618472
   5 C :   -0.050309
   6 H :    0.186696
   7 H :    0.184669
   8 C :    0.750144
   9 O :   -0.549730
  10 N :   -0.676599
  11 O :   -0.614504
  12 H :    0.278341
  13 H :    0.374652
  14 H :    0.175048
  15 H :    0.299582
Sum of atomic charges:    0.0000000

--------------------------------
MULLIKEN REDUCED ORBITAL CHARGES
--------------------------------
  0 C s       :     2.964805  s :     2.964805
      pz      :     0.793069  p :     2.141914
      px      :     0.700270
      py      :     0.648576
      dz2     :     0.027910  d :     0.159450
      dxz     :     0.041228
      dyz     :     0.033503
      dx2y2   :     0.033674
      dxy     :     0.023135
  1 C s       :     3.256636  s :     3.256636
      pz      :     0.911817  p :     2.969484
      px      :     0.980267
      py      :     1.077400
      dz2     :     0.015426  d :     0.061424
      dxz     :     0.014311
      dyz     :     0.007310
      dx2y2   :     0.012624
      dxy     :     0.011754
  2 O s       :     3.873466  s :     3.873466
      pz      :     1.382415  p :     4.632795
      px      :     1.514733
      py      :     1.735647
      dz2     :     0.016571  d :     0.054621
      dxz     :     0.013090
      dyz     :     0.010643
      dx2y2   :     0.006718
      dxy     :     0.007600
  3 H s       :     0.582138  s :     0.582138
      pz      :     0.011317  p :     0.042783
      px      :     0.009108
      py      :     0.022358
  4 O s       :     3.830113  s :     3.830113
      pz      :     1.287004  p :     4.740254
      px      :     1.723988
      py      :     1.729262
      dz2     :     0.007966  d :     0.048105
      dxz     :     0.011994
      dyz     :     0.010295
      dx2y2   :     0.008832
      dxy     :     0.009017
  5 C s       :     3.212913  s :     3.212913
      pz      :     1.056665  p :     2.750805
      px      :     0.846547
      py      :     0.847592
      dz2     :     0.020223  d :     0.086591
      dxz     :     0.013804
      dyz     :     0.012846
      dx2y2   :     0.019538
      dxy     :     0.020180
  6 H s       :     0.797792  s :     0.797792
      pz      :     0.002697  p :     0.015512
      px      :     0.003074
      py      :     0.009741
  7 H s       :     0.800016  s :     0.800016
      pz      :     0.005686  p :     0.015315
      px      :     0.006196
      py      :     0.003434
  8 C s       :     2.952780  s :     2.952780
      pz      :     0.694431  p :     2.138826
      px      :     0.646168
      py      :     0.798228
      dz2     :     0.034492  d :     0.158249
      dxz     :     0.031015
      dyz     :     0.045749
      dx2y2   :     0.025124
      dxy     :     0.021869
  9 O s       :     3.872417  s :     3.872417
      pz      :     1.793672  p :     4.622646
      px      :     1.400402
      py      :     1.428572
      dz2     :     0.008168  d :     0.054667
      dxz     :     0.008975
      dyz     :     0.008201
      dx2y2   :     0.016999
      dxy     :     0.012324
 10 N s       :     3.593934  s :     3.593934
      pz      :     1.334227  p :     4.026517
      px      :     1.117207
      py      :     1.575083
      dz2     :     0.017732  d :     0.056148
      dxz     :     0.007668
      dyz     :     0.006243
      dx2y2   :     0.006548
      dxy     :     0.017958
 11 O s       :     3.832385  s :     3.832385
      pz      :     1.681108  p :     4.733703
      px      :     1.671926
      py      :     1.380669
      dz2     :     0.008087  d :     0.048416
      dxz     :     0.010328
      dyz     :     0.013938
      dx2y2   :     0.009201
      dxy     :     0.006862
 12 H s       :     0.693549  s :     0.693549
      pz      :     0.005618  p :     0.028110
      px      :     0.013202
      py      :     0.009290
 13 H s       :     0.582628  s :     0.582628
      pz      :     0.023762  p :     0.042720
      px      :     0.010119
      py      :     0.008839
 14 H s       :     0.810079  s :     0.810079
      pz      :     0.009756  p :     0.014873
      px      :     0.002490
      py      :     0.002626
 15 H s       :     0.671809  s :     0.671809
      pz      :     0.015693  p :     0.028609
      px      :     0.004856
      py      :     0.008060


                     *******************************
                     * LOEWDIN POPULATION ANALYSIS *
                     *******************************

----------------------
LOEWDIN ATOMIC CHARGES
----------------------
   0 C :    0.209804
   1 C :   -0.120661
   2 O :   -0.285583
   3 H :    0.203755
   4 O :   -0.195712
   5 C :   -0.019429
   6 H :    0.098068
   7 H :    0.096896
   8 C :    0.193937
   9 O :   -0.277467
  10 N :   -0.272204
  11 O :   -0.190324
  12 H :    0.133195
  13 H :    0.202266
  14 H :    0.087046
  15 H :    0.136415

-------------------------------
LOEWDIN REDUCED ORBITAL CHARGES
-------------------------------
  0 C s       :     2.840312  s :     2.840312
      pz      :     0.950493  p :     2.617663
      px      :     0.859130
      py      :     0.808040
      dz2     :     0.055993  d :     0.332221
      dxz     :     0.087337
      dyz     :     0.070431
      dx2y2   :     0.063394
      dxy     :     0.055066
  1 C s       :     2.899402  s :     2.899402
      pz      :     1.013763  p :     3.117407
      px      :     1.032273
      py      :     1.071371
      dz2     :     0.027927  d :     0.103852
      dxz     :     0.025498
      dyz     :     0.010808
      dx2y2   :     0.020349
      dxy     :     0.019270
  2 O s       :     3.544327  s :     3.544327
      pz      :     1.448456  p :     4.659380
      px      :     1.502525
      py      :     1.708399
      dz2     :     0.024528  d :     0.081877
      dxz     :     0.021448
      dyz     :     0.018352
      dx2y2   :     0.008189
      dxy     :     0.009359
  3 H s       :     0.673484  s :     0.673484
      pz      :     0.034379  p :     0.122761
      px      :     0.026422
      py      :     0.061960
  4 O s       :     3.455348  s :     3.455348
      pz      :     1.273731  p :     4.668109
      px      :     1.693649
      py      :     1.700729
      dz2     :     0.017192  d :     0.072255
      dxz     :     0.017924
      dyz     :     0.016080
      dx2y2   :     0.009514
      dxy     :     0.011546
  5 C s       :     2.870363  s :     2.870363
      pz      :     1.046897  p :     2.989475
      px      :     0.964456
      py      :     0.978122
      dz2     :     0.035780  d :     0.159591
      dxz     :     0.023825
      dyz     :     0.023166
      dx2y2   :     0.037583
      dxy     :     0.039236
  6 H s       :     0.855105  s :     0.855105
      pz      :     0.008035  p :     0.046827
      px      :     0.008931
      py      :     0.029861
  7 H s       :     0.856933  s :     0.856933
      pz      :     0.017327  p :     0.046171
      px      :     0.018494
      py      :     0.010350
  8 C s       :     2.849176  s :     2.849176
      pz      :     0.922406  p :     2.624618
      px      :     0.764501
      py      :     0.937711
      dz2     :     0.070348  d :     0.332268
      dxz     :     0.070181
      dyz     :     0.097157
      dx2y2   :     0.050779
      dxy     :     0.043804
  9 O s       :     3.544061  s :     3.544061
      pz      :     1.761906  p :     4.651459
      px      :     1.438579
      py      :     1.450973
      dz2     :     0.012352  d :     0.081947
      dxz     :     0.014043
      dyz     :     0.011700
      dx2y2   :     0.019198
      dxy     :     0.024654
 10 N s       :     3.179657  s :     3.179657
      pz      :     1.314553  p :     4.007723
      px      :     1.145276
      py      :     1.547894
      dz2     :     0.025924  d :     0.084824
      dxz     :     0.012032
      dyz     :     0.008654
      dx2y2   :     0.010797
      dxy     :     0.027417
 11 O s       :     3.451056  s :     3.451056
      pz      :     1.660305  p :     4.666104
      px      :     1.647719
      py      :     1.358081
      dz2     :     0.010774  d :     0.073163
      dxz     :     0.014423
      dyz     :     0.020378
      dx2y2   :     0.014430
      dxy     :     0.013159
 12 H s       :     0.781406  s :     0.781406
      pz      :     0.016006  p :     0.085399
      px      :     0.039333
      py      :     0.030060
 13 H s       :     0.674894  s :     0.674894
      pz      :     0.065339  p :     0.122840
      px      :     0.030676
      py      :     0.026825
 14 H s       :     0.868407  s :     0.868407
      pz      :     0.029647  p :     0.044547
      px      :     0.007584
      py      :     0.007315
 15 H s       :     0.775760  s :     0.775760
      pz      :     0.049815  p :     0.087825
      px      :     0.013809
      py      :     0.024201


                      *****************************
                      * MAYER POPULATION ANALYSIS *
                      *****************************

  NA   - Mulliken gross atomic population
  ZA   - Total nuclear charge
  QA   - Mulliken gross atomic charge
  VA   - Mayer's total valence
  BVA  - Mayer's bonded valence
  FA   - Mayer's free valence

  ATOM       NA         ZA         QA         VA         BVA        FA
  0 C      5.2662     6.0000     0.7338     3.7925     3.5022     0.2903
  1 C      6.2875     6.0000    -0.2875     3.8185     3.5495     0.2691
  2 O      8.5609     8.0000    -0.5609     2.1561     1.7576     0.3985
  3 H      0.6249     1.0000     0.3751     0.8737     0.8301     0.0436
  4 O      8.6185     8.0000    -0.6185     2.0916     1.7348     0.3568
  5 C      6.0503     6.0000    -0.0503     3.8466     3.5668     0.2798
  6 H      0.8133     1.0000     0.1867     0.9491     0.9027     0.0464
  7 H      0.8153     1.0000     0.1847     0.9499     0.9042     0.0457
  8 C      5.2499     6.0000     0.7501     3.7508     3.4579     0.2929
  9 O      8.5497     8.0000    -0.5497     2.1587     1.7610     0.3978
 10 N      7.6766     7.0000    -0.6766     2.9551     2.6302     0.3249
 11 O      8.6145     8.0000    -0.6145     2.0888     1.7335     0.3553
 12 H      0.7217     1.0000     0.2783     0.9122     0.8669     0.0453
 13 H      0.6253     1.0000     0.3747     0.8746     0.8309     0.0437
 14 H      0.8250     1.0000     0.1750     0.9448     0.8975     0.0473
 15 H      0.7004     1.0000     0.2996     0.9079     0.8630     0.0449

  Mayer bond orders larger than 0.100000
B(  0-C ,  1-C ) :   0.8885 B(  0-C ,  4-O ) :   0.9211 B(  0-C ,  9-O ) :   1.7008 
B(  1-C ,  5-C ) :   0.8945 B(  1-C ,  6-H ) :   0.9128 B(  1-C ,  7-H ) :   0.9226 
B(  2-O ,  8-C ) :   1.6953 B(  3-H , 11-O ) :   0.8021 B(  4-O , 13-H ) :   0.8023 
B(  5-C ,  8-C ) :   0.8560 B(  5-C , 10-N ) :   0.9435 B(  5-C , 14-H ) :   0.9198 
B(  8-C , 11-O ) :   0.9249 B( 10-N , 12-H ) :   0.8701 B( 10-N , 15-H ) :   0.8472 



                *******************************************
                * RELAXED MP2 DENSITY POPULATION ANALYSIS *
                *******************************************

------------------------------------------------------------------------------
                           ORCA POPULATION ANALYSIS
------------------------------------------------------------------------------
Input electron density              ... 2.pmp2re
BaseName (.gbw .S,...)              ... 2

                    ********************************
                    * MULLIKEN POPULATION ANALYSIS *
                    ********************************

-----------------------
MULLIKEN ATOMIC CHARGES
-----------------------
   0 C :    0.554414
   1 C :   -0.276278
   2 O :   -0.432578
   3 H :    0.348580
   4 O :   -0.518271
   5 C :   -0.060128
   6 H :    0.169536
   7 H :    0.166162
   8 C :    0.559646
   9 O :   -0.423505
  10 N :   -0.615255
  11 O :   -0.514932
  12 H :    0.261599
  13 H :    0.348385
  14 H :    0.156154
  15 H :    0.276472
Sum of atomic charges:    0.0000000

--------------------------------
MULLIKEN REDUCED ORBITAL CHARGES
--------------------------------
  0 C s       :     2.980643  s :     2.980643
      pz      :     0.824702  p :     2.315091
      px      :     0.762439
      py      :     0.727950
      dz2     :     0.025662  d :     0.149853
      dxz     :     0.039381
      dyz     :     0.032156
      dx2y2   :     0.030538
      dxy     :     0.022116
  1 C s       :     3.235721  s :     3.235721
      pz      :     0.940700  p :     2.985104
      px      :     0.981867
      py      :     1.062538
      dz2     :     0.013123  d :     0.055454
      dxz     :     0.013060
      dyz     :     0.007212
      dx2y2   :     0.011729
      dxy     :     0.010329
  2 O s       :     3.847632  s :     3.847632
      pz      :     1.374120  p :     4.533164
      px      :     1.469197
      py      :     1.689846
      dz2     :     0.014903  d :     0.051782
      dxz     :     0.012216
      dyz     :     0.010711
      dx2y2   :     0.006712
      dxy     :     0.007240
  3 H s       :     0.610518  s :     0.610518
      pz      :     0.011198  p :     0.040902
      px      :     0.009372
      py      :     0.020332
  4 O s       :     3.813304  s :     3.813304
      pz      :     1.265595  p :     4.658326
      px      :     1.692022
      py      :     1.700709
      dz2     :     0.008433  d :     0.046641
      dxz     :     0.010984
      dyz     :     0.009403
      dx2y2   :     0.009040
      dxy     :     0.008781
  5 C s       :     3.191173  s :     3.191173
      pz      :     1.044678  p :     2.789365
      px      :     0.860665
      py      :     0.884022
      dz2     :     0.018633  d :     0.079589
      dxz     :     0.012993
      dyz     :     0.011531
      dx2y2   :     0.017725
      dxy     :     0.018707
  6 H s       :     0.815728  s :     0.815728
      pz      :     0.002940  p :     0.014736
      px      :     0.003240
      py      :     0.008556
  7 H s       :     0.819344  s :     0.819344
      pz      :     0.005281  p :     0.014494
      px      :     0.005705
      py      :     0.003508
  8 C s       :     2.973631  s :     2.973631
      pz      :     0.743514  p :     2.318086
      px      :     0.735090
      py      :     0.839482
      dz2     :     0.031622  d :     0.148637
      dxz     :     0.029230
      dyz     :     0.043680
      dx2y2   :     0.023592
      dxy     :     0.020513
  9 O s       :     3.847494  s :     3.847494
      pz      :     1.748846  p :     4.524245
      px      :     1.378032
      py      :     1.397367
      dz2     :     0.007756  d :     0.051766
      dxz     :     0.009108
      dyz     :     0.008117
      dx2y2   :     0.015285
      dxy     :     0.011500
 10 N s       :     3.575238  s :     3.575238
      pz      :     1.313683  p :     3.986818
      px      :     1.112203
      py      :     1.560931
      dz2     :     0.016713  d :     0.053199
      dxz     :     0.007099
      dyz     :     0.006316
      dx2y2   :     0.006848
      dxy     :     0.016224
 11 O s       :     3.814615  s :     3.814615
      pz      :     1.657723  p :     4.653343
      px      :     1.641101
      py      :     1.354519
      dz2     :     0.008464  d :     0.046974
      dxz     :     0.009783
      dyz     :     0.012831
      dx2y2   :     0.009306
      dxy     :     0.006591
 12 H s       :     0.711411  s :     0.711411
      pz      :     0.005963  p :     0.026990
      px      :     0.011927
      py      :     0.009099
 13 H s       :     0.610756  s :     0.610756
      pz      :     0.021464  p :     0.040859
      px      :     0.010233
      py      :     0.009162
 14 H s       :     0.829816  s :     0.829816
      pz      :     0.008523  p :     0.014030
      px      :     0.002623
      py      :     0.002885
 15 H s       :     0.696092  s :     0.696092
      pz      :     0.013995  p :     0.027436
      px      :     0.005158
      py      :     0.008284


                     *******************************
                     * LOEWDIN POPULATION ANALYSIS *
                     *******************************

----------------------
LOEWDIN ATOMIC CHARGES
----------------------
   0 C :    0.133042
   1 C :   -0.137151
   2 O :   -0.215451
   3 H :    0.193256
   4 O :   -0.160550
   5 C :   -0.037668
   6 H :    0.096958
   7 H :    0.096447
   8 C :    0.114528
   9 O :   -0.208025
  10 N :   -0.260901
  11 O :   -0.155610
  12 H :    0.131118
  13 H :    0.192108
  14 H :    0.086156
  15 H :    0.131742

-------------------------------
LOEWDIN REDUCED ORBITAL CHARGES
-------------------------------
  0 C s       :     2.842735  s :     2.842735
      pz      :     0.950265  p :     2.698875
      px      :     0.893168
      py      :     0.855441
      dz2     :     0.054102  d :     0.325349
      dxz     :     0.086902
      dyz     :     0.069957
      dx2y2   :     0.059229
      dxy     :     0.055158
  1 C s       :     2.903032  s :     2.903032
      pz      :     1.029166  p :     3.136207
      px      :     1.035175
      py      :     1.071866
      dz2     :     0.025091  d :     0.097912
      dxz     :     0.024260
      dyz     :     0.010922
      dx2y2   :     0.019700
      dxy     :     0.017939
  2 O s       :     3.546705  s :     3.546705
      pz      :     1.442511  p :     4.587322
      px      :     1.468609
      py      :     1.676202
      dz2     :     0.024021  d :     0.081424
      dxz     :     0.021157
      dyz     :     0.018598
      dx2y2   :     0.008371
      dxy     :     0.009277
  3 H s       :     0.686211  s :     0.686211
      pz      :     0.034302  p :     0.120533
      px      :     0.026391
      py      :     0.059840
  4 O s       :     3.461171  s :     3.461171
      pz      :     1.270267  p :     4.626333
      px      :     1.674315
      py      :     1.681752
      dz2     :     0.017696  d :     0.073046
      dxz     :     0.017634
      dyz     :     0.015738
      dx2y2   :     0.010206
      dxy     :     0.011773
  5 C s       :     2.873906  s :     2.873906
      pz      :     1.050396  p :     3.010596
      px      :     0.966415
      py      :     0.993785
      dz2     :     0.034555  d :     0.153165
      dxz     :     0.023172
      dyz     :     0.021830
      dx2y2   :     0.035581
      dxy     :     0.038027
  6 H s       :     0.856533  s :     0.856533
      pz      :     0.008473  p :     0.046509
      px      :     0.009135
      py      :     0.028901
  7 H s       :     0.857911  s :     0.857911
      pz      :     0.017079  p :     0.045642
      px      :     0.018174
      py      :     0.010389
  8 C s       :     2.852932  s :     2.852932
      pz      :     0.940091  p :     2.706812
      px      :     0.821267
      py      :     0.945454
      dz2     :     0.067410  d :     0.325727
      dxz     :     0.069211
      dyz     :     0.096935
      dx2y2   :     0.049367
      dxy     :     0.042803
  9 O s       :     3.546278  s :     3.546278
      pz      :     1.731267  p :     4.580360
      px      :     1.422131
      py      :     1.426962
      dz2     :     0.012028  d :     0.081388
      dxz     :     0.014284
      dyz     :     0.011784
      dx2y2   :     0.019343
      dxy     :     0.023950
 10 N s       :     3.181201  s :     3.181201
      pz      :     1.310761  p :     3.997113
      px      :     1.146393
      py      :     1.539960
      dz2     :     0.025334  d :     0.082586
      dxz     :     0.011556
      dyz     :     0.008665
      dx2y2   :     0.010998
      dxy     :     0.026033
 11 O s       :     3.457016  s :     3.457016
      pz      :     1.648436  p :     4.624510
      px      :     1.627132
      py      :     1.348942
      dz2     :     0.011368  d :     0.074084
      dxz     :     0.014414
      dyz     :     0.020028
      dx2y2   :     0.015146
      dxy     :     0.013128
 12 H s       :     0.784696  s :     0.784696
      pz      :     0.016051  p :     0.084186
      px      :     0.038030
      py      :     0.030106
 13 H s       :     0.687353  s :     0.687353
      pz      :     0.063009  p :     0.120539
      px      :     0.030594
      py      :     0.026936
 14 H s       :     0.869631  s :     0.869631
      pz      :     0.028533  p :     0.044213
      px      :     0.007820
      py      :     0.007861
 15 H s       :     0.781711  s :     0.781711
      pz      :     0.048391  p :     0.086546
      px      :     0.013987
      py      :     0.024168


                      *****************************
                      * MAYER POPULATION ANALYSIS *
                      *****************************

  NA   - Mulliken gross atomic population
  ZA   - Total nuclear charge
  QA   - Mulliken gross atomic charge
  VA   - Mayer's total valence
[...]
      dxy     :     0.018390
  9 O s       :     3.860749  s :     3.860749
      pz      :     1.727354  p :     4.516275
      px      :     1.376592
      py      :     1.412330
      dz2     :     0.007895  d :     0.050897
      dxz     :     0.008897
      dyz     :     0.008512
      dx2y2   :     0.014436
      dxy     :     0.011157
 10 N s       :     3.586224  s :     3.586224
      pz      :     1.259854  p :     3.964775
      px      :     1.103019
      py      :     1.601902
      dz2     :     0.017107  d :     0.053925
      dxz     :     0.006838
      dyz     :     0.006607
      dx2y2   :     0.006881
      dxy     :     0.016493
 11 O s       :     3.828239  s :     3.828239
      pz      :     1.636974  p :     4.645052
      px      :     1.655011
      py      :     1.353066
      dz2     :     0.008854  d :     0.047631
      dxz     :     0.010092
      dyz     :     0.013195
      dx2y2   :     0.009107
      dxy     :     0.006383
 12 H s       :     0.712563  s :     0.712563
      pz      :     0.005827  p :     0.026992
      px      :     0.012001
      py      :     0.009163
 13 H s       :     0.614027  s :     0.614027
      pz      :     0.020749  p :     0.040649
      px      :     0.010836
      py      :     0.009063
 14 H s       :     0.826879  s :     0.826879
      pz      :     0.008602  p :     0.014133
      px      :     0.002665
      py      :     0.002866
 15 H s       :     0.698426  s :     0.698426
      pz      :     0.014223  p :     0.027370
      px      :     0.005168
      py      :     0.007979


                     *******************************
                     * LOEWDIN POPULATION ANALYSIS *
                     *******************************

----------------------
LOEWDIN ATOMIC CHARGES
----------------------
   0 C :    0.154102
   1 C :   -0.137628
   2 O :   -0.221783
   3 H :    0.191942
   4 O :   -0.175115
   5 C :   -0.038610
   6 H :    0.098836
   7 H :    0.096937
   8 C :    0.136486
   9 O :   -0.216015
  10 N :   -0.258421
  11 O :   -0.171710
  12 H :    0.131231
  13 H :    0.189994
  14 H :    0.088300
  15 H :    0.131454

-------------------------------
LOEWDIN REDUCED ORBITAL CHARGES
-------------------------------
  0 C s       :     2.853046  s :     2.853046
      pz      :     0.954175  p :     2.686487
      px      :     0.879466
      py      :     0.852847
      dz2     :     0.054411  d :     0.306365
      dxz     :     0.074796
      dyz     :     0.065336
      dx2y2   :     0.056414
      dxy     :     0.055408
  1 C s       :     2.901249  s :     2.901249
      pz      :     1.028876  p :     3.137567
      px      :     1.033239
      py      :     1.075452
      dz2     :     0.025513  d :     0.098811
      dxz     :     0.023554
      dyz     :     0.012043
      dx2y2   :     0.019573
      dxy     :     0.018128
  2 O s       :     3.560708  s :     3.560708
      pz      :     1.439711  p :     4.582022
      px      :     1.460972
      py      :     1.681340
      dz2     :     0.023331  d :     0.079052
      dxz     :     0.019704
      dyz     :     0.018918
      dx2y2   :     0.008065
      dxy     :     0.009034
  3 H s       :     0.687713  s :     0.687713
      pz      :     0.034506  p :     0.120345
      px      :     0.025900
      py      :     0.059939
  4 O s       :     3.485431  s :     3.485431
      pz      :     1.289996  p :     4.618155
      px      :     1.668469
      py      :     1.659690
      dz2     :     0.015864  d :     0.071529
      dxz     :     0.016791
      dyz     :     0.015610
      dx2y2   :     0.010586
      dxy     :     0.012678
  5 C s       :     2.872518  s :     2.872518
      pz      :     1.050481  p :     3.013091
      px      :     0.969126
      py      :     0.993485
      dz2     :     0.035562  d :     0.153001
      dxz     :     0.022853
      dyz     :     0.019536
      dx2y2   :     0.038233
      dxy     :     0.036817
  6 H s       :     0.854774  s :     0.854774
      pz      :     0.009216  p :     0.046390
      px      :     0.008792
      py      :     0.028381
  7 H s       :     0.857103  s :     0.857103
      pz      :     0.015651  p :     0.045960
      px      :     0.018694
      py      :     0.011614
  8 C s       :     2.861720  s :     2.861720
      pz      :     0.927259  p :     2.693989
      px      :     0.812116
      py      :     0.954614
      dz2     :     0.067132  d :     0.307805
      dxz     :     0.065686
      dyz     :     0.091824
      dx2y2   :     0.045697
      dxy     :     0.037466
  9 O s       :     3.561334  s :     3.561334
      pz      :     1.717922  p :     4.575786
      px      :     1.415786
      py      :     1.442078
      dz2     :     0.011733  d :     0.078895
      dxz     :     0.014087
      dyz     :     0.012552
      dx2y2   :     0.018027
      dxy     :     0.022496
 10 N s       :     3.191446  s :     3.191446
      pz      :     1.262440  p :     3.984141
      px      :     1.140393
      py      :     1.581307
      dz2     :     0.026550  d :     0.082834
      dxz     :     0.011576
      dyz     :     0.008426
      dx2y2   :     0.010743
      dxy     :     0.025540
 11 O s       :     3.479104  s :     3.479104
      pz      :     1.633118  p :     4.620296
      px      :     1.641177
      py      :     1.346002
      dz2     :     0.011365  d :     0.072310
      dxz     :     0.014530
      dyz     :     0.020397
      dx2y2   :     0.014424
      dxy     :     0.011595
 12 H s       :     0.784920  s :     0.784920
      pz      :     0.015326  p :     0.083849
      px      :     0.038199
      py      :     0.030324
 13 H s       :     0.690013  s :     0.690013
      pz      :     0.061527  p :     0.119993
      px      :     0.032137
      py      :     0.026330
 14 H s       :     0.867041  s :     0.867041
      pz      :     0.028875  p :     0.044659
      px      :     0.008005
      py      :     0.007779
 15 H s       :     0.782176  s :     0.782176
      pz      :     0.049234  p :     0.086371
      px      :     0.013808
      py      :     0.023328


                      *****************************
                      * MAYER POPULATION ANALYSIS *
                      *****************************

  NA   - Mulliken gross atomic population
  ZA   - Total nuclear charge
  QA   - Mulliken gross atomic charge
  VA   - Mayer's total valence
  BVA  - Mayer's bonded valence
  FA   - Mayer's free valence

  ATOM       NA         ZA         QA         VA         BVA        FA
  0 C      5.4415     6.0000     0.5585     3.9875     3.7073     0.2802
  1 C      6.2746     6.0000    -0.2746     3.8617     3.5968     0.2649
  2 O      8.4360     8.0000    -0.4360     2.3185     1.9279     0.3906
  3 H      0.6522     1.0000     0.3478     0.8972     0.8541     0.0431
  4 O      8.5199     8.0000    -0.5199     2.2127     1.8592     0.3535
  5 C      6.0677     6.0000    -0.0677     3.9211     3.6457     0.2754
  6 H      0.8282     1.0000     0.1718     0.9548     0.9087     0.0461
  7 H      0.8320     1.0000     0.1680     0.9561     0.9102     0.0460
  8 C      5.4331     6.0000     0.5669     3.9445     3.6628     0.2817
  9 O      8.4279     8.0000    -0.4279     2.3143     1.9239     0.3905
 10 N      7.6049     7.0000    -0.6049     3.0292     2.7082     0.3209
 11 O      8.5209     8.0000    -0.5209     2.2039     1.8519     0.3520
 12 H      0.7396     1.0000     0.2604     0.9195     0.8738     0.0457
 13 H      0.6547     1.0000     0.3453     0.9000     0.8564     0.0436
 14 H      0.8410     1.0000     0.1590     0.9486     0.9015     0.0471
 15 H      0.7258     1.0000     0.2742     0.9264     0.8817     0.0447

  Mayer bond orders larger than 0.100000
B(  0-C ,  1-C ) :   0.9034 B(  0-C ,  4-O ) :   0.9878 B(  0-C ,  9-O ) :   1.8055 
B(  1-C ,  5-C ) :   0.9073 B(  1-C ,  6-H ) :   0.9031 B(  1-C ,  7-H ) :   0.9135 
B(  2-O ,  8-C ) :   1.8064 B(  3-H , 11-O ) :   0.8107 B(  4-O , 13-H ) :   0.8113 
B(  5-C ,  8-C ) :   0.8545 B(  5-C , 10-N ) :   0.9846 B(  5-C , 14-H ) :   0.9077 
B(  8-C , 11-O ) :   0.9912 B( 10-N , 12-H ) :   0.8720 B( 10-N , 15-H ) :   0.8507 



----------------------------------
MP2 DERIVATIVE INTEGRAL GENERATION
----------------------------------

Input SCF Electron Density              ... 2.scfp
Input Correlated Electron Density       ... 2.pmp2re
Input Energy Weighted Density           ... 2.wmp2.tmp
Input Wavefunction Amplitudes           ... 2.mp2tsaa.tmp

Nuclear repulsion gradient              ... done (  0.0 sec)
HCore & Overlap gradient  (SHARK)       ... done (  0.1 sec)
Analytic two-electron gradient terms    ... 
  Batch handling in the gradient evaluation:
  General contraction                   ... not used
  Memory available                      ... 4084.9 MB
  Memory per occupied orbital in Q2     ...    5.1 MB
  Memory per occupied orbital in Q3     ...    0.0 MB
  Total memory requirement per |i>      ...    5.2 MB
  Number of orbitals treated per batch  ...     26
  Number of batches to be done          ...      1
done ( 12.6 sec)

---------------------------------------
MP2 TOTAL ENERGY:     -510.905313101 Eh
---------------------------------------

The final MP2 gradient
  0:   0.00000391   0.00001200   0.00001089
  1:  -0.00000380  -0.00000665  -0.00001770
  2:  -0.00000388  -0.00000616  -0.00001223
  3:   0.00000051  -0.00000107  -0.00000082
  4:  -0.00001215   0.00000265   0.00000375
  5:  -0.00000173  -0.00001864   0.00002176
  6:   0.00000155   0.00000061   0.00000015
  7:  -0.00000031   0.00000122   0.00000259
  8:   0.00000858   0.00002016   0.00000204
  9:   0.00000760  -0.00000852  -0.00000556
 10:  -0.00000886   0.00001322   0.00000486
 11:  -0.00000094  -0.00000626   0.00000345
 12:  -0.00000120  -0.00000307  -0.00000477
 13:   0.00000185  -0.00000465  -0.00000129
 14:   0.00000255   0.00000786  -0.00000252
 15:   0.00000632  -0.00000273  -0.00000458

-----------------------------------
NORM OF THE MP2 GRADIENT:  0.000055
-----------------------------------

Maximum memory used throughout the entire MP2-calculation: 455.6 MB

-------------------------   --------------------
FINAL SINGLE POINT ENERGY      -510.905313101101
-------------------------   --------------------

                                *** OPTIMIZATION RUN DONE ***


------------------------------------------------------------------------------
                              ORCA PROPERTY CALCULATIONS
------------------------------------------------------------------------------

GBWName                                 ... 2.gbw
Number of atoms                         ...     16
Number of basis functions               ...    161
Max core memory                         ...   4096 MB

Electric properties:
Dipole moment                           ... YES
Quadrupole moment                       ...  NO
Static polarizability (Dipole/Dipole)   ...  NO
Static polarizability (Dipole/Quad.)    ...  NO
Static polarizability (Quad./Quad.)     ...  NO
Static polarizability (Velocity)        ...  NO
Static hyperpolarizability              ...  NO

Atomic electric properties:
Dipole moment                           ...  NO
Quadrupole moment                       ...  NO
Static polarizability                   ...  NO

Choice of electric origin               ... Center of mass
Position of electric origin             ...    -6.665881     4.421018     1.013124

General magnetic properties:
Magnetizability                         ...  NO

EPR properties:
g-Tensor (aka g-matrix)                 ...  NO
Zero-Field splitting spin-orbit         ...  NO
Zero-field splitting spin-spin          ...  NO
Hyperfine couplings                     ...  NO (   0 nuclei)
Quadrupole couplings                    ...  NO (   0 nuclei)
Contact density                         ...  NO (   0 nuclei)

NMR properties:
Chemical shifts                         ...  NO (   0 nuclei)
Spin-rotation constants                 ...  NO (   0 nuclei)
Spin-spin couplings                     ...  NO (   0 nuclei,    0 pairs)

Choice of magnetic origin               ... GIAO
Position of magnetic origin             ...     0.000000     0.000000     0.000000

Properties with geometric perturbations:
SCF Hessian                             ...  NO
IR spectrum                             ...  NO
VCD spectrum                            ...  NO
X-ray spectroscopy properties:
SCF XES/XAS/RIXS spectra                ...  NO

SCF SOC stabilization energy            ...  NO
Diagonal Born-Oppenheimer correction    ...  NO

-------------
DIPOLE MOMENT
-------------

Method             : SCF
Type of density    : Electron Density
Multiplicity       :   1
Irrep              :   0
Energy             :  -509.4939452851545525 Eh
Basis              : AO
                                X                 Y                 Z
Electronic contribution:     -2.147448197       2.625112817       2.267307073
Nuclear contribution   :      2.317952509      -2.745365830      -2.721365284
                        -----------------------------------------
Total Dipole Moment    :      0.170504312      -0.120253014      -0.454058211
                        -----------------------------------------
Magnitude (a.u.)       :      0.499701277
Magnitude (Debye)      :      1.270139707



--------------------
Rotational spectrum 
--------------------
 
Rotational constants in cm-1:             0.071917             0.047490             0.038974 
Rotational constants in MHz :          2156.007169          1423.711781          1168.422378 

Dipole components along the rotational axes: 
x,y,z [a.u.] :    -0.203840     0.260931     0.374254 
x,y,z [Debye]:    -0.518119     0.663234     0.951277 

 

-------------
DIPOLE MOMENT
-------------

Method             : MP2
Type of density    : Electron Density
Multiplicity       :   1
Level              : Unrelaxed density
Irrep              :   0
Energy             :     0.0000000000000000 Eh
Basis              : AO
                                X                 Y                 Z
Electronic contribution:     -2.158589128       2.658525819       2.317199074
Nuclear contribution   :      2.317952509      -2.745365830      -2.721365284
                        -----------------------------------------
Total Dipole Moment    :      0.159363381      -0.086840011      -0.404166210
                        -----------------------------------------
Magnitude (a.u.)       :      0.443044242
Magnitude (Debye)      :      1.126128967



--------------------
Rotational spectrum 
--------------------
 
Rotational constants in cm-1:             0.071917             0.047490             0.038974 
Rotational constants in MHz :          2156.007169          1423.711781          1168.422378 

Dipole components along the rotational axes: 
x,y,z [a.u.] :    -0.200104     0.226470     0.323972 
x,y,z [Debye]:    -0.508625     0.575642     0.823470 

 

-------------
DIPOLE MOMENT
-------------

Method             : MP2
Type of density    : Electron Density
Multiplicity       :   1
Level              : Relaxed density
Irrep              :   0
Energy             :     0.0000000000000000 Eh
Basis              : AO
                                X                 Y                 Z
Electronic contribution:     -2.214594268       2.796911596       2.509802393
Nuclear contribution   :      2.317952509      -2.745365830      -2.721365284
                        -----------------------------------------
Total Dipole Moment    :      0.103358240       0.051545766      -0.211562891
                        -----------------------------------------
Magnitude (a.u.)       :      0.241036820
Magnitude (Debye)      :      0.612666907



--------------------
Rotational spectrum 
--------------------
 
Rotational constants in cm-1:             0.071917             0.047490             0.038974 
Rotational constants in MHz :          2156.007169          1423.711781          1168.422378 

Dipole components along the rotational axes: 
x,y,z [a.u.] :    -0.186477     0.077514     0.131593 
x,y,z [Debye]:    -0.473986     0.197025     0.334483 

 

Dipole moment calculation done in   0.0 sec 

Maximum memory used throughout the entire PROP-calculation: 8.4 MB

--------------------------------
SUGGESTED CITATIONS FOR THIS RUN
--------------------------------

Below you find a list of papers that are relevant to this ORCA run
We neither can nor want to force you to cite these papers, but we appreciate if you do
You receive ORCA, which is the product of decades of hard work by many enthusiastic individuals, for free
The only thing we kindly ask in return is that you cite our papers,
We deeply appreciate it, if you show your appreciation for ORCA by not just citing the generic ORCA reference.

Please note that relegating all ORCA citations to the supporting information does *not* help us.
SI sections are not indexed - citations you put there will not count into any citation statistics
But we need these citations in order to attract the funding resources that allow us to do what we are doing

Therefore, if you are a happy ORCA user, please consider citing a few of the papers listed below in the main body of your paper

In addition to the list printed below, the program has created the file 2.bibtex that contains the list in bibtex format
You can import this file easily into all common literature databanks and citation aid programs


List of essential papers. We consider these as the minimum necessary citations

  1. Neese, F.
     Software update: the ORCA program system, version 6.0
     WIRES Comput. Molec. Sci. 2025 15(1), e70019
     doi.org/10.1002/wcms.7019

List of papers to cite with high priority. The work reported in these papers was absolutely
necessary for this run to complete.
Our perspective: the developers of density functionals and basis sets usually get cited in chemistry papers
Good! But without the algorithms to do something with them, the functionals or basis sets would not do anything.
Hence, in our opinion, the algorithm design and method developments papers are equally worthy of getting cited

  1. Neese, F.
     The SHARK Integral Generation and Digestion System
     J. Comp. Chem. 2022 44(3), 381
     doi.org/10.1002/jcc.26942

List of suggested additional citations. These are papers that are important in the 'surrounding' of 
of this run, or papers that preceded the highly important papers. If you like your results we are grateful for a citation.

  1. Neese, F.
     The ORCA program system
     WIRES Comput. Molec. Sci. 2012 2(1), 73-78
     doi.org/10.1002/wcms.81
  2. Neese, F.
     Software update: the ORCA program system, version 4.0
     WIRES Comput. Molec. Sci. 2018 8(1), 1-6
     doi.org/10.1002/wcms.1327
  3. Neese, F.; Wennmohs, F.; Becker, U.; Riplinger, C.
     The ORCA quantum chemistry program package
     J. Chem. Phys. 2020 152(22), 224108
     doi.org/10.1063/5.0004608
  4. Neese, F.
     Software update: The ORCA program system—Version 5.0
     WIRES Comput. Molec. Sci. 2022 12(1), e1606
     doi.org/10.1002/wcms.1606

List of optional additional citations

  1. Neese, F.
     Approximate second-order SCF convergence for spin unrestricted wavefunctions
     Chem. Phys. Lett. 2000 325(1-3), 93-98
     doi.org/10.1016/s0009-2614(00)00662-x

Timings for individual modules:

Sum of individual times          ...      574.663 sec (=   9.578 min)
Startup calculation              ...        4.429 sec (=   0.074 min)   0.8 %
SCF iterations                   ...      113.092 sec (=   1.885 min)  19.7 %
Property calculations            ...        0.042 sec (=   0.001 min)   0.0 %
MP2 module                       ...      457.086 sec (=   7.618 min)  79.5 %
Geometry relaxation              ...        0.014 sec (=   0.000 min)   0.0 %
                             ****ORCA TERMINATED NORMALLY****
TOTAL RUN TIME: 0 days 0 hours 9 minutes 34 seconds 884 msec
