
                                 *****************
                                 * O   R   C   A *
                                 *****************

                                            #,                                       
                                            ###                                      
                                            ####                                     
                                            #####                                    
                                            ######                                   
                                           ########,                                 
                                     ,,################,,,,,                         
                               ,,#################################,,                 
                          ,,##########################################,,             
                       ,#########################################, ''#####,          
                    ,#############################################,,   '####,        
                  ,##################################################,,,,####,       
                ,###########''''           ''''###############################       
              ,#####''   ,,,,##########,,,,          '''####'''          '####       
            ,##' ,,,,###########################,,,                        '##       
           ' ,,###''''                  '''############,,,                           
         ,,##''                                '''############,,,,        ,,,,,,###''
      ,#''                                            '''#######################'''  
     '                                                          ''''####''''         
             ,#######,   #######,   ,#######,      ##                                
            ,#'     '#,  ##    ##  ,#'     '#,    #''#        ,####,    ,#,          
            ##       ##  ##   ,#'  ##            #'  '#       #'       ,# #          
            ##       ##  #######   ##           ,######,      #####,      #          
            '#,     ,#'  ##    ##  '#,     ,#' ,#      #,     #,   #      #          
             '#######'   ##     ##  '#######'  #'      '#     '####' #    #          



                #########################################################
                #                        -***-                          #
                #          Department of theory and spectroscopy        #
                #                                                       #
                #                      Frank Neese                      #
                #                                                       #
                #     Directorship, Architecture, Infrastructure        #
                #                    SHARK, DRIVERS                     #
                #        Core code/Algorithms in most modules           #
                #                                                       #
                #        Max Planck Institute fuer Kohlenforschung      #
                #                Kaiser Wilhelm Platz 1                 #
                #                 D-45470 Muelheim/Ruhr                 #
                #                      Germany                          #
                #                                                       #
                #                  All rights reserved                  #
                #                        -***-                          #
                #########################################################


                         Program Version 6.1.0  -  RELEASE   -
                                (GIT: $679e74b$)
                          ($2025-06-10 18:02:51 +0200$)


 With contributions from (in alphabetic order):
[Max-Planck-Institut fuer Kohlenforschung]                               
  Daniel Aravena         : Magnetic Suceptibility                        
  Michael Atanasov       : Ab Initio Ligand Field Theory (pilot matlab implementation)
  Alexander A. Auer      : GIAO ZORA, VPT2 properties, NMR spectrum      
  Ute Becker             : All parallelization in ORCA, NUMFREQ, NUMCALC 
  Giovanni Bistoni       : ED, misc. LED, open-shell LED, HFLD           
  Dmytro Bykov           : pre 5.0 version of the SCF Hessian            
  Marcos Casanova-Páez   : Triplet and SCS-CIS(D). UHF-(DLPNO)-IP/EA/STEOM-CCSD. UHF-CVS-IP/STEOM-CCSD   
  Vijay G. Chilkuri      : MRCI spin determinant printing, contributions to CSF-ICE 
  Pauline Colinet        : FMM embedding                                 
  Dipayan Datta          : RHF DLPNO-CCSD density                        
  Achintya Kumar Dutta   : EOM-CC, STEOM-CC                              
  Nicolas Foglia         : Exact transition moments, OPA infrastructure, MCD improvements    
  Dmitry Ganyushin       : Spin-Orbit,Spin-Spin,Magnetic field MRCI      
  Miquel Garcia-Rates    : C-PCM and meta-GGA Hessian, CCSD/C-PCM, Gaussian charge scheme 
  Tiago L. C. Gouveia    : GS-ROHF, GS-ROCIS                             
  Yang Guo               : DLPNO-NEVPT2, F12-NEVPT2, CIM, IAO-localization        
  Andreas Hansen         : Spin unrestricted coupled pair/coupled cluster methods 
  Ingolf Harden          : AUTO-CI MPn and infrastructure                
  Benjamin Helmich-Paris : MC-RPA, TRAH-(SCF,CASSCF), AVAS, COSX integrals, SCF dyn. polar., MC-PDFT, srDFT 
  Lee Huntington         : MR-EOM, pCC                                   
  Robert Izsak           : Overlap fitted RIJCOSX, COSX-SCS-MP3, EOM     
  Riya Kayal             : Wick's Theorem for AUTO-CI, AUTO-CI UHF-CCSDT 
  Emily Kempfer          : AUTO-CI RHF CISDT and CCSDT, approximate NEVPT4
  Christian Kollmar      : KDIIS, OOCD, Brueckner-CCSD(T), CCSD density, CASPT2, CASPT2-K, improved NEVPT2 
  Axel Koslowski         : Symmetry handling                             
  Simone Kossmann        : meta-GGA functionals, TD-DFT gradient, OOMP2, (MP2 Hessian; deprecated post 5.0) 
  Lucas Lang             : DCDCAS, Hyperfine gauge corrections, ICE-SOC+SSC
  Marvin Lechner         : AUTO-CI (C++ implementation), FIC-MRCC        
  Spencer Leger          : CASSCF response                               
  Dagmar Lenk            : GEPOL surface, SMD, ORCA-2-JSON               
  Dimitrios Liakos       : Extrapolation schemes; Compound Job, Property file
  Dimitrios Manganas     : Further ROCIS development; embedding schemes. LFT, Crystal Embedding 
  Dimitrios Pantazis     : SARC Basis sets                               
  Anastasios Papadopoulos: AUTO-CI, single reference methods and gradients 
  Taras Petrenko         : pre 6.0 DFT Hessian and TD-DFT gradient,  ECA, NRVS 
  Petra Pikulova         : Analytic Raman intensities                    
  Peter Pinski           : DLPNO-MP2, DLPNO-MP2 Gradient                 
  Shashank Vittal Rao    : ES-AILFT, MagRelax                            
  Christoph Reimann      : Effective Core Potentials                     
  Marius Retegan         : Local ZFS, SOC                                
  Christoph Riplinger    : Optimizer, TS searches, QM/MM, DLPNO-CCSD(T), (RO)-DLPNO pert. Triples 
  Michael Roemelt        : Original ROCIS implementation, recursive CI coupling coefficients
  Masaaki Saitow         : Open-shell DLPNO-CCSD energy and density      
  Barbara Sandhoefer     : DKH picture change effects                    
  Yorick L. A. Schmerwitz: GMF and freeze-and-release deltaSCF, NEB S-IDPP initial path                    
  Kantharuban Sivalingam : CASSCF convergence/infrastructure, NEVPT2, NEVPT3, NEVPT4(SD), FIC-MRCI and CEPA variants
  Bernardo de Souza      : ESD, SOC TD-DFT                               
  Georgi L. Stoychev     : AutoAux, RI-MP2 NMR, DLPNO-MP2 response, X2C  
  Van Anh Tran           : RI-MP2 g-tensors                              
  Willem Van den Heuvel  : Paramagnetic NMR                              
  Zikuan Wang            : NOTCH, Electric field optimization            
  Frank Wennmohs         : Technical directorship and infrastructure     
  Hang Xu                : AUTO-CI-Response properties                   
                                                                         
[FACCTs GmbH]                                                            
  Markus Bursch, Nicolas Foglia, Miquel Garcia-Rates, Ingolf Harden, Hagen Neugebauer, Anastasios Papadopoulos, 
  Christoph Riplinger, Bernardo de Souza, Georgi L. Stoychev                                                    
                                                                 
  APM, various basis sets, CI-OPT, improved COSX, DLPNO-Multilevel,           
  DOCKER, DRACO, updates on ESD, Fragmentator, GOAT, IRC, LR-CPCM, L-BFGS, MBIS, meta-GGA TD-DFT gradient, ML-optimized integration grids, 
  MM, NACMEs, nearIR, NEB, NEB-TS, NL-DFT gradient (VV10), 2- and 3-layer-ONIOM, interface openCOSMO-RS, QMMM,   
  Crystal-QMMM, RESP, rigid body optimization, SF, symmetry and pop. for TD-DFT, various functionals, SOLVATOR                                   
                                                                         
[Other institutions]                                                     
  V. Asgeirsson          : NEB                                           
  Christoph Bannwarth    : sTDA-DFT, sTD-DFT, PBEh-3c, B97-3c, D3        
  Giovanni Bistoni       : ETS/NOCV, ADLD/ADEX, COVALED                  
  Martin Brehm           : Molecular dynamics                            
  Ronald Cardenas        : ETS/NOCV                                      
  Martina Colucci        : COVALED                                       
  Sebastian Ehlert       : rSCAN, r2SCAN, r2SCAN-3c, D4, dhf basis sets  
  Marvin Friede          : D4 for Fr, Ra, Ac-Lr                          
  Lars Goerigk           : TD-DFT with DH, B97 family of functionals     
  Stefan Grimme          : VdW corrections, initial TS optimization, DFT functionals, gCP, sTDA/sTD-DF 
  Waldemar Hujo          : DFT-NL                                        
  H. Jonsson             : NEB                                           
  Holger Kruse           : gCP                                           
  Marcel Mueller         : wB97X-3c, vDZP basis set                      
  Hagen Neugebauer       : wr2SCAN, Native XTB                           
  Gianluca Regni         : ADLD/ADEX                                     
  Tobias Risthaus        : pre 6.0 range-separated hybrid DFT and stability analysis
  Lukas Wittmann         : regularized MP2, r2SCAN double-hybrids, wr2SCAN        
                                                                         
We gratefully acknowledge several colleagues who have allowed us to      
interface, adapt or use parts of their codes:                            
  Ed Valeev, F. Pavosevic, A. Kumar             : LibInt (2-el integral package), F12 methods 
  Garnet Chan, S. Sharma, J. Yang, R. Olivares  : DMRG                   
  Ulf Ekstrom                                   : XCFun DFT Library      
  Mihaly Kallay                                 : mrcc  (arbitrary order and MRCC methods)
  Frank Weinhold                                : gennbo (NPA and NBO analysis)           
  Simon Mueller                                 : openCOSMO-RS                            
  Christopher J. Cramer and Donald G. Truhlar   : smd solvation model                     
  S Lehtola, MJT Oliveira, MAL Marques          : LibXC Library                           
  Liviu Ungur et al                             : ANISO software                          


 Your calculation uses the libint2 library for the computation of 2-el integrals
 For citations please refer to: http://libint.valeyev.net

 Your ORCA version has been built with support for libXC version: 7.0.0
 For citations please refer to: https://libxc.gitlab.io

 This ORCA versions uses:
   CBLAS   interface :  Fast vector & matrix operations
   LAPACKE interface :  Fast linear algebra routines
   SCALAPACK package :  Parallel linear algebra routines
   Shared memory     :  Shared parallel matrices
   BLAS/LAPACK       :  OpenBLAS 0.3.29  USE64BITINT DYNAMIC_ARCH NO_AFFINITY Haswell SINGLE_THREADED
        Core in use  :  Haswell
   Copyright (c) 2011-2014, The OpenBLAS Project


  ***********************************
  * Starting time: Sat Aug 30 16:29:27 2025
  * Host name:     chemlab03
  * Process ID:    83039
  * Working dir.:  /home/vivek/mm-project/vivek/xtb-goat/B97-D-opt/l/1
  ***********************************



***************************************
The coordinates will be read from file: /home/vivek/mm-project/vivek/xtb-goat/xtb-goat/l/L_CONF/1.xyz
***************************************


Your calculation utilizes empirical dispersion correction


Warning: RI is on but no J-basis has been assigned. Assigning Def2/J (nothing to worry about!)
================================================================================

----- Orbital basis set information -----
Your calculation utilizes the basis: 6-31G**
   H-He, Li-Ne : W. J. Hehre, R. Ditchfield and J.A. Pople, J. Chem. Phys. 56, 2257 (1972).
                 Note: He and Ne are unpublished basis sets taken from the Gaussian program.
                 Note: Li and B from J. D. Dill and J. A. Pople, J. Chem. Phys. 62, 2921 (1975).
   Na - Ar     : M. M. Francl, W. J. Pietro, W. J. Hehre, J. S. Binkley, M. S. Gordon, 
                 D. J. DeFrees and J. A. Pople, J. Chem. Phys. 77, 3654 (1982).
   K - Zn      : V. A. Rassolov, J. A. Pople, M. A. Ratner, and T. L. Windus, J. Chem. Phys. 109, 1223 (1998).

----- AuxJ basis set information -----
Your calculation utilizes the auxiliary basis: def2/J
   H-Rn: F. Weigend, Phys. Chem. Chem. Phys. 8, 1057 (2006).
   Fr-Lr: K. Eichkorn, F. Weigend, O. Treutler, R. Ahlrichs; Theor. Chem. Acc. 97, 119 (1997).

================================================================================
                                        WARNINGS
                       Please study these warnings very carefully!
================================================================================


WARNING: Geometry Optimization
  ===> : Switching off AutoStart
         For restart on a previous wavefunction, please use MOREAD

INFO   : The exchange functional is Grimme's B97(-D)
         As described in S. Grimme, J. Comput. Chem. 27, 1787 (2006).
         Note that this functional defaults to a pure GGA. 

INFO   : The correlation functional is Grimme's B97(-D)
         As described in S. Grimme, J. Comput. Chem. 27, 1787 (2006).

================================================================================
                                       INPUT FILE
================================================================================
NAME = 1.inp
|  1> ! B97-D 6-31G** opt
|  2> 
|  3> * xyzfile 0 1 /home/vivek/mm-project/vivek/xtb-goat/xtb-goat/l/L_CONF/1.xyz
|  4> 
|  5>                          ****END OF INPUT****
================================================================================

                       *****************************
                       * Geometry Optimization Run *
                       *****************************

Geometry optimization settings:
Update method            Update   .... BFGS
Choice of coordinates    CoordSys .... (2022) Redundant Internals
Initial Hessian          InHess   .... Almloef's Model
Max. no of cycles        MaxIter  .... 66

Convergence Tolerances:
Energy Change            TolE     ....  5.0000e-06 Eh
Max. Gradient            TolMAXG  ....  3.0000e-04 Eh/bohr
RMS Gradient             TolRMSG  ....  1.0000e-04 Eh/bohr
Max. Displacement        TolMAXD  ....  4.0000e-03 bohr
RMS Displacement         TolRMSD  ....  2.0000e-03 bohr
Strict Convergence                .... False

------------------------------------------------------------------------------
                        ORCA OPTIMIZATION COORDINATE SETUP
------------------------------------------------------------------------------

The optimization will be done in redundant internal coordinates (2022)
Making redundant internal coordinates   ...  (2022 redundants) done
Evaluating the initial hessian          ...  (Almloef) done
Evaluating the coordinates              ...  done
Calculating the B-matrix                .... done
Calculating the G-matrix                .... done
The number of degrees of freedom        ....   94

    -----------------------------------------------------------------
                    Redundant Internal Coordinates


    -----------------------------------------------------------------
         Definition                    Initial Value    Approx d2E/dq
    -----------------------------------------------------------------
      1. B(C   1,C   0)                  1.5256         0.379650   
      2. B(C   4,C   0)                  1.5388         0.361693   
      3. B(H   5,C   0)                  1.0964         0.351791   
      4. B(N   7,H   3)                  1.0149         0.424973   
      5. B(N   7,C   0)                  1.4491         0.450366   
      6. B(N   7,H   2)                  1.0159         0.423479   
      7. B(C   8,C   4)                  1.5333         0.369140   
      8. B(H   9,C   4)                  1.0922         0.357197   
      9. B(H  10,C   4)                  1.0919         0.357585   
     10. B(C  11,C   8)                  1.5252         0.380204   
     11. B(H  12,C  11)                  1.0854         0.366303   
     12. B(C  13,C   8)                  1.5283         0.375901   
     13. B(C  13,H   6)                  1.0874         0.363601   
     14. B(H  14,C  11)                  1.0879         0.362867   
     15. B(H  15,C  11)                  1.0876         0.363286   
     16. B(H  16,C   8)                  1.0953         0.353181   
     17. B(H  17,C  13)                  1.0880         0.362733   
     18. B(H  18,C  13)                  1.0879         0.362940   
     19. B(O  19,C   1)                  1.3379         0.677738   
     20. B(H  20,O  19)                  0.9708         0.499685   
     21. B(O  21,C   1)                  1.2031         1.111726   
     22. A(C   4,C   0,N   7)          111.8768         0.370785   
     23. A(C   1,C   0,H   5)          107.6082         0.323935   
     24. A(H   5,C   0,N   7)          108.5626         0.331186   
     25. A(C   4,C   0,H   5)          108.7470         0.321373   
     26. A(C   1,C   0,N   7)          111.6346         0.373892   
     27. A(C   1,C   0,C   4)          108.2856         0.362348   
     28. A(C   0,C   1,O  21)          124.3591         0.438545   
     29. A(C   0,C   1,O  19)          112.9189         0.401503   
     30. A(O  19,C   1,O  21)          122.7219         0.484256   
     31. A(H   9,C   4,H  10)          108.2630         0.290151   
     32. A(C   0,C   4,H  10)          107.6032         0.322233   
     33. A(C   8,C   4,H   9)          109.4669         0.323254   
     34. A(C   0,C   4,H   9)          108.7898         0.322176   
     35. A(C   0,C   4,C   8)          113.9620         0.360616   
     36. A(C   8,C   4,H  10)          108.6014         0.323312   
     37. A(C   0,N   7,H   2)          109.3243         0.338626   
     38. A(H   2,N   7,H   3)          106.8811         0.301345   
     39. A(C   0,N   7,H   3)          110.0801         0.338825   
     40. A(C  13,C   8,H  16)          108.4137         0.323617   
     41. A(C   4,C   8,H  16)          108.2397         0.322655   
     42. A(C  11,C   8,H  16)          108.6758         0.324222   
     43. A(C  11,C   8,C  13)          110.1722         0.364833   
     44. A(C   4,C   8,C  13)          109.5286         0.362995   
     45. A(C   4,C   8,C  11)          111.7280         0.363702   
     46. A(H  14,C  11,H  15)          108.3337         0.291593   
     47. A(H  12,C  11,H  15)          109.1971         0.292026   
     48. A(C   8,C  11,H  15)          110.2989         0.325729   
     49. A(H  12,C  11,H  14)          108.6026         0.291972   
     50. A(C   8,C  11,H  14)          110.1980         0.325667   
     51. A(C   8,C  11,H  12)          110.1649         0.326173   
     52. A(H   6,C  13,H  18)          108.3219         0.291642   
     53. A(C   8,C  13,H  17)          110.3738         0.325039   
     54. A(H   6,C  13,H  17)          108.2906         0.291616   
     55. A(H   6,C  13,C   8)          110.3347         0.325166   
     56. A(H  17,C  13,H  18)          108.4259         0.291532   
     57. A(C   8,C  13,H  18)          111.0125         0.325069   
     58. A(C   1,O  19,H  20)          110.4691         0.373269   
     59. D(O  19,C   1,C   0,H   5)     48.7185         0.010757   
     60. D(O  21,C   1,C   0,H   5)   -131.1864         0.010757   
     61. D(O  21,C   1,C   0,C   4)    111.4268         0.010757   
     62. D(O  19,C   1,C   0,N   7)    167.7428         0.010757   
     63. D(O  19,C   1,C   0,C   4)    -68.6683         0.010757   
     64. D(C   8,C   4,C   0,C   1)    164.5810         0.010489   
     65. D(C   8,C   4,C   0,H   5)     47.9275         0.010489   
     66. D(H   9,C   4,C   0,H   5)    170.3685         0.010489   
     67. D(H   9,C   4,C   0,N   7)     50.4650         0.010489   
     68. D(C   8,C   4,C   0,N   7)    -71.9760         0.010489   
     69. D(H   9,C   4,C   0,C   1)    -72.9780         0.010489   
     70. D(H   2,N   7,C   0,H   5)    176.5102         0.017303   
     71. D(H   2,N   7,C   0,C   4)    -63.4782         0.017303   
     72. D(H   3,N   7,C   0,C   1)    -59.0640         0.017303   
     73. D(H   2,N   7,C   0,C   1)     58.0543         0.017303   
     74. D(H   3,N   7,C   0,C   4)    179.4035         0.017303   
     75. D(C  13,C   8,C   4,H  10)    -45.1128         0.010896   
     76. D(C  13,C   8,C   4,H   9)     72.8997         0.010896   
     77. D(C  13,C   8,C   4,C   0)   -165.0314         0.010896   
     78. D(C  11,C   8,C   4,H  10)   -167.4716         0.010896   
     79. D(C  11,C   8,C   4,H   9)    -49.4591         0.010896   
     80. D(C  11,C   8,C   4,C   0)     72.6098         0.010896   
     81. D(H  14,C  11,C   8,H  16)   -176.5698         0.011520   
     82. D(H  14,C  11,C   8,C  13)    -57.9236         0.011520   
     83. D(H  14,C  11,C   8,C   4)     64.0659         0.011520   
     84. D(H  12,C  11,C   8,H  16)     63.6153         0.011520   
     85. D(H  12,C  11,C   8,C  13)   -177.7385         0.011520   
     86. D(H  12,C  11,C   8,C   4)    -55.7490         0.011520   
     87. D(H   6,C  13,C   8,H  16)     62.3747         0.011275   
     88. D(H   6,C  13,C   8,C  11)    -56.4320         0.011275   
     89. D(H   6,C  13,C   8,C   4)   -179.7144         0.011275   
     90. D(H  17,C  13,C   8,H  16)   -177.9779         0.011275   
     91. D(H  17,C  13,C   8,C  11)     63.2155         0.011275   
     92. D(H  17,C  13,C   8,C   4)    -60.0669         0.011275   
     93. D(H  20,O  19,C   1,O  21)     -0.7718         0.034191   
     94. D(H  20,O  19,C   1,C   0)    179.3215         0.034191   
    -----------------------------------------------------------------

Number of atoms                         .... 22
Number of degrees of freedom            .... 94


         *************************************************************
         *                GEOMETRY OPTIMIZATION CYCLE   1            *
         *************************************************************
---------------------------------
CARTESIAN COORDINATES (ANGSTROEM)
---------------------------------
  C     -9.276162    6.455258   -2.085801
  C     -8.358719    7.401386   -1.317282
  H     -7.916551    5.998543   -3.517258
  H     -8.892349    7.241160   -3.922893
  C     -9.278908    5.095010   -1.366343
  H    -10.288717    6.874217   -2.051192
  H    -11.366229    2.359547   -1.074909
  N     -8.875226    6.331650   -3.472847
  C    -10.423128    4.167568   -1.792337
  H     -8.322407    4.599614   -1.546885
  H     -9.367459    5.288117   -0.295301
  C    -10.202281    3.604830   -3.192631
  H    -10.064884    4.413443   -3.903443
  C    -10.560710    3.028816   -0.782363
  H     -9.315817    2.974362   -3.208583
  H    -11.055707    3.002890   -3.496294
  H    -11.352834    4.746602   -1.789653
  H     -9.639024    2.452750   -0.733142
  H    -10.779428    3.413225    0.211536
  O     -8.845998    7.740016   -0.118216
  H     -8.230798    8.332531    0.343255
  O     -7.305858    7.811274   -1.730828

----------------------------
CARTESIAN COORDINATES (A.U.)
----------------------------
  NO LB      ZA    FRAG     MASS         X           Y           Z
   0 C     6.0000    0    12.011  -17.529406   12.198670   -3.941593
   1 C     6.0000    0    12.011  -15.795690   13.986593   -2.489301
   2 H     1.0000    0     1.008  -14.960114   11.335603   -6.646654
   3 H     1.0000    0     1.008  -16.804104   13.683809   -7.413194
   4 C     6.0000    0    12.011  -17.534596    9.628174   -2.582015
   5 H     1.0000    0     1.008  -19.442858   12.990388   -3.876192
   6 H     1.0000    0     1.008  -21.479060    4.458897   -2.031283
   7 N     7.0000    0    14.007  -16.771746   11.965085   -6.562730
   8 C     6.0000    0    12.011  -19.696857    7.875562   -3.387027
   9 H     1.0000    0     1.008  -15.727070    8.692011   -2.923189
  10 H     1.0000    0     1.008  -17.701932    9.993092   -0.558038
  11 C     6.0000    0    12.011  -19.279516    6.812141   -6.033199
  12 H     1.0000    0     1.008  -19.019874    8.340199   -7.376438
  13 C     6.0000    0    12.011  -19.956849    5.723633   -1.478451
  14 H     1.0000    0     1.008  -17.604342    5.620729   -6.063343
  15 H     1.0000    0     1.008  -20.892258    5.674640   -6.607039
  16 H     1.0000    0     1.008  -21.453746    8.969779   -3.381954
  17 H     1.0000    0     1.008  -18.215115    4.635025   -1.385438
  18 H     1.0000    0     1.008  -20.370166    6.450060    0.399745
  19 O     8.0000    0    15.999  -16.716514   14.626511   -0.223396
  20 H     1.0000    0     1.008  -15.553953   15.746201    0.648658
  21 O     8.0000    0    15.999  -13.806070   14.761169   -3.270791

--------------------------------
INTERNAL COORDINATES (ANGSTROEM)
--------------------------------
 C      0   0   0     0.000000000000     0.00000000     0.00000000
 C      1   0   0     1.525608873780     0.00000000     0.00000000
 H      1   2   0     2.026375919471    95.28676824     0.00000000
 H      3   1   2     1.631201512080    66.58424188   266.91375590
 C      1   2   3     1.538798757201   108.28562696    99.81390165
 H      1   2   3     1.096354243234   107.60822267   217.20067940
 H      5   1   2     3.453201443828   137.79745554   155.37585207
 N      4   3   1     1.014910130664    36.57949822   320.02524691
 C      5   1   2     1.533251121041   113.96196996   164.58099080
 H      5   1   2     1.092203038646   108.78979886   287.02204414
 H      5   1   2     1.091907880954   107.60322909    44.10175873
 C      9   5   1     1.525211683025   111.72798714    72.60982259
 H     12   9   5     1.085350829592   110.16489530   304.25098122
 C      7   5   1     1.087366186153    24.12676102   200.93837707
 H     12   9   5     1.087916550889   110.19795722    64.06591976
 H     12   9   5     1.087602430347   110.29888407   183.63241606
 H      9   5   1     1.095281132942   108.23970670   312.98818010
 H     14   7   5     1.088016551246   108.29061173   239.39286263
 H     14   7   5     1.087861257228   108.32190684   121.99741373
 O      2   1   3     1.337859802549   112.91891135   191.51779534
 H     20   2   1     0.970824626748   110.46911055   179.32154722
 O      2   1   3     1.203140461507   124.35911345    11.61288684

---------------------------
INTERNAL COORDINATES (A.U.)
---------------------------
 C      0   0   0     0.000000000000     0.00000000     0.00000000
 C      1   0   0     2.882982958925     0.00000000     0.00000000
 H      1   2   0     3.829295532174    95.28676824     0.00000000
 H      3   1   2     3.082524127069    66.58424188   266.91375590
 C      1   2   3     2.907908226328   108.28562696    99.81390165
 H      1   2   3     2.071809265475   107.60822267   217.20067940
 H      5   1   2     6.525605014096   137.79745554   155.37585207
 N      4   3   1     1.917902197497    36.57949822   320.02524691
 C      5   1   2     2.897424713296   113.96196996   164.58099080
 H      5   1   2     2.063964625677   108.78979886   287.02204414
 H      5   1   2     2.063406858473   107.60322909    44.10175873
 C      9   5   1     2.882232377175   111.72798714    72.60982259
 H     12   9   5     2.051015827153   110.16489530   304.25098122
 C      7   5   1     2.054824299116    24.12676102   200.93837707
 H     12   9   5     2.055864337740   110.19795722    64.06591976
 H     12   9   5     2.055270735943   110.29888407   183.63241606
 H      9   5   1     2.069781380912   108.23970670   312.98818010
 H     14   7   5     2.056053311029   108.29061173   239.39286263
 H     14   7   5     2.055759847865   108.32190684   121.99741373
 O      2   1   3     2.528188632400   112.91891135   191.51779534
 H     20   2   1     1.834592668620   110.46911055   179.32154722
 O      2   1   3     2.273605972888   124.35911345    11.61288684

---------------------
BASIS SET INFORMATION
---------------------
There are 4 groups of distinct atoms

 Group   1 Type C   : 10s4p1d contracted to 3s2p1d pattern {631/31/1}
 Group   2 Type H   : 4s1p contracted to 2s1p pattern {31/1}
 Group   3 Type N   : 10s4p1d contracted to 3s2p1d pattern {631/31/1}
 Group   4 Type O   : 10s4p1d contracted to 3s2p1d pattern {631/31/1}

Atom   0C    basis set group =>   1
Atom   1C    basis set group =>   1
Atom   2H    basis set group =>   2
Atom   3H    basis set group =>   2
Atom   4C    basis set group =>   1
Atom   5H    basis set group =>   2
Atom   6H    basis set group =>   2
Atom   7N    basis set group =>   3
Atom   8C    basis set group =>   1
Atom   9H    basis set group =>   2
Atom  10H    basis set group =>   2
Atom  11C    basis set group =>   1
Atom  12H    basis set group =>   2
Atom  13C    basis set group =>   1
Atom  14H    basis set group =>   2
Atom  15H    basis set group =>   2
Atom  16H    basis set group =>   2
Atom  17H    basis set group =>   2
Atom  18H    basis set group =>   2
Atom  19O    basis set group =>   4
Atom  20H    basis set group =>   2
Atom  21O    basis set group =>   4
---------------------------------
AUXILIARY/J BASIS SET INFORMATION
---------------------------------
There are 4 groups of distinct atoms

 Group   1 Type C   : 12s5p4d2f1g contracted to 6s4p3d1f1g pattern {711111/2111/211/2/1}
 Group   2 Type H   : 5s2p1d contracted to 3s1p1d pattern {311/2/1}
 Group   3 Type N   : 12s5p4d2f1g contracted to 6s4p3d1f1g pattern {711111/2111/211/2/1}
 Group   4 Type O   : 12s5p4d2f1g contracted to 6s4p3d1f1g pattern {711111/2111/211/2/1}

Atom   0C    basis set group =>   1
Atom   1C    basis set group =>   1
Atom   2H    basis set group =>   2
Atom   3H    basis set group =>   2
Atom   4C    basis set group =>   1
Atom   5H    basis set group =>   2
Atom   6H    basis set group =>   2
Atom   7N    basis set group =>   3
Atom   8C    basis set group =>   1
Atom   9H    basis set group =>   2
Atom  10H    basis set group =>   2
Atom  11C    basis set group =>   1
Atom  12H    basis set group =>   2
Atom  13C    basis set group =>   1
Atom  14H    basis set group =>   2
Atom  15H    basis set group =>   2
Atom  16H    basis set group =>   2
Atom  17H    basis set group =>   2
Atom  18H    basis set group =>   2
Atom  19O    basis set group =>   4
Atom  20H    basis set group =>   2
Atom  21O    basis set group =>   4
------------------------------------------------------------------------------
                             ORCA STARTUP CALCULATIONS
                           -- RI-GTO INTEGRALS CHOSEN --
------------------------------------------------------------------------------
------------------------------------------------------------------------------
                   ___                                                        
                  /   \      - P O W E R E D   B Y -                         
                 /     \                                                     
                 |  |  |   _    _      __       _____    __    __             
                 |  |  |  | |  | |    /  \     |  _  \  |  |  /  |          
                  \  \/   | |  | |   /    \    | | | |  |  | /  /          
                 / \  \   | |__| |  /  /\  \   | |_| |  |  |/  /          
                |  |  |   |  __  | /  /__\  \  |    /   |      \           
                |  |  |   | |  | | |   __   |  |    \   |  |\   \          
                \     /   | |  | | |  |  |  |  | |\  \  |  | \   \       
                 \___/    |_|  |_| |__|  |__|  |_| \__\ |__|  \__/        
                                                                              
                      - O R C A' S   B I G   F R I E N D -                    
                                      &                                       
                       - I N T E G R A L  F E E D E R -                       
                                                                              
 v1 FN, 2020, v2 2021, v3 2022-2024                                           
------------------------------------------------------------------------------


----------------------
SHARK INTEGRAL PACKAGE
----------------------

Number of atoms                             ...     22
Number of basis functions                   ...    191
Number of shells                            ...     93
Maximum angular momentum                    ...      2
Integral batch strategy                     ... SHARK/LIBINT Hybrid
RI-J (if used) integral strategy            ... SPLIT-RIJ (Revised 2003 algorithm where possible)
Printlevel                                  ...      1
Contraction scheme used                     ... SEGMENTED contraction
Prescreening option                         ... SCHWARTZ
   Thresh                                   ... 2.500e-11
   Tcut                                     ... 2.500e-12
   Tpresel                                  ... 2.500e-12 
Coulomb Range Separation                    ... NOT USED
Exchange Range Separation                   ... NOT USED
Multipole approximations                    ... NOT USED
Finite Nucleus Model                        ... NOT USED
CABS basis                                  ... NOT available
Auxiliary Coulomb fitting basis             ... AVAILABLE
   # of basis functions in Aux-J            ...    584
   # of shells in Aux-J                     ...    200
   Maximum angular momentum in Aux-J        ...      4
Auxiliary J/K fitting basis                 ... NOT available
Auxiliary Correlation fitting basis         ... NOT available
Auxiliary 'external' fitting basis          ... NOT available

Checking pre-screening integrals            ... done (  0.0 sec) Dimension = 93
   => SHARK Basis and OBASIS are compatible. Storing Pre-screening
Shell pair information
Shell pair cut-off parameter TPreSel        ...   2.5e-12
Total number of shell pairs                 ...      4371
Shell pairs after pre-screening             ...      3888
Total number of primitive shell pairs       ...     20328
Primitive shell pairs kept                  ...     12136
          la=0 lb=0:   1292 shell pairs
          la=1 lb=0:   1459 shell pairs
          la=1 lb=1:    432 shell pairs
          la=2 lb=0:    421 shell pairs
          la=2 lb=1:    244 shell pairs
          la=2 lb=2:     40 shell pairs

Checking whether 4 symmetric matrices of dimension 191 fit in memory
:Max Core in MB      =   4096.00
 MB in use           =      8.60
 MB left             =   4087.40
 MB needed           =      0.56
 Data fit in memory  = YES
Calculating RI/J V-Matrix + Cholesky decomp.... done (  0.0 sec)
Calculating Nuclear repulsion               ... done (  0.0 sec) ENN=    482.765383124241 Eh

Diagonalization of the overlap matrix:
Smallest eigenvalue                        ... 2.830e-03
Time for diagonalization                   ...    0.002 sec
Threshold for overlap eigenvalues          ... 1.000e-07
Number of eigenvalues below threshold      ... 0
Time for construction of square roots      ...    0.001 sec
Total time needed                          ...    0.003 sec

-------------------
DFT GRID GENERATION
-------------------

General Integration Accuracy     IntAcc      ... 4.388
Radial Grid Type                 RadialGrid  ... OptM3 with GC (2021)
Angular Grid (max. ang.)         AngularGrid ... 4 (Lebedev-302)
Angular grid pruning method      GridPruning ... 4 (adaptive)
Weight generation scheme         WeightScheme... mBecke (2022)
Basis function cutoff            BFCut       ... 1.0000e-11
Integration weight cutoff        WCut        ... 1.0000e-14
Partially contracted basis set               ... off
Rotationally invariant grid construction     ... off
Angular grids for H and He will be reduced by one unit

Total number of grid points                  ...    95615
Total number of batches                      ...     1506
Average number of points per batch           ...       63
Average number of grid points per atom       ...     4346
Grids setup in   0.4 sec
Initializing property integral containers    ... done (  0.0 sec)

SHARK setup successfully completed in   0.5 seconds

Maximum memory used throughout the entire STARTUP-calculation: 40.6 MB
-------------------------------------------------------------------------------
                                 ORCA GUESS
                   Start orbitals & Density for SCF / CASSCF
-------------------------------------------------------------------------------

------------
SCF SETTINGS
------------
Hamiltonian:
 Density Functional     Method          .... DFT(GTOs)
 Exchange Functional    Exchange        .... B97(D)
 Correlation Functional Correlation     .... B97(D)
 Gradients option       PostSCFGGA      .... off
 RI-approximation to the Coulomb term is turned on
   Number of AuxJ basis functions       .... 584


General Settings:
 Integral files         IntName         .... 1
 Hartree-Fock type      HFTyp           .... RHF
 Total Charge           Charge          ....    0
 Multiplicity           Mult            ....    1
 Number of Electrons    NEL             ....   72
 Basis Dimension        Dim             ....  191
 Nuclear Repulsion      ENuc            ....    482.7653831242 Eh

Convergence Acceleration:
 AO-DIIS                CNVDIIS         .... on
   Start iteration      DIISMaxIt       ....    12
   Startup error        DIISStart       ....  0.200000
   # of expansion vecs  DIISMaxEq       ....     5
   Bias factor          DIISBfac        ....   1.050
   Max. coefficient     DIISMaxC        ....  10.000
 MO-DIIS                CNVKDIIS        .... off
 Trust-Rad. Augm. Hess. CNVTRAH         .... auto
   Auto Start mean grad. ratio tolernc. ....  1.125000
   Auto Start start iteration           ....    50
   Auto Start num. interpolation iter.  ....    10
   Max. Number of Micro iterations      ....    24
   Max. Number of Macro iterations      .... Maxiter - #DIIS iter
   Number of Davidson start vectors     ....     2
   Converg. threshold    (grad. norm)   ....   1.000e-05
   Grad. Scal. Fac. for Micro threshold ....   0.100
   Minimum threshold for Micro iter.    ....   1.000e-02
   NR start threshold (gradient norm)   ....   1.000e-04
   Initial trust radius                 ....   0.400
   Minimum AH scaling param. (alpha)    ....   1.000
   Maximum AH scaling param. (alpha)    .... 1000.000
   Quad. conv. algorithm                .... NR
   White noise on init. David. guess    .... on
   Maximum white noise                  ....   0.010
   Pseudo random numbers                .... off
   Inactive MOs                         .... canonical
   Orbital update algorithm             .... Taylor
   Preconditioner                       .... Diag
   Full preconditioner red. dimension   ....   250
 SOSCF                 CNVSOSCF           .... on
   Start iteration     SOSCFMaxIt         ....   150
   Startup grad/error  SOSCFStart         ....  0.003300
   Hessian update      SOSCFHessUp        .... L-BFGS
   Autom. constraints  SOSCFAutoConstrain .... off
 Level Shifting         CNVShift        .... on
   Level shift para.    LevelShift      ....    0.2500
   Turn off err/grad.   ShiftErr        ....    0.0010
 Zerner damping         CNVZerner       .... off
 Static damping         CNVDamp         .... on
   Fraction old density DampFac         ....    0.7000
   Max. Damping (<1)    DampMax         ....    0.9800
   Min. Damping (>=0)   DampMin         ....    0.0000
   Turn off err/grad.   DampErr         ....    0.1000

SCF Procedure:
 Maximum # iterations   MaxIter         ....   125
 SCF integral mode      SCFMode         .... Direct
   Integral package                     .... SHARK and LIBINT hybrid scheme
 Reset frequency        DirectResetFreq ....    20
 Integral Threshold     Thresh          ....  2.500e-11 Eh
 Primitive CutOff       TCut            ....  2.500e-12 Eh

Convergence Tolerance:
 Convergence Check Mode ConvCheckMode   .... Total+1el-Energy
 Convergence forced     ConvForced      .... 0
 Energy Change          TolE            ....  1.000e-08 Eh
 1-El. energy change                    ....  1.000e-05 Eh
 Orbital Gradient       TolG            ....  1.000e-05
 Orbital Rotation angle TolX            ....  1.000e-05
 DIIS Error             TolErr          ....  5.000e-07

------------------------------
INITIAL GUESS: MODEL POTENTIAL
------------------------------
Loading Hartree-Fock densities                     ... done
Calculating cut-offs                               ... done
Initializing the effective Hamiltonian             ... done
Setting up the integral package (SHARK)            ... done
Starting the Coulomb interaction                   ... done (   0.1 sec)
Making the grid                                    ... done (   0.1 sec)
Mapping shells                                     ... done
Starting the XC term evaluation                    ... done (   0.1 sec)
  promolecular density results
     # of electrons  =     71.997039938
     EX              =    -56.846438890
     EC              =     -3.118122788
     EX+EC           =    -59.964561678
Transforming the Hamiltonian                       ... done (   0.0 sec)
Diagonalizing the Hamiltonian                      ... done (   0.0 sec)
Back transforming the eigenvectors                 ... done (   0.0 sec)
Now organizing SCF variables                       ... done
                      ------------------
                      INITIAL GUESS DONE (   0.3 sec)
                      ------------------
             **** ENERGY FILE WAS UPDATED (1.en.tmp) ****
Finished Guess after   0.3 sec
Maximum memory used throughout the entire GUESS-calculation: 13.7 MB

-------------------------------------------------------------------------------------------
                                      ORCA LEAN-SCF
                              memory conserving SCF solver
-------------------------------------------------------------------------------------------

----------------------------------------D-I-I-S--------------------------------------------
Iteration    Energy (Eh)           Delta-E    RMSDP     MaxDP     DIISErr   Damp  Time(sec)
-------------------------------------------------------------------------------------------
               ***  Starting incremental Fock matrix formation  ***
    1    -441.0132996298452213     0.00e+00  3.61e-03  1.03e-01  2.57e-01  0.700   0.6
    2    -441.1940629301021204    -1.81e-01  2.37e-03  5.30e-02  9.49e-02  0.700   0.5
                               ***Turning on AO-DIIS***
    3    -441.2502288842372877    -5.62e-02  9.14e-04  1.71e-02  2.60e-02  0.700   0.5
    4    -441.2863485429111847    -3.61e-02  1.22e-03  2.10e-02  1.08e-02  0.000   0.5
    5    -441.3700523301568523    -8.37e-02  4.15e-04  9.00e-03  8.96e-03  0.000   0.5
                              *** Initializing SOSCF ***
---------------------------------------S-O-S-C-F--------------------------------------
Iteration    Energy (Eh)           Delta-E    RMSDP     MaxDP     MaxGrad    Time(sec)
--------------------------------------------------------------------------------------
    6    -441.3709750081097241    -9.23e-04  1.55e-04  3.14e-03  3.24e-03     0.5
               *** Restarting incremental Fock matrix formation ***
    7    -441.3710488344632381    -7.38e-05  1.27e-04  4.38e-03  7.58e-04     0.6
    8    -441.3710149696724443     3.39e-05  7.04e-05  3.08e-03  2.31e-03     0.5
    9    -441.3710591868477309    -4.42e-05  4.05e-05  7.28e-04  1.86e-04     0.5
   10    -441.3710574643582163     1.72e-06  2.23e-05  4.16e-04  1.96e-04     0.5
   11    -441.3710607147941687    -3.25e-06  5.71e-06  1.65e-04  2.61e-05     0.5
   12    -441.3710606630078814     5.18e-08  3.24e-06  1.10e-04  4.16e-05     0.4
   13    -441.3710607498965715    -8.69e-08  8.70e-07  2.07e-05  5.86e-06     0.4
   14    -441.3710607495527825     3.44e-10  4.88e-07  1.33e-05  7.82e-06     0.4
                 **** Energy Check signals convergence ****

               *****************************************************
               *                     SUCCESS                       *
               *           SCF CONVERGED AFTER  14 CYCLES          *
               *****************************************************

             **** ENERGY FILE WAS UPDATED (1.en.tmp) ****

----------------
TOTAL SCF ENERGY
----------------

Total Energy       :       -441.37106075423463 Eh          -12010.31716 eV

Components:
Nuclear Repulsion  :        482.76538312424071 Eh           13136.71393 eV
Electronic Energy  :       -924.13644387847535 Eh          -25147.03109 eV
One Electron Energy:      -1557.62022605744119 Eh          -42385.00116 eV
Two Electron Energy:        633.48378217896584 Eh           17237.97007 eV

Virial components:
Potential Energy   :       -880.49450894731581 Eh          -23959.47366 eV
Kinetic Energy     :        439.12344819308117 Eh           11949.15651 eV
Virial Ratio       :          2.00511840706845

DFT components:
N(Alpha)           :       35.999959851340 electrons
N(Beta)            :       35.999959851340 electrons
N(Total)           :       71.999919702681 electrons
E(X)               :      -58.279337118119 Eh       
E(C)               :       -3.115247934048 Eh       
E(XC)              :      -61.394585052168 Eh       

---------------
SCF CONVERGENCE
---------------

  Last Energy change         ...   -3.4379e-10  Tolerance :   1.0000e-08
  Last MAX-Density change    ...    1.3298e-05  Tolerance :   1.0000e-07
  Last RMS-Density change    ...    4.8799e-07  Tolerance :   5.0000e-09
  Last DIIS Error            ...    3.2429e-03  Tolerance :   5.0000e-07
  Last Orbital Gradient      ...    7.8228e-06  Tolerance :   1.0000e-05
  Last Orbital Rotation      ...    8.0705e-06  Tolerance :   1.0000e-05


----------------
ORBITAL ENERGIES
----------------

  NO   OCC          E(Eh)            E(eV) 
   0   2.0000     -18.814052      -511.9564 
   1   2.0000     -18.753550      -510.3100 
   2   2.0000     -13.987730      -380.6255 
   3   2.0000     -10.026398      -272.8322 
   4   2.0000      -9.947481      -270.6847 
   5   2.0000      -9.905693      -269.5476 
   6   2.0000      -9.904185      -269.5066 
   7   2.0000      -9.887760      -269.0596 
   8   2.0000      -9.873382      -268.6684 
   9   2.0000      -1.020641       -27.7730 
  10   2.0000      -0.931711       -25.3532 
  11   2.0000      -0.817123       -22.2351 
  12   2.0000      -0.728452       -19.8222 
  13   2.0000      -0.667572       -18.1656 
  14   2.0000      -0.606494       -16.5035 
  15   2.0000      -0.597176       -16.2500 
  16   2.0000      -0.535844       -14.5811 
  17   2.0000      -0.503016       -13.6878 
  18   2.0000      -0.448974       -12.2172 
  19   2.0000      -0.440604       -11.9895 
  20   2.0000      -0.424220       -11.5436 
  21   2.0000      -0.409034       -11.1304 
  22   2.0000      -0.389846       -10.6082 
  23   2.0000      -0.372370       -10.1327 
  24   2.0000      -0.370013       -10.0686 
  25   2.0000      -0.358733        -9.7616 
  26   2.0000      -0.340055        -9.2534 
  27   2.0000      -0.328874        -8.9491 
  28   2.0000      -0.312661        -8.5080 
  29   2.0000      -0.307760        -8.3746 
  30   2.0000      -0.281723        -7.6661 
  31   2.0000      -0.277902        -7.5621 
  32   2.0000      -0.276434        -7.5222 
  33   2.0000      -0.270065        -7.3488 
  34   2.0000      -0.223350        -6.0777 
  35   2.0000      -0.193248        -5.2585 
  36   0.0000      -0.016599        -0.4517 
  37   0.0000       0.050595         1.3768 
  38   0.0000       0.070053         1.9062 
  39   0.0000       0.087377         2.3776 
  40   0.0000       0.091255         2.4832 
  41   0.0000       0.130646         3.5550 
  42   0.0000       0.134474         3.6592 
  43   0.0000       0.137737         3.7480 
  44   0.0000       0.146333         3.9819 
  45   0.0000       0.149321         4.0632 
  46   0.0000       0.162675         4.4266 
*Only the first 10 virtual orbitals were printed.

                    ********************************
                    * MULLIKEN POPULATION ANALYSIS *
                    ********************************

-----------------------
MULLIKEN ATOMIC CHARGES
-----------------------
   0 C :   -0.044524
   1 C :    0.479998
   2 H :    0.246409
   3 H :    0.244585
   4 C :   -0.177434
   5 H :    0.125832
   6 H :    0.104094
   7 N :   -0.544892
   8 C :   -0.068330
   9 H :    0.097585
  10 H :    0.116208
  11 C :   -0.322787
  12 H :    0.145054
  13 C :   -0.319397
  14 H :    0.089446
  15 H :    0.090230
  16 H :    0.089514
  17 H :    0.103040
  18 H :    0.099774
  19 O :   -0.454270
  20 H :    0.317743
  21 O :   -0.417879
Sum of atomic charges:    0.0000000

--------------------------------
MULLIKEN REDUCED ORBITAL CHARGES
--------------------------------
  0 C s       :     3.201694  s :     3.201694
      pz      :     0.815546  p :     2.785462
      px      :     0.989535
      py      :     0.980381
      dz2     :     0.015617  d :     0.057369
      dxz     :     0.011327
      dyz     :     0.014449
      dx2y2   :     0.006671
      dxy     :     0.009304

  1 C s       :     2.990148  s :     2.990148
      pz      :     0.752784  p :     2.405656
      px      :     0.821610
      py      :     0.831262
      dz2     :     0.030970  d :     0.124199
      dxz     :     0.035593
      dyz     :     0.016693
      dx2y2   :     0.017842
      dxy     :     0.023100

  2 H s       :     0.729603  s :     0.729603
      pz      :     0.005121  p :     0.023988
      px      :     0.011622
      py      :     0.007245

  3 H s       :     0.731472  s :     0.731472
      pz      :     0.007138  p :     0.023943
      px      :     0.006023
      py      :     0.010782

  4 C s       :     3.228901  s :     3.228901
      pz      :     1.005439  p :     2.912348
      px      :     0.993971
      py      :     0.912938
      dz2     :     0.010399  d :     0.036185
      dxz     :     0.002455
      dyz     :     0.006162
      dx2y2   :     0.007938
      dxy     :     0.009231

  5 H s       :     0.863117  s :     0.863117
      pz      :     0.001788  p :     0.011050
      px      :     0.006148
      py      :     0.003115

  6 H s       :     0.884311  s :     0.884311
      pz      :     0.002827  p :     0.011595
      px      :     0.004691
      py      :     0.004078

  7 N s       :     3.586441  s :     3.586441
      pz      :     1.214479  p :     3.930015
      px      :     1.347955
      py      :     1.367581
      dz2     :     0.008761  d :     0.028435
      dxz     :     0.002514
      dyz     :     0.005737
      dx2y2   :     0.009862
      dxy     :     0.001562

  8 C s       :     3.208849  s :     3.208849
      pz      :     0.925120  p :     2.815696
      px      :     0.960137
      py      :     0.930439
      dz2     :     0.010924  d :     0.043786
      dxz     :     0.005448
      dyz     :     0.010256
      dx2y2   :     0.005577
      dxy     :     0.011581

  9 H s       :     0.890786  s :     0.890786
      pz      :     0.002698  p :     0.011630
      px      :     0.005556
      py      :     0.003376

 10 H s       :     0.872035  s :     0.872035
      pz      :     0.006507  p :     0.011757
      px      :     0.002587
      py      :     0.002664

 11 C s       :     3.243487  s :     3.243487
      pz      :     0.984316  p :     3.049392
      px      :     1.019233
      py      :     1.045843
      dz2     :     0.007228  d :     0.029907
      dxz     :     0.003231
      dyz     :     0.008192
      dx2y2   :     0.002297
      dxy     :     0.008959

 12 H s       :     0.841992  s :     0.841992
      pz      :     0.004110  p :     0.012954
      px      :     0.002803
      py      :     0.006041

 13 C s       :     3.247665  s :     3.247665
      pz      :     1.003269  p :     3.041272
      px      :     1.039375
      py      :     0.998628
      dz2     :     0.009068  d :     0.030461
      dxz     :     0.002351
      dyz     :     0.006279
      dx2y2   :     0.002594
      dxy     :     0.010168

 14 H s       :     0.898876  s :     0.898876
      pz      :     0.002555  p :     0.011678
      px      :     0.005076
      py      :     0.004047

 15 H s       :     0.898139  s :     0.898139
      pz      :     0.002918  p :     0.011631
      px      :     0.004853
      py      :     0.003861

 16 H s       :     0.899027  s :     0.899027
      pz      :     0.002572  p :     0.011458
      px      :     0.005375
      py      :     0.003511

 17 H s       :     0.885354  s :     0.885354
      pz      :     0.002603  p :     0.011606
      px      :     0.005257
      py      :     0.003745

 18 H s       :     0.888646  s :     0.888646
      pz      :     0.005797  p :     0.011580
      px      :     0.002837
      py      :     0.002946

 19 O s       :     3.824269  s :     3.824269
      pz      :     1.368641  p :     4.607291
      px      :     1.636802
      py      :     1.601847
      dz2     :     0.004975  d :     0.022710
      dxz     :     0.006899
      dyz     :     0.003627
      dx2y2   :     0.002013
      dxy     :     0.005196

 20 H s       :     0.644317  s :     0.644317
      pz      :     0.010544  p :     0.037941
      px      :     0.013585
      py      :     0.013812

 21 O s       :     3.854886  s :     3.854886
      pz      :     1.664474  p :     4.534932
      px      :     1.372728
      py      :     1.497730
      dz2     :     0.003786  d :     0.028060
      dxz     :     0.006614
      dyz     :     0.002453
      dx2y2   :     0.007901
      dxy     :     0.007306



                     *******************************
                     * LOEWDIN POPULATION ANALYSIS *
                     *******************************

----------------------
LOEWDIN ATOMIC CHARGES
----------------------
   0 C :   -0.049565
   1 C :    0.100216
   2 H :    0.127985
   3 H :    0.127777
   4 C :   -0.114359
   5 H :    0.082741
   6 H :    0.068988
   7 N :   -0.233371
   8 C :   -0.066172
   9 H :    0.068049
  10 H :    0.075186
  11 C :   -0.206222
  12 H :    0.080600
  13 C :   -0.196973
  14 H :    0.061502
  15 H :    0.062145
  16 H :    0.062825
  17 H :    0.066774
  18 H :    0.065084
  19 O :   -0.141509
  20 H :    0.181790
  21 O :   -0.223491

-------------------------------
LOEWDIN REDUCED ORBITAL CHARGES
-------------------------------
  0 C s       :     2.881797  s :     2.881797
      pz      :     0.951913  p :     3.037254
      px      :     1.045633
      py      :     1.039707
      dz2     :     0.034789  d :     0.130514
      dxz     :     0.025949
      dyz     :     0.033601
      dx2y2   :     0.015471
      dxy     :     0.020704

  1 C s       :     2.859176  s :     2.859176
      pz      :     0.889429  p :     2.743603
      px      :     0.983149
      py      :     0.871025
      dz2     :     0.074917  d :     0.297005
      dxz     :     0.090867
      dyz     :     0.037696
      dx2y2   :     0.039191
      dxy     :     0.054334

  2 H s       :     0.792794  s :     0.792794
      pz      :     0.014303  p :     0.079220
      px      :     0.044317
      py      :     0.020601

  3 H s       :     0.793337  s :     0.793337
      pz      :     0.021868  p :     0.078886
      px      :     0.016000
      py      :     0.041017

  4 C s       :     2.905813  s :     2.905813
      pz      :     1.061432  p :     3.128018
      px      :     1.063614
      py      :     1.002972
      dz2     :     0.021907  d :     0.080528
      dxz     :     0.005231
      dyz     :     0.014583
      dx2y2   :     0.017738
      dxy     :     0.021069

  5 H s       :     0.877872  s :     0.877872
      pz      :     0.005543  p :     0.039388
      px      :     0.024177
      py      :     0.009667

  6 H s       :     0.891412  s :     0.891412
      pz      :     0.008382  p :     0.039600
      px      :     0.016918
      py      :     0.014299

  7 N s       :     3.195654  s :     3.195654
      pz      :     1.256646  p :     3.979871
      px      :     1.355355
      py      :     1.367870
      dz2     :     0.019833  d :     0.057845
      dxz     :     0.006274
      dyz     :     0.012738
      dx2y2   :     0.015676
      dxy     :     0.003324

  8 C s       :     2.880171  s :     2.880171
      pz      :     1.027109  p :     3.085418
      px      :     1.035159
      py      :     1.023150
      dz2     :     0.024768  d :     0.100583
      dxz     :     0.011343
      dyz     :     0.025913
      dx2y2   :     0.012141
      dxy     :     0.026418

  9 H s       :     0.892162  s :     0.892162
      pz      :     0.007513  p :     0.039790
      px      :     0.021219
      py      :     0.011057

 10 H s       :     0.884504  s :     0.884504
      pz      :     0.025534  p :     0.040311
      px      :     0.007275
      py      :     0.007502

 11 C s       :     2.918698  s :     2.918698
      pz      :     1.051972  p :     3.223875
      px      :     1.082366
      py      :     1.089537
      dz2     :     0.016756  d :     0.063649
      dxz     :     0.006668
      dyz     :     0.017643
      dx2y2   :     0.004529
      dxy     :     0.018053

 12 H s       :     0.873962  s :     0.873962
      pz      :     0.015836  p :     0.045438
      px      :     0.007822
      py      :     0.021780

 13 C s       :     2.919792  s :     2.919792
      pz      :     1.062368  p :     3.212846
      px      :     1.089256
      py      :     1.061222
      dz2     :     0.018305  d :     0.064335
      dxz     :     0.004557
      dyz     :     0.015188
      dx2y2   :     0.005907
      dxy     :     0.020378

 14 H s       :     0.898974  s :     0.898974
      pz      :     0.007386  p :     0.039524
      px      :     0.018767
      py      :     0.013371

 15 H s       :     0.898242  s :     0.898242
      pz      :     0.009021  p :     0.039613
      px      :     0.017708
      py      :     0.012883

 16 H s       :     0.898966  s :     0.898966
      pz      :     0.007094  p :     0.038209
      px      :     0.019593
      py      :     0.011522

 17 H s       :     0.893631  s :     0.893631
      pz      :     0.007160  p :     0.039595
      px      :     0.019947
      py      :     0.012488

 18 H s       :     0.895458  s :     0.895458
      pz      :     0.022314  p :     0.039458
      px      :     0.007870
      py      :     0.009274

 19 O s       :     3.470095  s :     3.470095
      pz      :     1.401890  p :     4.620455
      px      :     1.634639
      py      :     1.583926
      dz2     :     0.013582  d :     0.050959
      dxz     :     0.015448
      dyz     :     0.010795
      dx2y2   :     0.002560
      dxy     :     0.008575

 20 H s       :     0.702427  s :     0.702427
      pz      :     0.030640  p :     0.115783
      px      :     0.042982
      py      :     0.042162

 21 O s       :     3.554562  s :     3.554562
      pz      :     1.659589  p :     4.610896
      px      :     1.454345
      py      :     1.496962
      dz2     :     0.008223  d :     0.058032
      dxz     :     0.014914
      dyz     :     0.004087
      dx2y2   :     0.015479
      dxy     :     0.015329



                      *****************************
                      * MAYER POPULATION ANALYSIS *
                      *****************************

  NA   - Mulliken gross atomic population
  ZA   - Total nuclear charge
  QA   - Mulliken gross atomic charge
  VA   - Mayer's total valence
  BVA  - Mayer's bonded valence
  FA   - Mayer's free valence

  ATOM       NA         ZA         QA         VA         BVA        FA
  0 C      6.0445     6.0000    -0.0445     3.8614     3.8614     0.0000
  1 C      5.5200     6.0000     0.4800     3.9606     3.9606    -0.0000
  2 H      0.7536     1.0000     0.2464     0.9292     0.9292     0.0000
  3 H      0.7554     1.0000     0.2446     0.9227     0.9227    -0.0000
  4 C      6.1774     6.0000    -0.1774     3.8611     3.8611     0.0000
  5 H      0.8742     1.0000     0.1258     0.9514     0.9514    -0.0000
  6 H      0.8959     1.0000     0.1041     0.9574     0.9574    -0.0000
  7 N      7.5449     7.0000    -0.5449     2.9340     2.9340    -0.0000
  8 C      6.0683     6.0000    -0.0683     3.9406     3.9406    -0.0000
  9 H      0.9024     1.0000     0.0976     0.9599     0.9599     0.0000
 10 H      0.8838     1.0000     0.1162     0.9598     0.9598    -0.0000
 11 C      6.3228     6.0000    -0.3228     3.8633     3.8633     0.0000
 12 H      0.8549     1.0000     0.1451     0.9725     0.9725     0.0000
 13 C      6.3194     6.0000    -0.3194     3.8850     3.8850     0.0000
 14 H      0.9106     1.0000     0.0894     0.9618     0.9618    -0.0000
 15 H      0.9098     1.0000     0.0902     0.9576     0.9576    -0.0000
 16 H      0.9105     1.0000     0.0895     0.9513     0.9513    -0.0000
 17 H      0.8970     1.0000     0.1030     0.9584     0.9584    -0.0000
 18 H      0.9002     1.0000     0.0998     0.9567     0.9567     0.0000
 19 O      8.4543     8.0000    -0.4543     2.0295     2.0295     0.0000
 20 H      0.6823     1.0000     0.3177     0.9178     0.9178    -0.0000
 21 O      8.4179     8.0000    -0.4179     2.1162     2.1162     0.0000

  Mayer bond orders larger than 0.100000
B(  0-C ,  1-C ) :   0.8952 B(  0-C ,  4-C ) :   0.9748 B(  0-C ,  5-H ) :   0.9221 
B(  0-C ,  7-N ) :   1.0456 B(  1-C , 19-O ) :   1.0784 B(  1-C , 21-O ) :   1.9322 
B(  2-H ,  7-N ) :   0.8999 B(  3-H ,  7-N ) :   0.9061 B(  4-C ,  8-C ) :   0.9936 
B(  4-C ,  9-H ) :   0.9388 B(  4-C , 10-H ) :   0.9380 B(  6-H , 13-C ) :   0.9591 
B(  8-C , 11-C ) :   1.0152 B(  8-C , 13-C ) :   1.0061 B(  8-C , 16-H ) :   0.9421 
B( 11-C , 12-H ) :   0.9329 B( 11-C , 14-H ) :   0.9605 B( 11-C , 15-H ) :   0.9582 
B( 13-C , 17-H ) :   0.9590 B( 13-C , 18-H ) :   0.9594 B( 19-O , 20-H ) :   0.8514 


-------
TIMINGS
-------

Total SCF time: 0 days 0 hours 0 min 7 sec 

Total time                  ....       7.421 sec
Sum of individual times     ....       6.947 sec  ( 93.6%)

SCF preparation             ....       0.036 sec  (  0.5%)
Fock matrix formation       ....       6.847 sec  ( 92.3%)
  Startup                   ....       0.001 sec  (  0.0% of F)
  Split-RI-J                ....       2.387 sec  ( 34.9% of F)
  XC integration            ....       4.856 sec  ( 70.9% of F)
    XC Preparation          ....       0.000 sec  (  0.0% of XC)
    Basis function eval.    ....       1.729 sec  ( 35.6% of XC)
    Density eval.           ....       1.082 sec  ( 22.3% of XC)
    XC-Functional eval.     ....       0.876 sec  ( 18.0% of XC)
    XC-Potential eval.      ....       1.039 sec  ( 21.4% of XC)
Diagonalization             ....       0.000 sec  (  0.0%)
Density matrix formation    ....       0.005 sec  (  0.1%)
Total Energy calculation    ....       0.001 sec  (  0.0%)
Population analysis         ....       0.003 sec  (  0.0%)
Orbital Transformation      ....       0.006 sec  (  0.1%)
Orbital Orthonormalization  ....       0.000 sec  (  0.0%)
DIIS solution               ....       0.028 sec  (  0.4%)
SOSCF solution              ....       0.021 sec  (  0.3%)
Finished LeanSCF after   7.4 sec

Maximum memory used throughout the entire LEANSCF-calculation: 21.4 MB



-------------------------------------------------------------------------------
                          DFT DISPERSION CORRECTION                            
-------------------------------------------------------------------------------
Active option DFTDOPT                   ...         2   
Final C6-coefficient scaling factor     ...     1.250
Final VDW-radii scaling factor          ...     1.100
Damping factor alpha                    ...    20.000
-------------------------   ----------------
Dispersion correction           -0.033079503
-------------------------   ----------------


-------------------------   --------------------
FINAL SINGLE POINT ENERGY      -441.404140256896
-------------------------   --------------------

------------------------------------------------------------------------------
                         ORCA SCF GRADIENT CALCULATION
------------------------------------------------------------------------------

Nuc. rep. gradient        (SHARK) ... done (  0.0 sec)
HCore & Overlap gradient  (SHARK) ... done (  0.1 sec)
Split-RIJ-J gradient      (SHARK) ... done (  0.6 sec)
XC gradient                       ... done (  2.7 sec)
Dispersion correction             ... done (  0.0 sec)

-------------------
DISPERSION GRADIENT
-------------------

   1   C   :    0.001088801    0.000395975    0.000591113
   2   C   :   -0.000422268    0.000268828    0.000227725
   3   H   :    0.000368888    0.000532962   -0.001095897
   4   H   :    0.000213556   -0.000038301   -0.000826083
   5   C   :   -0.000724839    0.000880549   -0.000121749
   6   H   :    0.000243327    0.000674414   -0.000060597
   7   H   :    0.000568615    0.000008925    0.001154885
   8   N   :   -0.000079952    0.000571100    0.000211247
   9   C   :    0.000559304   -0.001597482    0.000278681
  10   H   :    0.000057675    0.000210877    0.001088759
  11   H   :    0.000745067    0.000025299   -0.000478324
  12   C   :   -0.000667398   -0.000298629   -0.000199412
  13   H   :   -0.000111236   -0.001074987   -0.000317490
  14   C   :   -0.000510708    0.000120490    0.000328686
  15   H   :   -0.000877271   -0.000034699   -0.001270842
  16   H   :    0.000883118    0.000372662   -0.000810371
  17   H   :   -0.000496390   -0.000372440    0.000131161
  18   H   :   -0.001167168   -0.000399892    0.000876884
  19   H   :   -0.000218915   -0.001329674   -0.000341226
  20   O   :    0.000344936    0.000476642    0.000143883
  21   H   :    0.000296675    0.000091056   -0.000279930
  22   O   :   -0.000093815    0.000516325    0.000768896

Difference to translation invariance:
           :    0.0000000000   -0.0000000000   -0.0000000000

Difference to rotation invariance:
           :   -0.0000000000   -0.0000000000   -0.0000000000

Norm of the Dispersion gradient    ...    0.0050392799
RMS gradient                       ...    0.0006202925
MAX gradient                       ...    0.0015974816

------------------
CARTESIAN GRADIENT
------------------

   1   C   :   -0.002946345   -0.000484603   -0.000548397
   2   C   :    0.007399643    0.001356887    0.002633240
   3   H   :   -0.003617227   -0.001059901   -0.000583528
   4   H   :   -0.002239999   -0.003538340    0.000566082
   5   C   :    0.008761110   -0.002574086    0.000904984
   6   H   :    0.003923040   -0.000634707   -0.001096405
   7   H   :    0.005931521    0.006265347    0.001753611
   8   N   :    0.005489039    0.003308092    0.007681666
   9   C   :   -0.004082707    0.003877850   -0.000016030
  10   H   :   -0.006932179    0.003006832   -0.000363499
  11   H   :   -0.001156704   -0.000008017   -0.005500734
  12   C   :    0.005410362   -0.002350806    0.001258781
  13   H   :   -0.001221312   -0.003518160    0.005573809
  14   C   :    0.002716886   -0.003699246    0.001399236
  15   H   :   -0.007759004    0.005479323    0.000197114
  16   H   :    0.006401273    0.006529164    0.002335519
  17   H   :    0.004385337   -0.003805771   -0.000350843
  18   H   :   -0.007366112    0.005115135   -0.000554561
  19   H   :    0.001291527   -0.002212979   -0.008540657
  20   O   :    0.019767106    0.000082388   -0.021284107
  21   H   :   -0.005516088   -0.001384873    0.002922207
  22   O   :   -0.028639168   -0.009749528    0.011612512

Difference to translation invariance:
           :    0.0000000000   -0.0000000000   -0.0000000000

Difference to rotation invariance:
           :    0.0002888124    0.0006076519    0.0004329367

Norm of the Cartesian gradient     ...    0.0540089684
RMS gradient                       ...    0.0066480444
MAX gradient                       ...    0.0286391681

-------
TIMINGS
-------

Total SCF gradient time     ....        3.490 sec

Densities                   ....       0.000 sec  (  0.0%)
One electron gradient       ....       0.136 sec  (  3.9%)
RI-J Coulomb gradient       ....       0.623 sec  ( 17.8%)
XC gradient                 ....       2.731 sec  ( 78.2%)

Maximum memory used throughout the entire SCFGRAD-calculation: 27.4 MB
------------------------------------------------------------------------------
                         ORCA GEOMETRY RELAXATION STEP
------------------------------------------------------------------------------

Reading the OPT-File                    .... done
Getting information on internals        .... done
Copying old internal coords+grads       .... done
Making the new internal coordinates     .... (2022 redundants) done
Validating the new internal coordinates .... (2022 redundants) done
Calculating the B-matrix                .... done
Calculating the G,G- and P matrices     .... done
Transforming gradient to internals      .... done
Projecting the internal gradient        .... done
Number of atoms                         ....  22
Number of internal coordinates          ....  94
Current Energy                          ....  -441.404140257 Eh
Current gradient norm                   ....     0.054008968 Eh/bohr
Maximum allowed component of the step   ....  0.300
Current trust radius                    ....  0.300
Evaluating the initial hessian          ....  (Almloef) done
Projecting the Hessian                  .... done
Forming the augmented Hessian           .... done
Diagonalizing the augmented Hessian     .... done
Last element of RFO vector              ....  0.976366035
Lowest eigenvalues of augmented Hessian:
 -0.007828859  0.010548681  0.010771211  0.011151017  0.011277601
Length of the computed step             ....  0.221354991
The final length of the internal step   ....  0.221354991
Converting the step to Cartesian space:
 Initial RMS(Int)=    0.0228310241
Transforming coordinates:
 Iter   0:  RMS(Cart)=    0.1018978360 RMS(Int)=    0.6465927661
 Iter   5:  RMS(Cart)=    0.0000000414 RMS(Int)=    0.0000000265
done
Storing new coordinates                 .... done

                                .--------------------.
          ----------------------|Geometry convergence|-------------------------
          Item                value                   Tolerance       Converged
          ---------------------------------------------------------------------
          RMS gradient        0.0060406009            0.0001000000      NO
          MAX gradient        0.0323738760            0.0003000000      NO
          RMS step            0.0228310241            0.0020000000      NO
          MAX step            0.0610019348            0.0040000000      NO
          -------------------------------------------------------------------------
          ........................................................
          Max(Bonds)      0.0171      Max(Angles)    2.45
          Max(Dihed)        3.50      Max(Improp)    0.00
          ---------------------------------------------------------------------

The optimization has not yet converged - more geometry cycles are needed


    ---------------------------------------------------------------------------
                         Redundant Internal Coordinates
                            (Angstroem and degrees)

        Definition                    Value    dE/dq     Step     New-Value
    ----------------------------------------------------------------------------
     1. B(C   1,C   0)                1.5256 -0.012289  0.0168    1.5424   
     2. B(C   4,C   0)                1.5388 -0.011619  0.0166    1.5554   
     3. B(H   5,C   0)                1.0964 -0.003905  0.0057    1.1021   
     4. B(N   7,H   3)                1.0149 -0.003391  0.0041    1.0191   
     5. B(N   7,C   0)                1.4491 -0.007319  0.0085    1.4576   
     6. B(N   7,H   2)                1.0159 -0.003026  0.0037    1.0196   
     7. B(C   8,C   4)                1.5333 -0.012158  0.0171    1.5503   
     8. B(H   9,C   4)                1.0922 -0.007378  0.0107    1.1029   
     9. B(H  10,C   4)                1.0919 -0.005301  0.0077    1.0996   
    10. B(C  11,C   8)                1.5252 -0.010449  0.0142    1.5395   
    11. B(H  12,C  11)                1.0854 -0.006428  0.0091    1.0944   
    12. B(C  13,C   8)                1.5283 -0.008246  0.0114    1.5397   
    13. B(C  13,H   6)                1.0874 -0.008717  0.0124    1.0998   
    14. B(H  14,C  11)                1.0879 -0.009495  0.0136    1.1015   
    15. B(H  15,C  11)                1.0876 -0.009291  0.0132    1.1009   
    16. B(H  16,C   8)                1.0953 -0.005732  0.0084    1.1037   
    17. B(H  17,C  13)                1.0880 -0.008987  0.0128    1.1009   
    18. B(H  18,C  13)                1.0879 -0.008840  0.0126    1.1005   
    19. B(O  19,C   1)                1.3379 -0.021976  0.0170    1.3548   
    20. B(H  20,O  19)                0.9708 -0.002954  0.0031    0.9739   
    21. B(O  21,C   1)                1.2031 -0.032374  0.0153    1.2184   
    22. A(C   4,C   0,N   7)          111.88 -0.003136    0.90    112.77   
    23. A(C   1,C   0,H   5)          107.61  0.000201   -0.49    107.11   
    24. A(H   5,C   0,N   7)          108.56  0.000476   -0.24    108.32   
    25. A(C   4,C   0,H   5)          108.75  0.002101   -0.69    108.06   
    26. A(C   1,C   0,N   7)          111.63  0.001383    0.02    111.66   
    27. A(C   1,C   0,C   4)          108.29 -0.000861    0.43    108.71   
    28. A(C   0,C   1,O  21)          124.36 -0.001427    0.22    124.58   
    29. A(C   0,C   1,O  19)          112.92  0.005209   -0.69    112.23   
    30. A(O  19,C   1,O  21)          122.72 -0.003784    0.47    123.20   
    31. A(H   9,C   4,H  10)          108.26  0.001424   -1.09    107.17   
    32. A(C   0,C   4,H  10)          107.60  0.004449   -0.77    106.83   
    33. A(C   8,C   4,H   9)          109.47  0.002718   -0.00    109.46   
    34. A(C   0,C   4,H   9)          108.79  0.003613   -0.13    108.66   
    35. A(C   0,C   4,C   8)          113.96 -0.013212    2.45    116.41   
    36. A(C   8,C   4,H  10)          108.60  0.001615   -0.64    107.97   
    37. A(C   0,N   7,H   2)          109.32  0.001781   -0.56    108.77   
    38. A(H   2,N   7,H   3)          106.88  0.000958   -0.78    106.10   
    39. A(C   0,N   7,H   3)          110.08  0.001097   -0.44    109.64   
    40. A(C  13,C   8,H  16)          108.41 -0.000599   -0.35    108.06   
    41. A(C   4,C   8,H  16)          108.24  0.002172   -0.56    107.68   
    42. A(C  11,C   8,H  16)          108.68  0.000591   -0.25    108.42   
    43. A(C  11,C   8,C  13)          110.17  0.003077   -0.46    109.71   
    44. A(C   4,C   8,C  13)          109.53  0.002796   -0.38    109.15   
    45. A(C   4,C   8,C  11)          111.73 -0.007897    1.94    113.66   
    46. A(H  14,C  11,H  15)          108.33  0.002620   -0.50    107.84   
    47. A(H  12,C  11,H  15)          109.20 -0.001232    0.24    109.44   
    48. A(C   8,C  11,H  15)          110.30 -0.000174    0.03    110.33   
    49. A(H  12,C  11,H  14)          108.60  0.001081   -0.19    108.41   
    50. A(C   8,C  11,H  14)          110.20  0.001776   -0.29    109.90   
    51. A(C   8,C  11,H  12)          110.16 -0.003966    0.69    110.86   
    52. A(H   6,C  13,H  18)          108.32  0.000172    0.01    108.34   
    53. A(C   8,C  13,H  17)          110.37  0.000417   -0.08    110.29   
    54. A(H   6,C  13,H  17)          108.29  0.000950   -0.25    108.04   
    55. A(H   6,C  13,C   8)          110.33 -0.001658    0.28    110.61   
    56. A(H  17,C  13,H  18)          108.43  0.001459   -0.23    108.19   
    57. A(C   8,C  13,H  18)          111.01 -0.001240    0.26    111.27   
    58. A(C   1,O  19,H  20)          110.47  0.010404   -1.56    108.90   
    59. D(O  19,C   1,C   0,H   5)     48.72  0.000398   -0.68     48.04   
    60. D(O  21,C   1,C   0,H   5)   -131.19  0.001723   -2.46   -133.65   
    61. D(O  21,C   1,C   0,C   4)    111.43 -0.000406   -1.61    109.82   
    62. D(O  19,C   1,C   0,N   7)    167.74  0.001913   -1.27    166.47   
    63. D(O  19,C   1,C   0,C   4)    -68.67 -0.001731    0.17    -68.49   
    64. D(C   8,C   4,C   0,C   1)    164.58  0.002645   -3.22    161.36   
    65. D(C   8,C   4,C   0,H   5)     47.93  0.001742   -2.50     45.43   
    66. D(H   9,C   4,C   0,H   5)    170.37 -0.001123   -0.92    169.45   
    67. D(H   9,C   4,C   0,N   7)     50.47 -0.001147   -0.72     49.74   
    68. D(C   8,C   4,C   0,N   7)    -71.98  0.001718   -2.31    -74.28   
    69. D(H   9,C   4,C   0,C   1)    -72.98 -0.000220   -1.64    -74.62   
    70. D(H   2,N   7,C   0,H   5)    176.51  0.001196   -0.49    176.02   
    71. D(H   2,N   7,C   0,C   4)    -63.48  0.002178   -0.95    -64.43   
    72. D(H   3,N   7,C   0,C   1)    -59.06 -0.003029    1.78    -57.29   
    73. D(H   2,N   7,C   0,C   1)     58.05 -0.000178    0.25     58.31   
    74. D(H   3,N   7,C   0,C   4)    179.40 -0.000674    0.57    179.98   
    75. D(C  13,C   8,C   4,H  10)    -45.11 -0.002568    3.50    -41.62   
    76. D(C  13,C   8,C   4,H   9)     72.90  0.001628    1.81     74.71   
    77. D(C  13,C   8,C   4,C   0)   -165.03 -0.000849    3.35   -161.68   
    78. D(C  11,C   8,C   4,H  10)   -167.47 -0.003112    3.04   -164.43   
    79. D(C  11,C   8,C   4,H   9)    -49.46  0.001085    1.36    -48.10   
    80. D(C  11,C   8,C   4,C   0)     72.61 -0.001393    2.89     75.50   
    81. D(H  14,C  11,C   8,H  16)   -176.57 -0.000619   -0.99   -177.56   
    82. D(H  14,C  11,C   8,C  13)    -57.92  0.000812   -1.84    -59.76   
    83. D(H  14,C  11,C   8,C   4)     64.07  0.001142   -1.32     62.74   
    84. D(H  12,C  11,C   8,H  16)     63.62 -0.000569   -1.01     62.61   
    85. D(H  12,C  11,C   8,C  13)   -177.74  0.000862   -1.86   -179.59   
    86. D(H  12,C  11,C   8,C   4)    -55.75  0.001192   -1.34    -57.09   
    87. D(H   6,C  13,C   8,H  16)     62.37 -0.000697    0.00     62.38   
    88. D(H   6,C  13,C   8,C  11)    -56.43 -0.002844    0.79    -55.64   
    89. D(H   6,C  13,C   8,C   4)   -179.71  0.003147   -1.08   -180.79   
    90. D(H  17,C  13,C   8,H  16)   -177.98 -0.000308   -0.18   -178.16   
[...]
      py      :     0.005401

 13 C s       :     3.260906  s :     3.260906
      pz      :     0.996466  p :     3.030863
      px      :     1.036678
      py      :     0.997719
      dz2     :     0.008358  d :     0.029668
      dxz     :     0.002579
      dyz     :     0.006530
      dx2y2   :     0.002259
      dxy     :     0.009943

 14 H s       :     0.898230  s :     0.898230
      pz      :     0.002408  p :     0.011297
      px      :     0.005171
      py      :     0.003718

 15 H s       :     0.895649  s :     0.895649
      pz      :     0.002669  p :     0.011277
      px      :     0.004581
      py      :     0.004027

 16 H s       :     0.897034  s :     0.897034
      pz      :     0.002494  p :     0.011277
      px      :     0.005297
      py      :     0.003486

 17 H s       :     0.885702  s :     0.885702
      pz      :     0.002492  p :     0.011264
      px      :     0.005110
      py      :     0.003662

 18 H s       :     0.888009  s :     0.888009
      pz      :     0.005609  p :     0.011253
      px      :     0.002741
      py      :     0.002904

 19 O s       :     3.842006  s :     3.842006
      pz      :     1.376004  p :     4.596962
      px      :     1.603494
      py      :     1.617465
      dz2     :     0.005190  d :     0.023071
      dxz     :     0.006955
      dyz     :     0.003239
      dx2y2   :     0.002283
      dxy     :     0.005403

 20 H s       :     0.643447  s :     0.643447
      pz      :     0.009789  p :     0.037449
      px      :     0.014752
      py      :     0.012907

 21 O s       :     3.869473  s :     3.869473
      pz      :     1.661027  p :     4.526895
      px      :     1.364845
      py      :     1.501023
      dz2     :     0.003636  d :     0.027339
      dxz     :     0.006758
      dyz     :     0.002069
      dx2y2   :     0.007511
      dxy     :     0.007367



                     *******************************
                     * LOEWDIN POPULATION ANALYSIS *
                     *******************************

----------------------
LOEWDIN ATOMIC CHARGES
----------------------
   0 C :   -0.048816
   1 C :    0.123127
   2 H :    0.129605
   3 H :    0.129341
   4 C :   -0.116157
   5 H :    0.083107
   6 H :    0.069750
   7 N :   -0.243936
   8 C :   -0.064322
   9 H :    0.068048
  10 H :    0.076359
  11 C :   -0.205646
  12 H :    0.081226
  13 C :   -0.199397
  14 H :    0.062616
  15 H :    0.064615
  16 H :    0.064468
  17 H :    0.067563
  18 H :    0.066354
  19 O :   -0.160242
  20 H :    0.183318
  21 O :   -0.230981

-------------------------------
LOEWDIN REDUCED ORBITAL CHARGES
-------------------------------
  0 C s       :     2.892410  s :     2.892410
      pz      :     0.946469  p :     3.031094
      px      :     1.045300
      py      :     1.039326
      dz2     :     0.034945  d :     0.125311
      dxz     :     0.025364
      dyz     :     0.030275
      dx2y2   :     0.014478
      dxy     :     0.020249

  1 C s       :     2.875855  s :     2.875855
      pz      :     0.880398  p :     2.724096
      px      :     0.984568
      py      :     0.859131
      dz2     :     0.068389  d :     0.276921
      dxz     :     0.086640
      dyz     :     0.032808
      dx2y2   :     0.037367
      dxy     :     0.051716

  2 H s       :     0.792878  s :     0.792878
      pz      :     0.014351  p :     0.077517
      px      :     0.043917
      py      :     0.019249

  3 H s       :     0.793563  s :     0.793563
      pz      :     0.019641  p :     0.077097
      px      :     0.015986
      py      :     0.041470

  4 C s       :     2.916155  s :     2.916155
      pz      :     1.061638  p :     3.122364
      px      :     1.062333
      py      :     0.998393
      dz2     :     0.021578  d :     0.077639
      dxz     :     0.004777
      dyz     :     0.013187
      dx2y2   :     0.017883
      dxy     :     0.020214

  5 H s       :     0.878092  s :     0.878092
      pz      :     0.005499  p :     0.038801
      px      :     0.023758
      py      :     0.009545

  6 H s       :     0.892118  s :     0.892118
      pz      :     0.007778  p :     0.038132
      px      :     0.016377
      py      :     0.013977

  7 N s       :     3.219177  s :     3.219177
      pz      :     1.256311  p :     3.967410
      px      :     1.371454
      py      :     1.339644
      dz2     :     0.021069  d :     0.057349
      dxz     :     0.005706
      dyz     :     0.010853
      dx2y2   :     0.016567
      dxy     :     0.003155

  8 C s       :     2.890785  s :     2.890785
      pz      :     1.022213  p :     3.077568
      px      :     1.035259
      py      :     1.020096
      dz2     :     0.022847  d :     0.095968
      dxz     :     0.010965
      dyz     :     0.025610
      dx2y2   :     0.010826
      dxy     :     0.025720

  9 H s       :     0.893517  s :     0.893517
      pz      :     0.007157  p :     0.038435
      px      :     0.021064
      py      :     0.010214

 10 H s       :     0.884350  s :     0.884350
      pz      :     0.025322  p :     0.039291
      px      :     0.007005
      py      :     0.006965

 11 C s       :     2.930222  s :     2.930222
      pz      :     1.051046  p :     3.214100
      px      :     1.080848
      py      :     1.082206
      dz2     :     0.016179  d :     0.061324
      dxz     :     0.005489
      dyz     :     0.017613
      dx2y2   :     0.004303
      dxy     :     0.017740

 12 H s       :     0.876530  s :     0.876530
      pz      :     0.016534  p :     0.042243
      px      :     0.006971
      py      :     0.018738

 13 C s       :     2.931495  s :     2.931495
      pz      :     1.057859  p :     3.205850
      px      :     1.087621
      py      :     1.060370
      dz2     :     0.016740  d :     0.062053
      dxz     :     0.005007
      dyz     :     0.015505
      dx2y2   :     0.005004
      dxy     :     0.019797

 14 H s       :     0.899602  s :     0.899602
      pz      :     0.006802  p :     0.037782
      px      :     0.019101
      py      :     0.011878

 15 H s       :     0.897380  s :     0.897380
      pz      :     0.008008  p :     0.038005
      px      :     0.016318
      py      :     0.013679

 16 H s       :     0.898255  s :     0.898255
      pz      :     0.006740  p :     0.037276
      px      :     0.019171
      py      :     0.011365

 17 H s       :     0.894412  s :     0.894412
      pz      :     0.006779  p :     0.038026
      px      :     0.019128
      py      :     0.012118

 18 H s       :     0.895643  s :     0.895643
      pz      :     0.021308  p :     0.038003
      px      :     0.007541
      py      :     0.009154

 19 O s       :     3.497169  s :     3.497169
      pz      :     1.408343  p :     4.614498
      px      :     1.606788
      py      :     1.599367
      dz2     :     0.013158  d :     0.048574
      dxz     :     0.014681
      dyz     :     0.009242
      dx2y2   :     0.002744
      dxy     :     0.008750

 20 H s       :     0.702612  s :     0.702612
      pz      :     0.028122  p :     0.114070
      px      :     0.046793
      py      :     0.039155

 21 O s       :     3.568881  s :     3.568881
      pz      :     1.657947  p :     4.606389
      px      :     1.451385
      py      :     1.497057
      dz2     :     0.007759  d :     0.055711
      dxz     :     0.014693
      dyz     :     0.003332
      dx2y2   :     0.015661
      dxy     :     0.014266



                      *****************************
                      * MAYER POPULATION ANALYSIS *
                      *****************************

  NA   - Mulliken gross atomic population
  ZA   - Total nuclear charge
  QA   - Mulliken gross atomic charge
  VA   - Mayer's total valence
  BVA  - Mayer's bonded valence
  FA   - Mayer's free valence

  ATOM       NA         ZA         QA         VA         BVA        FA
  0 C      6.0450     6.0000    -0.0450     3.8606     3.8606     0.0000
  1 C      5.5148     6.0000     0.4852     3.9245     3.9245    -0.0000
  2 H      0.7543     1.0000     0.2457     0.9277     0.9277    -0.0000
  3 H      0.7563     1.0000     0.2437     0.9209     0.9209    -0.0000
  4 C      6.1794     6.0000    -0.1794     3.8573     3.8573     0.0000
  5 H      0.8725     1.0000     0.1275     0.9506     0.9506     0.0000
  6 H      0.8957     1.0000     0.1043     0.9580     0.9580     0.0000
  7 N      7.5437     7.0000    -0.5437     2.9227     2.9227     0.0000
  8 C      6.0612     6.0000    -0.0612     3.9247     3.9247     0.0000
  9 H      0.9024     1.0000     0.0976     0.9595     0.9595     0.0000
 10 H      0.8840     1.0000     0.1160     0.9591     0.9591     0.0000
 11 C      6.3229     6.0000    -0.3229     3.8653     3.8653     0.0000
 12 H      0.8587     1.0000     0.1413     0.9705     0.9705     0.0000
 13 C      6.3214     6.0000    -0.3214     3.8809     3.8809     0.0000
 14 H      0.9095     1.0000     0.0905     0.9613     0.9613     0.0000
 15 H      0.9069     1.0000     0.0931     0.9583     0.9583     0.0000
 16 H      0.9083     1.0000     0.0917     0.9517     0.9517     0.0000
 17 H      0.8970     1.0000     0.1030     0.9581     0.9581     0.0000
 18 H      0.8993     1.0000     0.1007     0.9575     0.9575    -0.0000
 19 O      8.4620     8.0000    -0.4620     2.0247     2.0247     0.0000
 20 H      0.6809     1.0000     0.3191     0.9168     0.9168     0.0000
 21 O      8.4237     8.0000    -0.4237     2.1079     2.1079     0.0000

  Mayer bond orders larger than 0.100000
B(  0-C ,  1-C ) :   0.8919 B(  0-C ,  4-C ) :   0.9749 B(  0-C ,  5-H ) :   0.9211 
B(  0-C ,  7-N ) :   1.0436 B(  1-C , 19-O ) :   1.0631 B(  1-C , 21-O ) :   1.9123 
B(  2-H ,  7-N ) :   0.8988 B(  3-H ,  7-N ) :   0.9053 B(  4-C ,  8-C ) :   0.9868 
B(  4-C ,  9-H ) :   0.9385 B(  4-C , 10-H ) :   0.9369 B(  6-H , 13-C ) :   0.9580 
B(  8-C , 11-C ) :   1.0096 B(  8-C , 13-C ) :   1.0010 B(  8-C , 16-H ) :   0.9411 
B( 11-C , 12-H ) :   0.9389 B( 11-C , 14-H ) :   0.9594 B( 11-C , 15-H ) :   0.9574 
B( 13-C , 17-H ) :   0.9584 B( 13-C , 18-H ) :   0.9583 B( 19-O , 20-H ) :   0.8522 


-------
TIMINGS
-------

Total SCF time: 0 days 0 hours 0 min 3 sec 

Total time                  ....       3.316 sec
Sum of individual times     ....       2.851 sec  ( 86.0%)

SCF preparation             ....       0.031 sec  (  0.9%)
Fock matrix formation       ....       2.785 sec  ( 84.0%)
  Startup                   ....       0.001 sec  (  0.0% of F)
  Split-RI-J                ....       1.038 sec  ( 37.3% of F)
  XC integration            ....       2.144 sec  ( 77.0% of F)
    XC Preparation          ....       0.000 sec  (  0.0% of XC)
    Basis function eval.    ....       0.798 sec  ( 37.2% of XC)
    Density eval.           ....       0.487 sec  ( 22.7% of XC)
    XC-Functional eval.     ....       0.408 sec  ( 19.1% of XC)
    XC-Potential eval.      ....       0.391 sec  ( 18.3% of XC)
Diagonalization             ....       0.000 sec  (  0.0%)
Density matrix formation    ....       0.002 sec  (  0.1%)
Total Energy calculation    ....       0.000 sec  (  0.0%)
Population analysis         ....       0.011 sec  (  0.3%)
Orbital Transformation      ....       0.003 sec  (  0.1%)
Orbital Orthonormalization  ....       0.000 sec  (  0.0%)
DIIS solution               ....       0.004 sec  (  0.1%)
SOSCF solution              ....       0.014 sec  (  0.4%)
Finished LeanSCF after   3.3 sec

Maximum memory used throughout the entire LEANSCF-calculation: 21.7 MB



-------------------------------------------------------------------------------
                          DFT DISPERSION CORRECTION                            
-------------------------------------------------------------------------------
Active option DFTDOPT                   ...         2   
Final C6-coefficient scaling factor     ...     1.250
Final VDW-radii scaling factor          ...     1.100
Damping factor alpha                    ...    20.000
-------------------------   ----------------
Dispersion correction           -0.032438078
-------------------------   ----------------


-------------------------   --------------------
FINAL SINGLE POINT ENERGY      -441.408542801040
-------------------------   --------------------

                                *** OPTIMIZATION RUN DONE ***


------------------------------------------------------------------------------
                              ORCA PROPERTY CALCULATIONS
------------------------------------------------------------------------------

GBWName                                 ... 1.gbw
Number of atoms                         ...     22
Number of basis functions               ...    191
Max core memory                         ...   4096 MB

Electric properties:
Dipole moment                           ... YES
Quadrupole moment                       ...  NO
Static polarizability (Dipole/Dipole)   ...  NO
Static polarizability (Dipole/Quad.)    ...  NO
Static polarizability (Quad./Quad.)     ...  NO
Static polarizability (Velocity)        ...  NO
Static hyperpolarizability              ...  NO

Atomic electric properties:
Dipole moment                           ...  NO
Quadrupole moment                       ...  NO
Static polarizability                   ...  NO

Choice of electric origin               ... Center of mass
Position of electric origin             ...   -17.392277    10.917119    -3.308777

General magnetic properties:
Magnetizability                         ...  NO

EPR properties:
g-Tensor (aka g-matrix)                 ...  NO
Zero-Field splitting spin-orbit         ...  NO
Zero-field splitting spin-spin          ...  NO
Hyperfine couplings                     ...  NO (   0 nuclei)
Quadrupole couplings                    ...  NO (   0 nuclei)
Contact density                         ...  NO (   0 nuclei)

NMR properties:
Chemical shifts                         ...  NO (   0 nuclei)
Spin-rotation constants                 ...  NO (   0 nuclei)
Spin-spin couplings                     ...  NO (   0 nuclei,    0 pairs)

Choice of magnetic origin               ... GIAO
Position of magnetic origin             ...     0.000000     0.000000     0.000000

Properties with geometric perturbations:
SCF Hessian                             ...  NO
IR spectrum                             ...  NO
VCD spectrum                            ...  NO
X-ray spectroscopy properties:
SCF XES/XAS/RIXS spectra                ...  NO

SCF SOC stabilization energy            ...  NO
Diagonal Born-Oppenheimer correction    ...  NO

-------------
DIPOLE MOMENT
-------------

Method             : SCF
Type of density    : Electron Density
Multiplicity       :   1
Irrep              :   0
Energy             :  -441.3761047235340129 Eh
Basis              : AO
                                X                 Y                 Z
Electronic contribution:      6.396758137      12.766185143       2.514178258
Nuclear contribution   :     -6.528351225     -12.562716147      -2.075972941
                        -----------------------------------------
Total Dipole Moment    :     -0.131593089       0.203468996       0.438205317
                        -----------------------------------------
Magnitude (a.u.)       :      0.500739726
Magnitude (Debye)      :      1.272779235



--------------------
Rotational spectrum 
--------------------
 
Rotational constants in cm-1:             0.091791             0.029197             0.023992 
Rotational constants in MHz :          2751.811294           875.293510           719.249430 

Dipole components along the rotational axes: 
x,y,z [a.u.] :     0.174340     0.441521     0.159388 
x,y,z [Debye]:     0.443138     1.122258     0.405133 

 

Dipole moment calculation done in   0.0 sec 

Maximum memory used throughout the entire PROP-calculation: 12.3 MB

--------------------------------
SUGGESTED CITATIONS FOR THIS RUN
--------------------------------

Below you find a list of papers that are relevant to this ORCA run
We neither can nor want to force you to cite these papers, but we appreciate if you do
You receive ORCA, which is the product of decades of hard work by many enthusiastic individuals, for free
The only thing we kindly ask in return is that you cite our papers,
We deeply appreciate it, if you show your appreciation for ORCA by not just citing the generic ORCA reference.

Please note that relegating all ORCA citations to the supporting information does *not* help us.
SI sections are not indexed - citations you put there will not count into any citation statistics
But we need these citations in order to attract the funding resources that allow us to do what we are doing

Therefore, if you are a happy ORCA user, please consider citing a few of the papers listed below in the main body of your paper

In addition to the list printed below, the program has created the file 1.bibtex that contains the list in bibtex format
You can import this file easily into all common literature databanks and citation aid programs


List of essential papers. We consider these as the minimum necessary citations

  1. Neese, F.
     Software update: the ORCA program system, version 6.0
     WIRES Comput. Molec. Sci. 2025 15(1), e70019
     doi.org/10.1002/wcms.7019

List of papers to cite with high priority. The work reported in these papers was absolutely
necessary for this run to complete.
Our perspective: the developers of density functionals and basis sets usually get cited in chemistry papers
Good! But without the algorithms to do something with them, the functionals or basis sets would not do anything.
Hence, in our opinion, the algorithm design and method developments papers are equally worthy of getting cited

  1. Neese, F.
     An improvement of the resolution of the identity approximation for the formation of the Coulomb matrix
     J. Comp. Chem. 2003 24(14), 1740-1747
     doi.org/10.1002/jcc.10318
  2. Grimme, S.
     Semiempirical GGA-type density functional constructed with a long-range dispersion correction
     J.Comput.Chem. 2006 27(15), 1787-1799
     doi.org/10.1002/jcc.20495
  3. Neese, F.
     The SHARK Integral Generation and Digestion System
     J. Comp. Chem. 2022 44(3), 381
     doi.org/10.1002/jcc.26942

List of suggested additional citations. These are papers that are important in the 'surrounding' of 
of this run, or papers that preceded the highly important papers. If you like your results we are grateful for a citation.

  1. Neese, F.
     The ORCA program system
     WIRES Comput. Molec. Sci. 2012 2(1), 73-78
     doi.org/10.1002/wcms.81
  2. Neese, F.
     Software update: the ORCA program system, version 4.0
     WIRES Comput. Molec. Sci. 2018 8(1), 1-6
     doi.org/10.1002/wcms.1327
  3. Neese, F.; Wennmohs, F.; Becker, U.; Riplinger, C.
     The ORCA quantum chemistry program package
     J. Chem. Phys. 2020 152(22), 224108
     doi.org/10.1063/5.0004608
  4. Neese, F.
     Software update: The ORCA program system—Version 5.0
     WIRES Comput. Molec. Sci. 2022 12(1), e1606
     doi.org/10.1002/wcms.1606

List of optional additional citations

  1. Neese, F.
     Approximate second-order SCF convergence for spin unrestricted wavefunctions
     Chem. Phys. Lett. 2000 325(1-3), 93-98
     doi.org/10.1016/s0009-2614(00)00662-x

Timings for individual modules:

Sum of individual times          ...      104.334 sec (=   1.739 min)
Startup calculation              ...        5.606 sec (=   0.093 min)   5.4 %
SCF iterations                   ...       60.294 sec (=   1.005 min)  57.8 %
Property calculations            ...        0.037 sec (=   0.001 min)   0.0 %
SCF Gradient evaluation          ...       38.368 sec (=   0.639 min)  36.8 %
Geometry relaxation              ...        0.029 sec (=   0.000 min)   0.0 %
                             ****ORCA TERMINATED NORMALLY****
TOTAL RUN TIME: 0 days 0 hours 1 minutes 44 seconds 637 msec
