
                                 *****************
                                 * O   R   C   A *
                                 *****************

                                            #,                                       
                                            ###                                      
                                            ####                                     
                                            #####                                    
                                            ######                                   
                                           ########,                                 
                                     ,,################,,,,,                         
                               ,,#################################,,                 
                          ,,##########################################,,             
                       ,#########################################, ''#####,          
                    ,#############################################,,   '####,        
                  ,##################################################,,,,####,       
                ,###########''''           ''''###############################       
              ,#####''   ,,,,##########,,,,          '''####'''          '####       
            ,##' ,,,,###########################,,,                        '##       
           ' ,,###''''                  '''############,,,                           
         ,,##''                                '''############,,,,        ,,,,,,###''
      ,#''                                            '''#######################'''  
     '                                                          ''''####''''         
             ,#######,   #######,   ,#######,      ##                                
            ,#'     '#,  ##    ##  ,#'     '#,    #''#        ,####,    ,#,          
            ##       ##  ##   ,#'  ##            #'  '#       #'       ,# #          
            ##       ##  #######   ##           ,######,      #####,      #          
            '#,     ,#'  ##    ##  '#,     ,#' ,#      #,     #,   #      #          
             '#######'   ##     ##  '#######'  #'      '#     '####' #    #          



                #########################################################
                #                        -***-                          #
                #          Department of theory and spectroscopy        #
                #                                                       #
                #                      Frank Neese                      #
                #                                                       #
                #     Directorship, Architecture, Infrastructure        #
                #                    SHARK, DRIVERS                     #
                #        Core code/Algorithms in most modules           #
                #                                                       #
                #        Max Planck Institute fuer Kohlenforschung      #
                #                Kaiser Wilhelm Platz 1                 #
                #                 D-45470 Muelheim/Ruhr                 #
                #                      Germany                          #
                #                                                       #
                #                  All rights reserved                  #
                #                        -***-                          #
                #########################################################


                         Program Version 6.1.0  -  RELEASE   -
                                (GIT: $679e74b$)
                          ($2025-06-10 18:02:51 +0200$)


 With contributions from (in alphabetic order):
[Max-Planck-Institut fuer Kohlenforschung]                               
  Daniel Aravena         : Magnetic Suceptibility                        
  Michael Atanasov       : Ab Initio Ligand Field Theory (pilot matlab implementation)
  Alexander A. Auer      : GIAO ZORA, VPT2 properties, NMR spectrum      
  Ute Becker             : All parallelization in ORCA, NUMFREQ, NUMCALC 
  Giovanni Bistoni       : ED, misc. LED, open-shell LED, HFLD           
  Dmytro Bykov           : pre 5.0 version of the SCF Hessian            
  Marcos Casanova-Páez   : Triplet and SCS-CIS(D). UHF-(DLPNO)-IP/EA/STEOM-CCSD. UHF-CVS-IP/STEOM-CCSD   
  Vijay G. Chilkuri      : MRCI spin determinant printing, contributions to CSF-ICE 
  Pauline Colinet        : FMM embedding                                 
  Dipayan Datta          : RHF DLPNO-CCSD density                        
  Achintya Kumar Dutta   : EOM-CC, STEOM-CC                              
  Nicolas Foglia         : Exact transition moments, OPA infrastructure, MCD improvements    
  Dmitry Ganyushin       : Spin-Orbit,Spin-Spin,Magnetic field MRCI      
  Miquel Garcia-Rates    : C-PCM and meta-GGA Hessian, CCSD/C-PCM, Gaussian charge scheme 
  Tiago L. C. Gouveia    : GS-ROHF, GS-ROCIS                             
  Yang Guo               : DLPNO-NEVPT2, F12-NEVPT2, CIM, IAO-localization        
  Andreas Hansen         : Spin unrestricted coupled pair/coupled cluster methods 
  Ingolf Harden          : AUTO-CI MPn and infrastructure                
  Benjamin Helmich-Paris : MC-RPA, TRAH-(SCF,CASSCF), AVAS, COSX integrals, SCF dyn. polar., MC-PDFT, srDFT 
  Lee Huntington         : MR-EOM, pCC                                   
  Robert Izsak           : Overlap fitted RIJCOSX, COSX-SCS-MP3, EOM     
  Riya Kayal             : Wick's Theorem for AUTO-CI, AUTO-CI UHF-CCSDT 
  Emily Kempfer          : AUTO-CI RHF CISDT and CCSDT, approximate NEVPT4
  Christian Kollmar      : KDIIS, OOCD, Brueckner-CCSD(T), CCSD density, CASPT2, CASPT2-K, improved NEVPT2 
  Axel Koslowski         : Symmetry handling                             
  Simone Kossmann        : meta-GGA functionals, TD-DFT gradient, OOMP2, (MP2 Hessian; deprecated post 5.0) 
  Lucas Lang             : DCDCAS, Hyperfine gauge corrections, ICE-SOC+SSC
  Marvin Lechner         : AUTO-CI (C++ implementation), FIC-MRCC        
  Spencer Leger          : CASSCF response                               
  Dagmar Lenk            : GEPOL surface, SMD, ORCA-2-JSON               
  Dimitrios Liakos       : Extrapolation schemes; Compound Job, Property file
  Dimitrios Manganas     : Further ROCIS development; embedding schemes. LFT, Crystal Embedding 
  Dimitrios Pantazis     : SARC Basis sets                               
  Anastasios Papadopoulos: AUTO-CI, single reference methods and gradients 
  Taras Petrenko         : pre 6.0 DFT Hessian and TD-DFT gradient,  ECA, NRVS 
  Petra Pikulova         : Analytic Raman intensities                    
  Peter Pinski           : DLPNO-MP2, DLPNO-MP2 Gradient                 
  Shashank Vittal Rao    : ES-AILFT, MagRelax                            
  Christoph Reimann      : Effective Core Potentials                     
  Marius Retegan         : Local ZFS, SOC                                
  Christoph Riplinger    : Optimizer, TS searches, QM/MM, DLPNO-CCSD(T), (RO)-DLPNO pert. Triples 
  Michael Roemelt        : Original ROCIS implementation, recursive CI coupling coefficients
  Masaaki Saitow         : Open-shell DLPNO-CCSD energy and density      
  Barbara Sandhoefer     : DKH picture change effects                    
  Yorick L. A. Schmerwitz: GMF and freeze-and-release deltaSCF, NEB S-IDPP initial path                    
  Kantharuban Sivalingam : CASSCF convergence/infrastructure, NEVPT2, NEVPT3, NEVPT4(SD), FIC-MRCI and CEPA variants
  Bernardo de Souza      : ESD, SOC TD-DFT                               
  Georgi L. Stoychev     : AutoAux, RI-MP2 NMR, DLPNO-MP2 response, X2C  
  Van Anh Tran           : RI-MP2 g-tensors                              
  Willem Van den Heuvel  : Paramagnetic NMR                              
  Zikuan Wang            : NOTCH, Electric field optimization            
  Frank Wennmohs         : Technical directorship and infrastructure     
  Hang Xu                : AUTO-CI-Response properties                   
                                                                         
[FACCTs GmbH]                                                            
  Markus Bursch, Nicolas Foglia, Miquel Garcia-Rates, Ingolf Harden, Hagen Neugebauer, Anastasios Papadopoulos, 
  Christoph Riplinger, Bernardo de Souza, Georgi L. Stoychev                                                    
                                                                 
  APM, various basis sets, CI-OPT, improved COSX, DLPNO-Multilevel,           
  DOCKER, DRACO, updates on ESD, Fragmentator, GOAT, IRC, LR-CPCM, L-BFGS, MBIS, meta-GGA TD-DFT gradient, ML-optimized integration grids, 
  MM, NACMEs, nearIR, NEB, NEB-TS, NL-DFT gradient (VV10), 2- and 3-layer-ONIOM, interface openCOSMO-RS, QMMM,   
  Crystal-QMMM, RESP, rigid body optimization, SF, symmetry and pop. for TD-DFT, various functionals, SOLVATOR                                   
                                                                         
[Other institutions]                                                     
  V. Asgeirsson          : NEB                                           
  Christoph Bannwarth    : sTDA-DFT, sTD-DFT, PBEh-3c, B97-3c, D3        
  Giovanni Bistoni       : ETS/NOCV, ADLD/ADEX, COVALED                  
  Martin Brehm           : Molecular dynamics                            
  Ronald Cardenas        : ETS/NOCV                                      
  Martina Colucci        : COVALED                                       
  Sebastian Ehlert       : rSCAN, r2SCAN, r2SCAN-3c, D4, dhf basis sets  
  Marvin Friede          : D4 for Fr, Ra, Ac-Lr                          
  Lars Goerigk           : TD-DFT with DH, B97 family of functionals     
  Stefan Grimme          : VdW corrections, initial TS optimization, DFT functionals, gCP, sTDA/sTD-DF 
  Waldemar Hujo          : DFT-NL                                        
  H. Jonsson             : NEB                                           
  Holger Kruse           : gCP                                           
  Marcel Mueller         : wB97X-3c, vDZP basis set                      
  Hagen Neugebauer       : wr2SCAN, Native XTB                           
  Gianluca Regni         : ADLD/ADEX                                     
  Tobias Risthaus        : pre 6.0 range-separated hybrid DFT and stability analysis
  Lukas Wittmann         : regularized MP2, r2SCAN double-hybrids, wr2SCAN        
                                                                         
We gratefully acknowledge several colleagues who have allowed us to      
interface, adapt or use parts of their codes:                            
  Ed Valeev, F. Pavosevic, A. Kumar             : LibInt (2-el integral package), F12 methods 
  Garnet Chan, S. Sharma, J. Yang, R. Olivares  : DMRG                   
  Ulf Ekstrom                                   : XCFun DFT Library      
  Mihaly Kallay                                 : mrcc  (arbitrary order and MRCC methods)
  Frank Weinhold                                : gennbo (NPA and NBO analysis)           
  Simon Mueller                                 : openCOSMO-RS                            
  Christopher J. Cramer and Donald G. Truhlar   : smd solvation model                     
  S Lehtola, MJT Oliveira, MAL Marques          : LibXC Library                           
  Liviu Ungur et al                             : ANISO software                          


 Your calculation uses the libint2 library for the computation of 2-el integrals
 For citations please refer to: http://libint.valeyev.net

 Your ORCA version has been built with support for libXC version: 7.0.0
 For citations please refer to: https://libxc.gitlab.io

 This ORCA versions uses:
   CBLAS   interface :  Fast vector & matrix operations
   LAPACKE interface :  Fast linear algebra routines
   SCALAPACK package :  Parallel linear algebra routines
   Shared memory     :  Shared parallel matrices
   BLAS/LAPACK       :  OpenBLAS 0.3.29  USE64BITINT DYNAMIC_ARCH NO_AFFINITY Haswell SINGLE_THREADED
        Core in use  :  Haswell
   Copyright (c) 2011-2014, The OpenBLAS Project


  ***********************************
  * Starting time: Wed Aug  6 21:40:04 2025
  * Host name:     debian
  * Process ID:    524931
  * Working dir.:  /home/uni/mm-project/l
  ***********************************



***************************************
The coordinates will be read from file: l-input-coordinates.xyz
***************************************


Your calculation utilizes the semiempirical GFN2-xTB method
Please cite in your paper:
Bannwarth, C.; Ehlert S.; Grimme, S. J. Chem. Theory Comput. 2019, 15, 1652.
   

================================================================================

================================================================================
                                        WARNINGS
                       Please study these warnings very carefully!
================================================================================


================================================================================
 STARTING AUTOMATIC FRAGMENTATION: 
================================================================================

WARNING: Geometry Optimization
  ===> : Switching off AutoStart
         For restart on a previous wavefunction, please use MOREAD

WARNING: Found dipole moment calculation with XTB calculation
  ===> : Switching off dipole moment calculation


================================================================================
                                       INPUT FILE
================================================================================
NAME = l.inp
|  1> ! xtb goat
|  2> 
|  3> %pal
|  4>   nprocs=9
|  5> end
|  6> 
|  7> * xyzfile 0 1 l-input-coordinates.xyz
|  8> 
|  9>                          ****END OF INPUT****
================================================================================

                       *****************************
                       * Geometry Optimization Run *
                       *****************************


                       *********************************
                       *              GOAT             *
                       * Global Optimization Algorithm *
                       *********************************

Geometry optimization settings:
Update method            Update   .... BFGS
Choice of coordinates    CoordSys .... (2022) Redundant Internals
Initial Hessian          InHess   .... Almloef's Model
Max. no of cycles        MaxIter  .... 66

Convergence Tolerances:
Energy Change            TolE     ....  5.0000e-06 Eh
Max. Gradient            TolMAXG  ....  3.0000e-04 Eh/bohr
RMS Gradient             TolRMSG  ....  1.0000e-04 Eh/bohr
Max. Displacement        TolMAXD  ....  4.0000e-03 bohr
RMS Displacement         TolRMSD  ....  2.0000e-03 bohr
Strict Convergence                .... True

------------------------------------------------------------------------------
                        ORCA OPTIMIZATION COORDINATE SETUP
------------------------------------------------------------------------------

The optimization will be done in redundant internal coordinates (2022)
Making redundant internal coordinates   ...  (2022 redundants) done
Evaluating the initial hessian          ...  (Almloef) done
Evaluating the coordinates              ...  done
Calculating the B-matrix                .... done
Calculating the G-matrix                .... done
The number of degrees of freedom        ....   94

    -----------------------------------------------------------------
                    Redundant Internal Coordinates


    -----------------------------------------------------------------
         Definition                    Initial Value    Approx d2E/dq
    -----------------------------------------------------------------
      1. B(C   1,C   0)                  1.5455         0.352904   
      2. B(C   4,C   0)                  1.5385         0.362147   
      3. B(O   5,C   1)                  1.3528         0.641462   
      4. B(N   7,H   3)                  1.0242         0.410785   
      5. B(N   7,C   0)                  1.4751         0.409340   
      6. B(N   7,H   2)                  1.0239         0.411189   
      7. B(C   8,C   4)                  1.5442         0.354577   
      8. B(H   9,C   4)                  1.0982         0.349389   
      9. B(H  10,C   4)                  1.0977         0.350035   
     10. B(C  11,C   8)                  1.5306         0.372733   
     11. B(H  12,C  11)                  1.0924         0.356949   
     12. B(C  13,C   8)                  1.5340         0.368144   
     13. B(C  13,H   6)                  1.0958         0.352458   
     14. B(H  14,C  11)                  1.0953         0.353126   
     15. B(H  15,C  11)                  1.0959         0.352333   
     16. B(H  16,C   8)                  1.0971         0.350775   
     17. B(H  17,C  13)                  1.0957         0.352577   
     18. B(H  18,C  13)                  1.0961         0.352148   
     19. B(H  19,C   0)                  1.0962         0.351949   
     20. B(H  20,O   5)                  0.9763         0.489682   
     21. B(O  21,C   1)                  1.2253         1.024844   
     22. A(C   4,C   0,N   7)          111.9646         0.364837   
     23. A(C   1,C   0,N   7)          109.2377         0.363227   
     24. A(C   4,C   0,H  19)          110.5433         0.321462   
     25. A(C   1,C   0,C   4)          110.0638         0.357942   
     26. A(N   7,C   0,H  19)          107.6013         0.326031   
     27. A(C   1,C   0,H  19)          107.2863         0.320106   
     28. A(C   0,C   1,O  21)          124.1270         0.426538   
     29. A(O   5,C   1,O  21)          121.8962         0.472241   
     30. A(C   0,C   1,O   5)          113.9638         0.392575   
     31. A(C   8,C   4,H  10)          108.0084         0.320068   
     32. A(H   9,C   4,H  10)          105.1380         0.288183   
     33. A(C   0,C   4,H  10)          107.7935         0.321175   
     34. A(C   8,C   4,H   9)          109.9801         0.319971   
     35. A(C   0,C   4,H   9)          109.9823         0.321078   
     36. A(C   0,C   4,C   8)          115.3943         0.358230   
     37. A(C   1,O   5,H  20)          114.3453         0.368469   
     38. A(H   2,N   7,H   3)          103.1620         0.298320   
     39. A(C   0,N   7,H   2)          108.3167         0.331664   
     40. A(C   0,N   7,H   3)          108.0248         0.331610   
     41. A(C   4,C   8,C  11)          113.1021         0.359991   
     42. A(C  13,C   8,H  16)          107.4391         0.322151   
     43. A(C  11,C   8,H  16)          108.6088         0.322806   
     44. A(C   4,C   8,H  16)          109.2612         0.320178   
     45. A(C  11,C   8,C  13)          108.7663         0.362304   
     46. A(C   4,C   8,C  13)          109.5035         0.359232   
     47. A(C   8,C  11,H  12)          111.7012         0.323731   
     48. A(H  14,C  11,H  15)          107.7691         0.288959   
     49. A(H  12,C  11,H  15)          106.6105         0.289447   
     50. A(C   8,C  11,H  15)          110.9243         0.323041   
     51. A(H  12,C  11,H  14)          108.3408         0.289549   
     52. A(C   8,C  11,H  14)          111.2900         0.323160   
     53. A(H  17,C  13,H  18)          107.4218         0.288864   
     54. A(C   8,C  13,H  18)          110.9582         0.322358   
     55. A(H   6,C  13,H  18)          108.0764         0.288849   
     56. A(C   8,C  13,H  17)          110.8493         0.322422   
     57. A(H   6,C  13,H  17)          108.1074         0.288904   
     58. A(H   6,C  13,C   8)          111.2787         0.322404   
     59. D(O   5,C   1,C   0,C   4)    -68.5251         0.010000   
     60. D(O  21,C   1,C   0,N   7)    -10.5447         0.010000   
     61. D(O  21,C   1,C   0,C   4)    112.7679         0.010000   
     62. D(O   5,C   1,C   0,N   7)    168.1623         0.010000   
     63. D(O   5,C   1,C   0,H  19)     51.8010         0.010000   
     64. D(H   9,C   4,C   0,N   7)     59.2114         0.010513   
     65. D(H   9,C   4,C   0,H  19)    179.1677         0.010513   
     66. D(C   8,C   4,C   0,H  19)     54.0622         0.010513   
     67. D(C   8,C   4,C   0,N   7)    -65.8940         0.010513   
     68. D(C   8,C   4,C   0,C   1)    172.4019         0.010513   
     69. D(H   9,C   4,C   0,C   1)    -62.4926         0.010513   
     70. D(H  20,O   5,C   1,O  21)    177.7952         0.030345   
     71. D(H  20,O   5,C   1,C   0)     -0.9441         0.030345   
     72. D(H   2,N   7,C   0,C   1)    -51.0326         0.014295   
     73. D(H   2,N   7,C   0,C   4)   -173.2098         0.014295   
     74. D(H   3,N   7,C   0,C   4)    -62.1122         0.014295   
     75. D(H   3,N   7,C   0,C   1)     60.0650         0.014295   
     76. D(H   2,N   7,C   0,H  19)     65.1280         0.014295   
     77. D(C  13,C   8,C   4,H  10)    -38.9613         0.010109   
     78. D(C  13,C   8,C   4,H   9)     75.2672         0.010109   
     79. D(C  13,C   8,C   4,C   0)   -159.6262         0.010109   
     80. D(C  11,C   8,C   4,H  10)   -160.4369         0.010109   
     81. D(C  11,C   8,C   4,H   9)    -46.2084         0.010109   
     82. D(C  11,C   8,C   4,C   0)     78.8981         0.010109   
     83. D(H  14,C  11,C   8,H  16)    171.9818         0.011096   
     84. D(H  14,C  11,C   8,C  13)    -71.3782         0.011096   
     85. D(H  14,C  11,C   8,C   4)     50.5118         0.011096   
     86. D(H  12,C  11,C   8,H  16)     50.7460         0.011096   
     87. D(H  12,C  11,C   8,C  13)    167.3860         0.011096   
     88. D(H  12,C  11,C   8,C   4)    -70.7240         0.011096   
     89. D(H   6,C  13,C   8,C   4)    -60.4996         0.010841   
     90. D(H  17,C  13,C   8,H  16)    -58.7127         0.010841   
     91. D(H  17,C  13,C   8,C  11)   -176.0992         0.010841   
     92. D(H  17,C  13,C   8,C   4)     59.8472         0.010841   
     93. D(H   6,C  13,C   8,H  16)   -179.0594         0.010841   
     94. D(H   6,C  13,C   8,C  11)     63.5540         0.010841   
    -----------------------------------------------------------------

Number of atoms                         .... 22
Number of degrees of freedom            .... 94


         *************************************************************
         *                GEOMETRY OPTIMIZATION CYCLE   1            *
         *************************************************************
---------------------------------
CARTESIAN COORDINATES (ANGSTROEM)
---------------------------------
  C    -9.072073    6.377338   -1.639855
  C    -7.962191    7.230240   -2.295046
  H   -10.372420    7.948216   -1.762536
  H   -10.485979    6.933598   -3.000452
  C    -8.946183    4.911529   -2.089749
  O    -6.717127    6.950912   -1.845655
  H    -9.261009    2.199581   -2.572213
  N   -10.388832    6.948047   -1.981019
  C    -9.879483    3.914932   -1.368416
  H    -9.087703    4.839000   -3.176394
  H    -7.910095    4.594437   -1.913803
  C   -11.314044    3.942035   -1.901408
  H   -11.831890    4.862047   -1.620810
  C    -9.324144    2.492868   -1.518240
  H   -11.334459    3.854235   -2.993016
  H   -11.900811    3.113753   -1.488216
  H    -9.899709    4.148802   -0.296681
  H    -8.321228    2.418011   -1.083248
  H    -9.961370    1.766585   -1.000703
  H    -8.946923    6.458504   -0.553819
  H    -6.683387    6.259151   -1.157507
  O    -8.168536    8.103205   -3.129727

----------------------------
CARTESIAN COORDINATES (A.U.)
----------------------------
  NO LB    ZA    FRAG    MASS        X           Y           Z
   0 C   6.0000    1    12.011  -17.143733   12.051422   -3.098877
   1 C   6.0000    1    12.011  -15.046360   13.663173   -4.337008
   2 H   1.0000    1     1.008  -19.601033   15.019951   -3.330710
   3 H   1.0000    1     1.008  -19.815629   13.102601   -5.670033
   4 C   6.0000    1    12.011  -16.905836    9.281445   -3.949053
   5 O   8.0000    1    15.999  -12.693530   13.135320   -3.487782
   6 H   1.0000    1     1.008  -17.500771    4.156606   -4.860778
   7 N   7.0000    1    14.007  -19.632047   13.129906   -3.743583
   8 C   6.0000    1    12.011  -18.669517    7.398149   -2.585931
   9 H   1.0000    1     1.008  -17.173270    9.144385   -6.002515
  10 H   1.0000    1     1.008  -14.947913    8.682228   -3.616564
  11 C   6.0000    1    12.011  -21.380445    7.449367   -3.593140
  12 H   1.0000    1     1.008  -22.359032    9.187937   -3.062887
  13 C   6.0000    1    12.011  -17.620079    4.710838   -2.869058
  14 H   1.0000    1     1.008  -21.419023    7.283449   -5.655981
  15 H   1.0000    1     1.008  -22.489274    5.884140   -2.812321
  16 H   1.0000    1     1.008  -18.707739    7.840100   -0.560646
  17 H   1.0000    1     1.008  -15.724842    4.569379   -2.047042
  18 H   1.0000    1     1.008  -18.824261    3.338362   -1.891055
  19 H   1.0000    1     1.008  -16.907234   12.204804   -1.046566
  20 H   1.0000    1     1.008  -12.629771   11.828081   -2.187371
  21 O   8.0000    1    15.999  -15.436296   15.312838   -5.914327

      -----------------------------------------------------------      
     |                   =====================                   |     
     |                           x T B                           |     
     |                   =====================                   |     
     |                         S. Grimme                         |     
     |          Mulliken Center for Theoretical Chemistry        |     
     |                    University of Bonn                     |     
      -----------------------------------------------------------      

   * xtb version 6.7.1 (edcfbbe) compiled by 'albert@albert-system' on 2024-07-22

   xtb is free software: you can redistribute it and/or modify it under
   the terms of the GNU Lesser General Public License as published by
   the Free Software Foundation, either version 3 of the License, or
   (at your option) any later version.
   
   xtb is distributed in the hope that it will be useful,
   but WITHOUT ANY WARRANTY; without even the implied warranty of
   MERCHANTABILITY or FITNESS FOR A PARTICULAR PURPOSE.  See the
   GNU Lesser General Public License for more details.
   
   Cite this work as:
   * C. Bannwarth, E. Caldeweyher, S. Ehlert, A. Hansen, P. Pracht,
     J. Seibert, S. Spicher, S. Grimme, WIREs Comput. Mol. Sci., 2020, 11,
     e01493. DOI: 10.1002/wcms.1493
   
   for GFN2-xTB:
   * C. Bannwarth, S. Ehlert and S. Grimme., J. Chem. Theory Comput., 2019,
     15, 1652-1671. DOI: 10.1021/acs.jctc.8b01176
   for GFN1-xTB:
   * S. Grimme, C. Bannwarth, P. Shushkov, J. Chem. Theory Comput., 2017,
     13, 1989-2009. DOI: 10.1021/acs.jctc.7b00118
   for GFN0-xTB:
   * P. Pracht, E. Caldeweyher, S. Ehlert, S. Grimme, ChemRxiv, 2019, preprint.
     DOI: 10.26434/chemrxiv.8326202.v1
   for GFN-FF:
   * S. Spicher and S. Grimme, Angew. Chem. Int. Ed., 2020, 59, 15665-15673.
     DOI: 10.1002/anie.202004239
   
   for ALPB and GBSA implicit solvation:
   * S. Ehlert, M. Stahn, S. Spicher, S. Grimme, J. Chem. Theory Comput.,
     2021, 17, 4250-4261. DOI: 10.1021/acs.jctc.1c00471
   
   for ddCOSMO and CPCM-X implicit solvation:
   * M. Stahn, S. Ehlert, S. Grimme, J. Phys. Chem. A,
     2023, XX, XXXX-XXXX. DOI: 10.1021/acs.jpca.3c04382
   
   for DFT-D4:
   * E. Caldeweyher, C. Bannwarth and S. Grimme, J. Chem. Phys., 2017,
     147, 034112. DOI: 10.1063/1.4993215
   * E. Caldeweyher, S. Ehlert, A. Hansen, H. Neugebauer, S. Spicher,
     C. Bannwarth and S. Grimme, J. Chem. Phys., 2019, 150, 154122.
     DOI: 10.1063/1.5090222
   * E. Caldeweyher, J.-M. Mewes, S. Ehlert and S. Grimme, Phys. Chem. Chem. Phys.
     2020, 22, 8499-8512. DOI: 10.1039/D0CP00502A
   
   for sTDA-xTB:
   * S. Grimme and C. Bannwarth, J. Chem. Phys., 2016, 145, 054103.
     DOI: 10.1063/1.4959605
   
   in the mass-spec context:
   * V. Asgeirsson, C. Bauer and S. Grimme, Chem. Sci., 2017, 8, 4879.
     DOI: 10.1039/c7sc00601b
   * J. Koopman and S. Grimme, ACS Omega 2019, 4, 12, 15120-15133.
     DOI: 10.1021/acsomega.9b02011
   
   for metadynamics refer to:
   * S. Grimme, J. Chem. Theory Comput., 2019, 155, 2847-2862
     DOI: 10.1021/acs.jctc.9b00143
   
   for SPH calculations refer to:
   * S. Spicher and S. Grimme, J. Chem. Theory Comput., 2021, 17, 1701-1714
     DOI: 10.1021/acs.jctc.0c01306
   
   for ONIOM refer to:
   * C. Plett, A. Katbashev, S. Ehlert, S. Grimme, M. Bursch,
     Phys. Chem. Chem. Phys., 2023, 25, 17860-17868. DOI: 10.1039/D3CP02178E
   
   for DIPRO refer to:
   * J. Kohn, N. Gildemeister, S. Grimme, D. Fazzi, A. Hansen,
     J. Chem. Phys., 2023, just accepted.
   
   for PTB refer to:
   * S. Grimme, M. Mueller, A. Hansen, J. Chem. Phys., 2023, 158, 124111.
     DOI: 10.1063/5.0137838
   
   with help from (in alphabetical order)
   P. Atkinson, C. Bannwarth, F. Bohle, G. Brandenburg, E. Caldeweyher
   M. Checinski, S. Dohm, S. Ehlert, S. Ehrlich, I. Gerasimov, C. Hölzer
   A. Katbashev, J. Kohn, J. Koopman, C. Lavigne, S. Lehtola, F. März, M. Müller,
   F. Musil, H. Neugebauer, J. Pisarek, C. Plett, P. Pracht, F. Pultar,
   J. Seibert, P. Shushkov, S. Spicher, M. Stahn, M. Steiner, T. Strunk,
   J. Stückrath, T. Rose, and J. Unsleber
   
 * started run on 2025/08/06 at 21:40:05.376     
   ID    Z sym.   atoms
    1    6 C      1, 2, 5, 9, 12, 14
    2    1 H      3, 4, 7, 10, 11, 13, 15-21
    3    8 O      6, 22
    4    7 N      8

           -------------------------------------------------
          |                Calculation Setup                |
           -------------------------------------------------

          program call               : /home/uni/orca_6_1_0/otool_xtb l_XTB.xyz --grad -c 0 -u 0 -P 9 --namespace l --input l_XTB.input.tmp --acc 0.200000
          calculation namespace      : l
          coordinate file            : l_XTB.xyz
          omp threads                :                     9


           -------------------------------------------------
          |                 G F N 2 - x T B                 |
           -------------------------------------------------

        Reference                      10.1021/acs.jctc.8b01176
      * Hamiltonian:
        H0-scaling (s, p, d)           1.850000    2.230000    2.230000
        zeta-weighting                 0.500000
      * Dispersion:
        s8                             2.700000
        a1                             0.520000
        a2                             5.000000
        s9                             5.000000
      * Repulsion:
        kExp                           1.500000    1.000000
        rExp                           1.000000
      * Coulomb:
        alpha                          2.000000
        third order                    shell-resolved
        anisotropic                    true
        a3                             3.000000
        a5                             4.000000
        cn-shift                       1.200000
        cn-exp                         4.000000
        max-rad                        5.000000


          ...................................................
          :                      SETUP                      :
          :.................................................:
          :  # basis functions                  49          :
          :  # atomic orbitals                  49          :
          :  # shells                           31          :
          :  # electrons                        54          :
          :  max. iterations                   250          :
          :  Hamiltonian                  GFN2-xTB          :
          :  restarted?                      false          :
          :  GBSA solvation                  false          :
          :  PC potential                    false          :
          :  electronic temp.          300.0000000     K    :
          :  accuracy                    0.2000000          :
          :  -> integral cutoff          0.3198970E+02      :
          :  -> integral neglect         0.2000000E-08      :
          :  -> SCF convergence          0.2000000E-06 Eh   :
          :  -> wf. convergence          0.2000000E-04 e    :
          :  Broyden damping             0.4000000          :
          :  net charge                          0          :
          :  unpaired electrons                  0          :
          ...................................................

 iter      E             dE          RMSdq      gap      omega  full diag
   1    -30.7892877 -0.307893E+02  0.355E+00    4.12       0.0  T
   2    -30.8443007 -0.550130E-01  0.185E+00    3.68       1.0  T
   3    -30.8476248 -0.332418E-02  0.105E+00    3.91       1.0  T
   4    -30.8509120 -0.328712E-02  0.204E-01    3.50       1.0  T
   5    -30.8512286 -0.316679E-03  0.804E-02    3.52       1.0  T
   6    -30.8512387 -0.100245E-04  0.322E-02    3.52       1.0  T
   7    -30.8512428 -0.415009E-05  0.785E-03    3.53       2.7  T
   8    -30.8512430 -0.150284E-06  0.304E-03    3.53       7.0  T
   9    -30.8512430 -0.172707E-07  0.858E-04    3.53      24.9  T
  10    -30.8512430 -0.180412E-08  0.411E-04    3.53      51.9  T
  11    -30.8512430 -0.507079E-09  0.986E-05    3.53     216.2  T
  12    -30.8512430 -0.219273E-10  0.493E-05    3.53     432.5  T

   *** convergence criteria satisfied after 12 iterations ***

         #    Occupation            Energy/Eh            Energy/eV
      -------------------------------------------------------------
         1        2.0000           -0.7489689             -20.3805
       ...           ...                  ...                  ...
        21        2.0000           -0.4627499             -12.5921
        22        2.0000           -0.4577969             -12.4573
        23        2.0000           -0.4495160             -12.2320
        24        2.0000           -0.4383759             -11.9288
        25        2.0000           -0.4344145             -11.8210
        26        2.0000           -0.4287816             -11.6677
        27        2.0000           -0.3819950             -10.3946 (HOMO)
        28                         -0.2523281              -6.8662 (LUMO)
        29                          0.0127862               0.3479
        30                          0.0233376               0.6350
        31                          0.0309458               0.8421
        32                          0.0673651               1.8331
       ...                                ...                  ...
        49                          0.5492615              14.9462
      -------------------------------------------------------------
                  HL-Gap            0.1296669 Eh            3.5284 eV
             Fermi-level           -0.3171616 Eh           -8.6304 eV

 SCC (total)                   0 d,  0 h,  0 min,  0.016 sec
 SCC setup                      ...        0 min,  0.000 sec (  1.075%)
 Dispersion                     ...        0 min,  0.000 sec (  0.836%)
 classical contributions        ...        0 min,  0.000 sec (  0.819%)
 integral evaluation            ...        0 min,  0.001 sec (  3.550%)
 iterations                     ...        0 min,  0.013 sec ( 81.801%)
 molecular gradient             ...        0 min,  0.002 sec ( 11.375%)
 printout                       ...        0 min,  0.000 sec (  0.446%)

         :::::::::::::::::::::::::::::::::::::::::::::::::::::
         ::                     SUMMARY                     ::
         :::::::::::::::::::::::::::::::::::::::::::::::::::::
         :: total energy             -30.525330358756 Eh    ::
         :: gradient norm              0.062253704858 Eh/a0 ::
         :: HOMO-LUMO gap              3.528417183090 eV    ::
         ::.................................................::
         :: SCC energy               -30.851158234373 Eh    ::
         :: -> isotropic ES            0.060019113666 Eh    ::
         :: -> anisotropic ES          0.006245249720 Eh    ::
         :: -> anisotropic XC          0.012719884789 Eh    ::
         :: -> dispersion             -0.014913944694 Eh    ::
         :: repulsion energy           0.325827875617 Eh    ::
         :: add. restraining           0.000000000000 Eh    ::
         :: total charge               0.000000000000 e     ::
         :::::::::::::::::::::::::::::::::::::::::::::::::::::


Property printout bound to 'properties.out'

           -------------------------------------------------
          | TOTAL ENERGY              -30.525330358756 Eh   |
          | GRADIENT NORM               0.062253704858 Eh/α |
          | HOMO-LUMO GAP               3.528417183090 eV   |
           -------------------------------------------------

------------------------------------------------------------------------
 * finished run on 2025/08/06 at 21:40:05.400     
------------------------------------------------------------------------
 total:
 * wall-time:     0 d,  0 h,  0 min,  0.024 sec
 *  cpu-time:     0 d,  0 h,  0 min,  0.039 sec
 * ratio c/w:     1.627 speedup
 SCF:
 * wall-time:     0 d,  0 h,  0 min,  0.016 sec
 *  cpu-time:     0 d,  0 h,  0 min,  0.030 sec
 * ratio c/w:     1.807 speedup


-------------------------   --------------------
FINAL SINGLE POINT ENERGY       -30.525330358760
-------------------------   --------------------


-------------
DIPOLE MOMENT
-------------
                                X             Y             Z
Total Dipole Moment    :      0.07800      -1.21400       0.94700
                        -----------------------------------------
Magnitude (a.u.)       :      1.54165
Magnitude (Debye)      :      3.91857


------------------
CARTESIAN GRADIENT
------------------

   1   C   :    0.012197217   -0.011846273    0.012239675
   2   C   :    0.000158367   -0.017748625    0.017206830
   3   H   :    0.000898583    0.005522175   -0.002830488
   4   H   :    0.000536462    0.003860608   -0.004749048
   5   C   :   -0.002570060    0.002841921    0.000959431
   6   O   :    0.002910056   -0.001800171    0.001834954
   7   H   :    0.000894914   -0.002382798   -0.004681790
   8   N   :   -0.009969710   -0.001601567    0.003556623
   9   C   :    0.001731680    0.003227090    0.002287824
  10   H   :    0.003669669   -0.002053350   -0.003866007
  11   H   :    0.001339272    0.000094405   -0.001758421
  12   C   :    0.005836567   -0.002613197    0.000671733
  13   H   :   -0.005098519    0.000640752    0.002281498
  14   C   :   -0.003740104    0.003337815   -0.000016583
  15   H   :   -0.001584318   -0.000205134   -0.005144691
  16   H   :   -0.004889024   -0.002255945    0.001207256
  17   H   :   -0.000219042   -0.001780009    0.001956417
  18   H   :    0.003467991   -0.000254806    0.002089825
  19   H   :   -0.002273872   -0.004724694    0.002811896
  20   H   :    0.001097886    0.001573906   -0.001041181
  21   H   :    0.003655460   -0.005754153    0.006498539
  22   O   :   -0.008049475    0.033922050   -0.031514293

Difference to translation invariance:
           :    0.0000000000   -0.0000000000   -0.0000000000

Difference to rotation invariance:
           :   -0.0000000078    0.0000001972    0.0000003427

Norm of the Cartesian gradient     ...    0.0622537049
RMS gradient                       ...    0.0076629013
MAX gradient                       ...    0.0339220501
------------------------------------------------------------------------------
                         ORCA GEOMETRY RELAXATION STEP
------------------------------------------------------------------------------

Reading the OPT-File                    .... done
Getting information on internals        .... done
Copying old internal coords+grads       .... done
Making the new internal coordinates     .... (2022 redundants) done
Validating the new internal coordinates .... (2022 redundants) done
Calculating the B-matrix                .... done
Calculating the G,G- and P matrices     .... done
Transforming gradient to internals      .... done
Projecting the internal gradient        .... done
Number of atoms                         ....  22
Number of internal coordinates          ....  94
Current Energy                          ....   -30.525330359 Eh
Current gradient norm                   ....     0.062253705 Eh/bohr
Maximum allowed component of the step   ....  0.300
Current trust radius                    ....  0.300
Evaluating the initial hessian          ....  (Almloef) done
Projecting the Hessian                  .... done
Forming the augmented Hessian           .... done
Diagonalizing the augmented Hessian     .... done
Last element of RFO vector              ....  0.981951846
Lowest eigenvalues of augmented Hessian:
 -0.006431446  0.010004652  0.010170379  0.010518238  0.010841472
Length of the computed step             ....  0.192607305
The final length of the internal step   ....  0.192607305
Converting the step to Cartesian space:
 Initial RMS(Int)=    0.0198659267
Transforming coordinates:
 Iter   0:  RMS(Cart)=    0.0703043665 RMS(Int)=    0.0197218905
 Iter   5:  RMS(Cart)=    0.0000000224 RMS(Int)=    0.0000000188
done
Storing new coordinates                 .... done

                                .--------------------.
          ----------------------|Geometry convergence|-------------------------
          Item                value                   Tolerance       Converged
          ---------------------------------------------------------------------
          RMS gradient        0.0060746563            0.0001000000      NO
          MAX gradient        0.0469913678            0.0003000000      NO
          RMS step            0.0198659267            0.0020000000      NO
          MAX step            0.0589013063            0.0040000000      NO
          -------------------------------------------------------------------------
          ........................................................
          Max(Bonds)      0.0241      Max(Angles)    1.59
          Max(Dihed)        3.37      Max(Improp)    0.00
          ---------------------------------------------------------------------

    ---------------------------------------------------------------------------
                         Redundant Internal Coordinates
                            (Angstroem and degrees)

        Definition                    Value    dE/dq     Step     New-Value
    ----------------------------------------------------------------------------
     1. B(C   1,C   0)                1.5455  0.006337 -0.0093    1.5362   
     2. B(C   4,C   0)                1.5385  0.005909 -0.0085    1.5300   
     3. B(O   5,C   1)                1.3528  0.010371 -0.0085    1.3444   
     4. B(N   7,H   3)                1.0242  0.004622 -0.0059    1.0183   
     5. B(N   7,C   0)                1.4751  0.011559 -0.0147    1.4604   
     6. B(N   7,H   2)                1.0239  0.004805 -0.0061    1.0178   
     7. B(C   8,C   4)                1.5442  0.009693 -0.0142    1.5300   
     8. B(H   9,C   4)                1.0982  0.003488 -0.0052    1.0930   
     9. B(H  10,C   4)                1.0977  0.000955 -0.0014    1.0963   
    10. B(C  11,C   8)                1.5306  0.005640 -0.0079    1.5227   
    11. B(H  12,C  11)                1.0924  0.003543 -0.0052    1.0872   
    12. B(C  13,C   8)                1.5340  0.003113 -0.0044    1.5296   
    13. B(C  13,H   6)                1.0958  0.005192 -0.0077    1.0882   
    14. B(H  14,C  11)                1.0953  0.005173 -0.0076    1.0877   
    15. B(H  15,C  11)                1.0959  0.004778 -0.0070    1.0889   
    16. B(H  16,C   8)                1.0971  0.001536 -0.0023    1.0949   
    17. B(H  17,C  13)                1.0957  0.004021 -0.0059    1.0898   
    18. B(H  18,C  13)                1.0961  0.005780 -0.0085    1.0875   
    19. B(H  19,C   0)                1.0962 -0.000790  0.0012    1.0974   
    20. B(H  20,O   5)                0.9763  0.008784 -0.0094    0.9670   
    21. B(O  21,C   1)                1.2253  0.046991 -0.0241    1.2012   
    22. A(C   4,C   0,N   7)          111.96  0.003476   -0.73    111.23   
    23. A(C   1,C   0,N   7)          109.24 -0.006773    1.59    110.83   
    24. A(C   4,C   0,H  19)          110.54  0.000482   -0.46    110.09   
    25. A(C   1,C   0,C   4)          110.06  0.002710   -0.44    109.62   
    26. A(N   7,C   0,H  19)          107.60  0.000591   -0.20    107.40   
    27. A(C   1,C   0,H  19)          107.29 -0.000810    0.31    107.60   
    28. A(C   0,C   1,O  21)          124.13  0.004510   -0.64    123.48   
    29. A(O   5,C   1,O  21)          121.90  0.004669   -0.60    121.30   
    30. A(C   0,C   1,O   5)          113.96 -0.009202    1.27    115.24   
    31. A(C   8,C   4,H  10)          108.01 -0.000008    0.48    108.48   
    32. A(H   9,C   4,H  10)          105.14 -0.002288    1.23    106.37   
    33. A(C   0,C   4,H  10)          107.79 -0.003462    0.86    108.65   
    34. A(C   8,C   4,H   9)          109.98 -0.001732   -0.25    109.73   
    35. A(C   0,C   4,H   9)          109.98 -0.000406   -0.55    109.43   
    36. A(C   0,C   4,C   8)          115.39  0.007012   -1.46    113.93   
    37. A(C   1,O   5,H  20)          114.35  0.006258   -0.96    113.39   
    38. A(H   2,N   7,H   3)          103.16 -0.003726    1.44    104.60   
    39. A(C   0,N   7,H   2)          108.32 -0.000560    0.37    108.69   
    40. A(C   0,N   7,H   3)          108.02 -0.000158    0.30    108.33   
    41. A(C   4,C   8,C  11)          113.10  0.005133   -1.28    111.83   
    42. A(C  13,C   8,H  16)          107.44 -0.001093    0.63    108.07   
    43. A(C  11,C   8,H  16)          108.61  0.000273    0.00    108.61   
    44. A(C   4,C   8,H  16)          109.26 -0.000050   -0.47    108.79   
    45. A(C  11,C   8,C  13)          108.77 -0.003984    1.10    109.86   
    46. A(C   4,C   8,C  13)          109.50 -0.000580    0.11    109.62   
    47. A(C   8,C  11,H  12)          111.70  0.003063   -0.62    111.08   
    48. A(H  14,C  11,H  15)          107.77 -0.001705    0.44    108.21   
    49. A(H  12,C  11,H  15)          106.61 -0.004057    0.89    107.50   
    50. A(C   8,C  11,H  15)          110.92  0.002312   -0.30    110.62   
    51. A(H  12,C  11,H  14)          108.34 -0.001462    0.00    108.35   
    52. A(C   8,C  11,H  14)          111.29  0.001398   -0.33    110.96   
    53. A(H  17,C  13,H  18)          107.42 -0.001668    0.31    107.73   
    54. A(C   8,C  13,H  18)          110.96  0.001639   -0.30    110.66   
    55. A(H   6,C  13,H  18)          108.08 -0.000353    0.05    108.13   
    56. A(C   8,C  13,H  17)          110.85 -0.001407    0.24    111.09   
    57. A(H   6,C  13,H  17)          108.11 -0.000413    0.09    108.20   
    58. A(H   6,C  13,C   8)          111.28  0.002052   -0.36    110.92   
    59. D(O   5,C   1,C   0,C   4)    -68.53  0.000048    0.05    -68.47   
    60. D(O  21,C   1,C   0,N   7)    -10.54 -0.000465   -1.27    -11.81   
    61. D(O  21,C   1,C   0,C   4)    112.77  0.001153   -1.42    111.35   
    62. D(O   5,C   1,C   0,N   7)    168.16 -0.001570    0.20    168.36   
    63. D(O   5,C   1,C   0,H  19)     51.80  0.001696   -0.57     51.24   
    64. D(H   9,C   4,C   0,N   7)     59.21 -0.001073   -0.64     58.57   
    65. D(H   9,C   4,C   0,H  19)    179.17  0.002316   -1.70    177.47   
    66. D(C   8,C   4,C   0,H  19)     54.06 -0.000457    0.24     54.30   
    67. D(C   8,C   4,C   0,N   7)    -65.89 -0.003846    1.29    -64.60   
    68. D(C   8,C   4,C   0,C   1)    172.40  0.000529    0.07    172.47   
    69. D(H   9,C   4,C   0,C   1)    -62.49  0.003302   -1.87    -64.36   
    70. D(H  20,O   5,C   1,O  21)    177.80 -0.000718    1.00    178.79   
    71. D(H  20,O   5,C   1,C   0)     -0.94  0.000356   -0.43     -1.38   
    72. D(H   2,N   7,C   0,C   1)    -51.03  0.003115   -1.00    -52.03   
    73. D(H   2,N   7,C   0,C   4)   -173.21  0.002079   -1.06   -174.27   
    74. D(H   3,N   7,C   0,C   4)    -62.11 -0.002572    0.93    -61.18   
    75. D(H   3,N   7,C   0,C   1)     60.06 -0.001536    0.99     61.06   
    76. D(H   2,N   7,C   0,H  19)     65.13 -0.001076    0.10     65.23   
    77. D(C  13,C   8,C   4,H  10)    -38.96  0.000688   -1.62    -40.58   
    78. D(C  13,C   8,C   4,H   9)     75.27 -0.002927   -0.03     75.24   
    79. D(C  13,C   8,C   4,C   0)   -159.63  0.000532   -2.12   -161.75   
    80. D(C  11,C   8,C   4,H  10)   -160.44  0.002733   -2.25   -162.68   
    81. D(C  11,C   8,C   4,H   9)    -46.21 -0.000883   -0.65    -46.86   
    82. D(C  11,C   8,C   4,C   0)     78.90  0.002576   -2.74     76.15   
    83. D(H  14,C  11,C   8,H  16)    171.98  0.002119    1.28    173.27   
    84. D(H  14,C  11,C   8,C  13)    -71.38 -0.001211    2.64    -68.74   
    85. D(H  14,C  11,C   8,C   4)     50.51 -0.001378    2.72     53.23   
    86. D(H  12,C  11,C   8,H  16)     50.75  0.000877    1.94     52.68   
    87. D(H  12,C  11,C   8,C  13)    167.39 -0.002453    3.30    170.68   
    88. D(H  12,C  11,C   8,C   4)    -70.72 -0.002620    3.37    -67.35   
    89. D(H   6,C  13,C   8,C   4)    -60.50 -0.001370    0.04    -60.46   
    90. D(H  17,C  13,C   8,H  16)    -58.71 -0.000462    0.22    -58.49   
    91. D(H  17,C  13,C   8,C  11)   -176.10  0.001922   -0.71   -176.81   
    92. D(H  17,C  13,C   8,C   4)     59.85 -0.001468    0.08     59.93   
    93. D(H   6,C  13,C   8,H  16)   -179.06 -0.000363    0.18   -178.88   
    94. D(H   6,C  13,C   8,C  11)     63.55  0.002021   -0.75     62.80   
    ----------------------------------------------------------------------------

Geometry step timings:
Preparation and reading OPT file:      0.000 s ( 0.936 %)
Internal coordinates            :      0.000 s ( 0.936 %)
B/P matrices and projection     :      0.001 s (35.132 %)
Hessian update/contruction      :      0.000 s (12.445 %)
Making the step                 :      0.000 s (27.533 %)
Converting the step to Cartesian:      0.000 s ( 4.020 %)
Storing new data                :      0.000 s ( 0.936 %)
Checking convergence            :      0.000 s ( 0.991 %)
Final printing                  :      0.000 s (17.015 %)
Total time                      :      0.002 s

Time for energy+gradient        :      0.028 s
Time for complete geometry iter :      0.031 s

         *************************************************************
         *                GEOMETRY OPTIMIZATION CYCLE   2            *
         *************************************************************
---------------------------------
CARTESIAN COORDINATES (ANGSTROEM)
---------------------------------
  C    -9.082657    6.353157   -1.643305
  C    -7.981101    7.213226   -2.280998
  H   -10.438265    7.859847   -1.758202
  H   -10.512813    6.831790   -2.996232
  C    -8.922140    4.898592   -2.089726
  O    -6.736116    6.973755   -1.833807
  H    -9.284122    2.214157   -2.582381
  N   -10.406108    6.867977   -1.984194
  C    -9.855856    3.922499   -1.371174
  H    -9.078218    4.830625   -3.169420
  H    -7.886835    4.587796   -1.906914
  C   -11.281594    4.010775   -1.898647
  H   -11.732844    4.967597   -1.647768
  C    -9.329572    2.495350   -1.532140
  H   -11.304290    3.894664   -2.979904
  H   -11.901943    3.230967   -1.459621
  H    -9.863181    4.163235   -0.303127
  H    -8.329939    2.395982   -1.109569
  H    -9.977372    1.787571   -1.020117
  H    -8.972483    6.427311   -0.553972
  H    -6.699440    6.296467   -1.144641
  O    -8.192706    8.043688   -3.122654

----------------------------
CARTESIAN COORDINATES (A.U.)
----------------------------
  NO LB    ZA    FRAG    MASS        X           Y           Z
   0 C   6.0000    1    12.011  -17.163734   12.005728   -3.105396
   1 C   6.0000    1    12.011  -15.082095   13.631021   -4.310461
   2 H   1.0000    1     1.008  -19.725462   14.852957   -3.322520
   3 H   1.0000    1     1.008  -19.866337   12.910212   -5.662058
   4 C   6.0000    1    12.011  -16.860402    9.256997   -3.949009
   5 O   8.0000    1    15.999  -12.729414   13.178486   -3.465392
   6 H   1.0000    1     1.008  -17.544448    4.184150   -4.879993
   7 N   7.0000    1    14.007  -19.664695   12.978595   -3.749582
   8 C   6.0000    1    12.011  -18.624869    7.412449   -2.591144
   9 H   1.0000    1     1.008  -17.155347    9.128558   -5.989335
  10 H   1.0000    1     1.008  -14.903957    8.669678   -3.603546
  11 C   6.0000    1    12.011  -21.319123    7.579266   -3.587923
  12 H   1.0000    1     1.008  -22.171863    9.387399   -3.113831
  13 C   6.0000    1    12.011  -17.630337    4.715527   -2.895325
  14 H   1.0000    1     1.008  -21.362012    7.359848   -5.631202
  15 H   1.0000    1     1.008  -22.491412    6.105642   -2.758283
  16 H   1.0000    1     1.008  -18.638711    7.867374   -0.572826
  17 H   1.0000    1     1.008  -15.741303    4.527749   -2.096782
  18 H   1.0000    1     1.008  -18.854500    3.378020   -1.927743
  19 H   1.0000    1     1.008  -16.955536   12.145858   -1.046856
  20 H   1.0000    1     1.008  -12.660107   11.898599   -2.163058
  21 O   8.0000    1    15.999  -15.481971   15.200368   -5.900961

      -----------------------------------------------------------      
     |                   =====================                   |     
     |                           x T B                           |     
     |                   =====================                   |     
     |                         S. Grimme                         |     
     |          Mulliken Center for Theoretical Chemistry        |     
     |                    University of Bonn                     |     
      -----------------------------------------------------------      

   * xtb version 6.7.1 (edcfbbe) compiled by 'albert@albert-system' on 2024-07-22

   xtb is free software: you can redistribute it and/or modify it under
   the terms of the GNU Lesser General Public License as published by
   the Free Software Foundation, either version 3 of the License, or
   (at your option) any later version.
   
   xtb is distributed in the hope that it will be useful,
   but WITHOUT ANY WARRANTY; without even the implied warranty of
   MERCHANTABILITY or FITNESS FOR A PARTICULAR PURPOSE.  See the
   GNU Lesser General Public License for more details.
   
   Cite this work as:
   * C. Bannwarth, E. Caldeweyher, S. Ehlert, A. Hansen, P. Pracht,
     J. Seibert, S. Spicher, S. Grimme, WIREs Comput. Mol. Sci., 2020, 11,
     e01493. DOI: 10.1002/wcms.1493
   
   for GFN2-xTB:
   * C. Bannwarth, S. Ehlert and S. Grimme., J. Chem. Theory Comput., 2019,
     15, 1652-1671. DOI: 10.1021/acs.jctc.8b01176
   for GFN1-xTB:
   * S. Grimme, C. Bannwarth, P. Shushkov, J. Chem. Theory Comput., 2017,
     13, 1989-2009. DOI: 10.1021/acs.jctc.7b00118
   for GFN0-xTB:
   * P. Pracht, E. Caldeweyher, S. Ehlert, S. Grimme, ChemRxiv, 2019, preprint.
     DOI: 10.26434/chemrxiv.8326202.v1
   for GFN-FF:
   * S. Spicher and S. Grimme, Angew. Chem. Int. Ed., 2020, 59, 15665-15673.
     DOI: 10.1002/anie.202004239
   
   for ALPB and GBSA implicit solvation:
   * S. Ehlert, M. Stahn, S. Spicher, S. Grimme, J. Chem. Theory Comput.,
     2021, 17, 4250-4261. DOI: 10.1021/acs.jctc.1c00471
   
   for ddCOSMO and CPCM-X implicit solvation:
   * M. Stahn, S. Ehlert, S. Grimme, J. Phys. Chem. A,
     2023, XX, XXXX-XXXX. DOI: 10.1021/acs.jpca.3c04382
   
   for DFT-D4:
   * E. Caldeweyher, C. Bannwarth and S. Grimme, J. Chem. Phys., 2017,
     147, 034112. DOI: 10.1063/1.4993215
   * E. Caldeweyher, S. Ehlert, A. Hansen, H. Neugebauer, S. Spicher,
     C. Bannwarth and S. Grimme, J. Chem. Phys., 2019, 150, 154122.
     DOI: 10.1063/1.5090222
   * E. Caldeweyher, J.-M. Mewes, S. Ehlert and S. Grimme, Phys. Chem. Chem. Phys.
     2020, 22, 8499-8512. DOI: 10.1039/D0CP00502A
   
   for sTDA-xTB:
   * S. Grimme and C. Bannwarth, J. Chem. Phys., 2016, 145, 054103.
     DOI: 10.1063/1.4959605
   
   in the mass-spec context:
   * V. Asgeirsson, C. Bauer and S. Grimme, Chem. Sci., 2017, 8, 4879.
     DOI: 10.1039/c7sc00601b
   * J. Koopman and S. Grimme, ACS Omega 2019, 4, 12, 15120-15133.
     DOI: 10.1021/acsomega.9b02011
   
   for metadynamics refer to:
   * S. Grimme, J. Chem. Theory Comput., 2019, 155, 2847-2862
     DOI: 10.1021/acs.jctc.9b00143
   
   for SPH calculations refer to:
   * S. Spicher and S. Grimme, J. Chem. Theory Comput., 2021, 17, 1701-1714
     DOI: 10.1021/acs.jctc.0c01306
   
   for ONIOM refer to:
   * C. Plett, A. Katbashev, S. Ehlert, S. Grimme, M. Bursch,
     Phys. Chem. Chem. Phys., 2023, 25, 17860-17868. DOI: 10.1039/D3CP02178E
   
   for DIPRO refer to:
   * J. Kohn, N. Gildemeister, S. Grimme, D. Fazzi, A. Hansen,
     J. Chem. Phys., 2023, just accepted.
   
   for PTB refer to:
   * S. Grimme, M. Mueller, A. Hansen, J. Chem. Phys., 2023, 158, 124111.
     DOI: 10.1063/5.0137838
   
   with help from (in alphabetical order)
   P. Atkinson, C. Bannwarth, F. Bohle, G. Brandenburg, E. Caldeweyher
   M. Checinski, S. Dohm, S. Ehlert, S. Ehrlich, I. Gerasimov, C. Hölzer
   A. Katbashev, J. Kohn, J. Koopman, C. Lavigne, S. Lehtola, F. März, M. Müller,
   F. Musil, H. Neugebauer, J. Pisarek, C. Plett, P. Pracht, F. Pultar,
   J. Seibert, P. Shushkov, S. Spicher, M. Stahn, M. Steiner, T. Strunk,
   J. Stückrath, T. Rose, and J. Unsleber
   
 * started run on 2025/08/06 at 21:40:05.406     
   ID    Z sym.   atoms
    1    6 C      1, 2, 5, 9, 12, 14
    2    1 H      3, 4, 7, 10, 11, 13, 15-21
    3    8 O      6, 22
    4    7 N      8

           -------------------------------------------------
          |                Calculation Setup                |
           -------------------------------------------------

          program call               : /home/uni/orca_6_1_0/otool_xtb l_XTB.xyz --grad -c 0 -u 0 -P 9 --namespace l --input l_XTB.input.tmp --acc 0.200000
          calculation namespace      : l
          coordinate file            : l_XTB.xyz
          omp threads                :                     9


           -------------------------------------------------
          |                 G F N 2 - x T B                 |
           -------------------------------------------------

        Reference                      10.1021/acs.jctc.8b01176
      * Hamiltonian:
        H0-scaling (s, p, d)           1.850000    2.230000    2.230000
        zeta-weighting                 0.500000
      * Dispersion:
        s8                             2.700000
        a1                             0.520000
        a2                             5.000000
        s9                             5.000000
      * Repulsion:
        kExp                           1.500000    1.000000
        rExp                           1.000000
      * Coulomb:
        alpha                          2.000000
        third order                    shell-resolved
        anisotropic                    true
        a3                             3.000000
        a5                             4.000000
        cn-shift                       1.200000
        cn-exp                         4.000000
        max-rad                        5.000000

q/qsh data taken from xtbrestart
CAMM data taken from xtbrestart

          ...................................................
          :                      SETUP                      :
          :.................................................:
          :  # basis functions                  49          :
          :  # atomic orbitals                  49          :
          :  # shells                           31          :
          :  # electrons                        54          :
          :  max. iterations                   250          :
          :  Hamiltonian                  GFN2-xTB          :
          :  restarted?                       true          :
          :  GBSA solvation                  false          :
          :  PC potential                    false          :
          :  electronic temp.          300.0000000     K    :
          :  accuracy                    0.2000000          :
          :  -> integral cutoff          0.3198970E+02      :
          :  -> integral neglect         0.2000000E-08      :
          :  -> SCF convergence          0.2000000E-06 Eh   :
          :  -> wf. convergence          0.2000000E-04 e    :
          :  Broyden damping             0.4000000          :
          :  net charge                          0          :
          :  unpaired electrons                  0          :
          ...................................................

 iter      E             dE          RMSdq      gap      omega  full diag
   1    -30.8768926 -0.308769E+02  0.179E-01    3.75       0.0  T
   2    -30.8769448 -0.522097E-04  0.104E-01    3.72       1.0  T
   3    -30.8769417  0.313522E-05  0.361E-02    3.74       1.0  T
   4    -30.8769503 -0.869390E-05  0.687E-03    3.73       3.1  T
   5    -30.8769506 -0.270156E-06  0.348E-03    3.73       6.1  T
   6    -30.8769506 -0.198686E-07  0.937E-04    3.73      22.8  T
   7    -30.8769506 -0.172168E-08  0.423E-04    3.73      50.4  T
   8    -30.8769506 -0.531248E-09  0.107E-04    3.73     199.6  T
   9    -30.8769506 -0.287983E-10  0.425E-05    3.73     501.5  T

   *** convergence criteria satisfied after 9 iterations ***

         #    Occupation            Energy/Eh            Energy/eV
      -------------------------------------------------------------
         1        2.0000           -0.7508292             -20.4311
       ...           ...                  ...                  ...
        21        2.0000           -0.4624890             -12.5850
        22        2.0000           -0.4581183             -12.4660
        23        2.0000           -0.4474607             -12.1760
        24        2.0000           -0.4378859             -11.9155
        25        2.0000           -0.4341670             -11.8143
        26        2.0000           -0.4282287             -11.6527
        27        2.0000           -0.3801977             -10.3457 (HOMO)
        28                         -0.2430575              -6.6139 (LUMO)
        29                          0.0289175               0.7869
        30                          0.0413120               1.1242
        31                          0.0449222               1.2224
        32                          0.0763104               2.0765
       ...                                ...                  ...
        49                          0.6246597              16.9979
      -------------------------------------------------------------
                  HL-Gap            0.1371402 Eh            3.7318 eV
             Fermi-level           -0.3116276 Eh           -8.4798 eV

 SCC (total)                   0 d,  0 h,  0 min,  0.015 sec
 SCC setup                      ...        0 min,  0.000 sec (  0.943%)
 Dispersion                     ...        0 min,  0.000 sec (  1.399%)
 classical contributions        ...        0 min,  0.000 sec (  0.458%)
 integral evaluation            ...        0 min,  0.001 sec (  4.371%)
 iterations                     ...        0 min,  0.011 sec ( 75.111%)
 molecular gradient             ...        0 min,  0.002 sec ( 16.515%)
 printout                       ...        0 min,  0.000 sec (  0.975%)

         :::::::::::::::::::::::::::::::::::::::::::::::::::::
         ::                     SUMMARY                     ::
         :::::::::::::::::::::::::::::::::::::::::::::::::::::
         :: total energy             -30.529147498345 Eh    ::
         :: gradient norm              0.018355333089 Eh/a0 ::
         :: HOMO-LUMO gap              3.731776106888 eV    ::
         ::.................................................::
         :: SCC energy               -30.876866820658 Eh    ::
         :: -> isotropic ES            0.059566567801 Eh    ::
         :: -> anisotropic ES          0.005553533624 Eh    ::
         :: -> anisotropic XC          0.011930713488 Eh    ::
         :: -> dispersion             -0.015116391089 Eh    ::
         :: repulsion energy           0.347719322313 Eh    ::
         :: add. restraining           0.000000000000 Eh    ::
         :: total charge               0.000000000000 e     ::
         :::::::::::::::::::::::::::::::::::::::::::::::::::::


Property printout bound to 'properties.out'

           -------------------------------------------------
          | TOTAL ENERGY              -30.529147498345 Eh   |
          | GRADIENT NORM               0.018355333089 Eh/α |
          | HOMO-LUMO GAP               3.731776106888 eV   |
           -------------------------------------------------

------------------------------------------------------------------------
 * finished run on 2025/08/06 at 21:40:05.428     
------------------------------------------------------------------------
 total:
 * wall-time:     0 d,  0 h,  0 min,  0.022 sec
 *  cpu-time:     0 d,  0 h,  0 min,  0.037 sec
 * ratio c/w:     1.705 speedup
 SCF:
 * wall-time:     0 d,  0 h,  0 min,  0.015 sec
 *  cpu-time:     0 d,  0 h,  0 min,  0.028 sec
 * ratio c/w:     1.867 speedup


-------------------------   --------------------
FINAL SINGLE POINT ENERGY       -30.529147498350
-------------------------   --------------------


-------------
DIPOLE MOMENT
-------------
                                X             Y             Z
Total Dipole Moment    :      0.04600      -1.12800       0.93800
                        -----------------------------------------
Magnitude (a.u.)       :      1.46777
Magnitude (Debye)      :      3.73077


------------------
CARTESIAN GRADIENT
------------------

   1   C   :    0.006394091   -0.007189817    0.002890321
   2   C   :   -0.000282860   -0.000748114    0.003626680
   3   H   :    0.001109025    0.001075271   -0.002127438
   4   H   :    0.000750561    0.002006976   -0.000783404
   5   C   :   -0.004929777    0.002016823    0.001442307
   6   O   :   -0.001762421   -0.001510341    0.000431478
   7   H   :    0.000360261   -0.000827131   -0.000005419
   8   N   :   -0.005817246   -0.002856501    0.002284461
   9   C   :    0.001027228    0.003577344   -0.000320206
  10   H   :    0.001724107   -0.000951817   -0.000391265
  11   H   :    0.000507540   -0.000159543   -0.000668078
  12   C   :    0.005415416   -0.001036374   -0.000868822
  13   H   :   -0.002451417   -0.000460541    0.000921331
  14   C   :   -0.001780800    0.001147850   -0.000348673
  15   H   :   -0.000811971    0.000769844   -0.000287845
  16   H   :   -0.001416294    0.000790278    0.000052541
  17   H   :   -0.000080942   -0.000557072   -0.000198412
  18   H   :    0.000398893   -0.000325354    0.000436065
  19   H   :    0.000484856   -0.000663884    0.000141890
  20   H   :    0.000493845    0.001149745   -0.001506150
  21   H   :    0.001294317   -0.000255810    0.000537385
  22   O   :   -0.000626412    0.005008167   -0.005258747

Difference to translation invariance:
           :    0.0000000000   -0.0000000000   -0.0000000000

Difference to rotation invariance:
           :   -0.0000000416    0.0000002449    0.0000002232

Norm of the Cartesian gradient     ...    0.0183553331
RMS gradient                       ...    0.0022593853
MAX gradient                       ...    0.0071898168
------------------------------------------------------------------------------
                         ORCA GEOMETRY RELAXATION STEP
------------------------------------------------------------------------------

Reading the OPT-File                    .... done
Getting information on internals        .... done
Copying old internal coords+grads       .... done
Making the new internal coordinates     .... (2022 redundants) done
Validating the new internal coordinates .... (2022 redundants) done
Calculating the B-matrix                .... done
Calculating the G,G- and P matrices     .... done
Transforming gradient to internals      .... done
Projecting the internal gradient        .... done
Number of atoms                         ....  22
Number of internal coordinates          ....  94
Current Energy                          ....   -30.529147498 Eh
Current gradient norm                   ....     0.018355333 Eh/bohr
Maximum allowed component of the step   ....  0.300
Current trust radius                    ....  0.300
Updating the Hessian (BFGS)             .... done
Forming the augmented Hessian           .... done
Diagonalizing the augmented Hessian     .... done
Last element of RFO vector              ....  0.979269843
Lowest eigenvalues of augmented Hessian:
 -0.001002865  0.009998644  0.010173400  0.010658191  0.010842144
Length of the computed step             ....  0.206848045
The final length of the internal step   ....  0.206848045
Converting the step to Cartesian space:
 Initial RMS(Int)=    0.0213347468
Transforming coordinates:
 Iter   0:  RMS(Cart)=    0.0531281820 RMS(Int)=    0.0212803776
 Iter   5:  RMS(Cart)=    0.0000000079 RMS(Int)=    0.0000000062
done
Storing new coordinates                 .... done
The predicted energy change is          ....    -0.000522887
Previously predicted energy change      ....    -0.003335018
Actually observed energy change         ....    -0.003817140
Ratio of predicted to observed change   ....     1.144563274
New trust radius                        ....     0.450000000

                                .--------------------.
          ----------------------|Geometry convergence|-------------------------
          Item                value                   Tolerance       Converged
          ---------------------------------------------------------------------
          Energy change      -0.0038171396            0.0000050000      NO
          RMS gradient        0.0012970912            0.0001000000      NO
          MAX gradient        0.0072576217            0.0003000000      NO
          RMS step            0.0213347468            0.0020000000      NO
          MAX step            0.0653165027            0.0040000000      NO
          -------------------------------------------------------------------------
          ........................................................
          Max(Bonds)      0.0075      Max(Angles)    1.16
          Max(Dihed)        3.74      Max(Improp)    0.00
          ---------------------------------------------------------------------

    ---------------------------------------------------------------------------
                         Redundant Internal Coordinates
                            (Angstroem and degrees)

        Definition                    Value    dE/dq     Step     New-Value
    ----------------------------------------------------------------------------
     1. B(C   1,C   0)                1.5362  0.000684 -0.0023    1.5339   
     2. B(C   4,C   0)                1.5300 -0.003292  0.0047    1.5347   
     3. B(O   5,C   1)                1.3444  0.000203 -0.0012    1.3432   
     4. B(N   7,H   3)                1.0183  0.000629 -0.0016    1.0167   
     5. B(N   7,C   0)                1.4604  0.003812 -0.0075    1.4529   
     6. B(N   7,H   2)                1.0178  0.000540 -0.0015    1.0163   
     7. B(C   8,C   4)                1.5300 -0.002464  0.0027    1.5327   
     8. B(H   9,C   4)                1.0930  0.000199 -0.0009    1.0921   
     9. B(H  10,C   4)                1.0963  0.000413 -0.0009    1.0954   
    10. B(C  11,C   8)                1.5227 -0.000622  0.0002    1.5229   
    11. B(H  12,C  11)                1.0872  0.000825 -0.0020    1.0852   
    12. B(C  13,C   8)                1.5296  0.000415 -0.0012    1.5284   
    13. B(C  13,H   6)                1.0882  0.000234 -0.0013    1.0869   
    14. B(H  14,C  11)                1.0877  0.000221 -0.0012    1.0865   
    15. B(H  15,C  11)                1.0889  0.000262 -0.0013    1.0876   
    16. B(H  16,C   8)                1.0949 -0.000315  0.0003    1.0952   
    17. B(H  17,C  13)                1.0898  0.000565 -0.0017    1.0882   
    18. B(H  18,C  13)                1.0875  0.000210 -0.0013    1.0862   
    19. B(H  19,C   0)                1.0974 -0.001368  0.0026    1.1000   
    20. B(H  20,O   5)                0.9670  0.000611 -0.0018    0.9651   
    21. B(O  21,C   1)                1.2012  0.007258 -0.0072    1.1940   
    22. A(C   4,C   0,N   7)          111.23 -0.001229    0.26    111.49   
    23. A(C   1,C   0,N   7)          110.83 -0.000858    0.46    111.29   
    24. A(C   4,C   0,H  19)          110.08  0.001081   -0.42    109.67   
    25. A(C   1,C   0,C   4)          109.63  0.001887   -0.53    109.10   
    26. A(N   7,C   0,H  19)          107.39  0.000286   -0.00    107.39   
    27. A(C   1,C   0,H  19)          107.59 -0.001194    0.24    107.84   
    28. A(C   0,C   1,O  21)          123.48  0.001883   -0.40    123.08   
    29. A(O   5,C   1,O  21)          121.29  0.000429   -0.15    121.14   
    30. A(C   0,C   1,O   5)          115.23 -0.002313    0.51    115.74   
    31. A(C   8,C   4,H  10)          108.49  0.000608    0.00    108.49   
    32. A(H   9,C   4,H  10)          106.38 -0.000834    0.45    106.83   
    33. A(C   0,C   4,H  10)          108.66  0.000257    0.09    108.75   
    34. A(C   8,C   4,H   9)          109.70  0.000065   -0.08    109.62   
    35. A(C   0,C   4,H   9)          109.41  0.001349   -0.47    108.94   
    36. A(C   0,C   4,C   8)          113.92 -0.001426    0.06    113.98   
    37. A(C   1,O   5,H  20)          113.39  0.002350   -0.54    112.85   
    38. A(H   2,N   7,H   3)          104.60 -0.001584    1.16    105.76   
    39. A(C   0,N   7,H   2)          108.68 -0.001297    0.54    109.23   
    40. A(C   0,N   7,H   3)          108.33 -0.000664    0.41    108.74   
    41. A(C   4,C   8,C  11)          111.82 -0.000498   -0.02    111.80   
    42. A(C  13,C   8,H  16)          108.07 -0.000677    0.27    108.34   
    43. A(C  11,C   8,H  16)          108.60  0.000268   -0.07    108.53   
    44. A(C   4,C   8,H  16)          108.78  0.000602   -0.35    108.43   
    45. A(C  11,C   8,C  13)          109.86  0.000030    0.21    110.07   
    46. A(C   4,C   8,C  13)          109.62  0.000269   -0.03    109.60   
    47. A(C   8,C  11,H  12)          111.08  0.001738   -0.48    110.61   
    48. A(H  14,C  11,H  15)          108.21 -0.000475    0.21    108.41   
    49. A(H  12,C  11,H  15)          107.50 -0.002559    0.74    108.25   
    50. A(C   8,C  11,H  15)          110.62  0.001188   -0.24    110.39   
    51. A(H  12,C  11,H  14)          108.34 -0.001086    0.12    108.46   
    52. A(C   8,C  11,H  14)          110.96  0.000990   -0.29    110.67   
    53. A(H  17,C  13,H  18)          107.73 -0.001071    0.28    108.01   
    54. A(C   8,C  13,H  18)          110.65  0.000801   -0.20    110.45   
    55. A(H   6,C  13,H  18)          108.13 -0.000321    0.08    108.21   
    56. A(C   8,C  13,H  17)          111.09 -0.000388    0.10    111.19   
    57. A(H   6,C  13,H  17)          108.20 -0.000480    0.10    108.30   
    58. A(H   6,C  13,C   8)          110.92  0.001366   -0.34    110.58   
    59. D(O   5,C   1,C   0,C   4)    -68.47 -0.000488   -1.18    -69.66   
    60. D(O  21,C   1,C   0,N   7)    -11.81  0.000226    0.08    -11.73   
    61. D(O  21,C   1,C   0,C   4)    111.35 -0.000610    0.37    111.72   
    62. D(O   5,C   1,C   0,N   7)    168.36  0.000348   -1.47    166.90   
    63. D(O   5,C   1,C   0,H  19)     51.23  0.001181   -1.84     49.39   
    64. D(H   9,C   4,C   0,N   7)     58.57  0.000312   -3.35     55.22   
    65. D(H   9,C   4,C   0,H  19)    177.48  0.000590   -3.46    174.02   
    66. D(C   8,C   4,C   0,H  19)     54.30  0.000493   -3.02     51.28   
    67. D(C   8,C   4,C   0,N   7)    -64.61  0.000215   -2.91    -67.52   
    68. D(C   8,C   4,C   0,C   1)    172.46  0.000826   -3.30    169.16   
    69. D(H   9,C   4,C   0,C   1)    -64.35  0.000923   -3.74    -68.10   
    70. D(H  20,O   5,C   1,O  21)    178.79  0.000020   -0.65    178.14   
    71. D(H  20,O   5,C   1,C   0)     -1.38 -0.000097    0.86     -0.52   
    72. D(H   2,N   7,C   0,C   1)    -52.03  0.001998   -1.47    -53.51   
    73. D(H   2,N   7,C   0,C   4)   -174.27  0.001040   -1.29   -175.56   
    74. D(H   3,N   7,C   0,C   4)    -61.17 -0.001805    0.52    -60.66   
    75. D(H   3,N   7,C   0,C   1)     61.06 -0.000847    0.33     61.39   
    76. D(H   2,N   7,C   0,H  19)     65.23  0.000260   -0.94     64.28   
    77. D(C  13,C   8,C   4,H  10)    -40.59  0.000108   -0.08    -40.67   
    78. D(C  13,C   8,C   4,H   9)     75.23 -0.000512    0.41     75.64   
    79. D(C  13,C   8,C   4,C   0)   -161.74  0.000281   -0.23   -161.97   
    80. D(C  11,C   8,C   4,H  10)   -162.68  0.000217   -0.31   -163.00   
    81. D(C  11,C   8,C   4,H   9)    -46.87 -0.000403    0.18    -46.69   
    82. D(C  11,C   8,C   4,C   0)     76.16  0.000390   -0.46     75.70   
    83. D(H  14,C  11,C   8,H  16)    173.27  0.000125    2.48    175.75   
    84. D(H  14,C  11,C   8,C  13)    -68.73 -0.000518    2.88    -65.85   
    85. D(H  14,C  11,C   8,C   4)     53.23 -0.000491    2.98     56.21   
    86. D(H  12,C  11,C   8,H  16)     52.69 -0.000338    2.85     55.54   
    87. D(H  12,C  11,C   8,C  13)    170.68 -0.000981    3.26    173.94   
    88. D(H  12,C  11,C   8,C   4)    -67.36 -0.000954    3.35    -64.00   
    89. D(H   6,C  13,C   8,C   4)    -60.46  0.000291   -0.19    -60.65   
    90. D(H  17,C  13,C   8,H  16)    -58.48 -0.000141    0.06    -58.42   
    91. D(H  17,C  13,C   8,C  11)   -176.81 -0.000084   -0.13   -176.94   
    92. D(H  17,C  13,C   8,C   4)     59.93  0.000341   -0.22     59.71   
    93. D(H   6,C  13,C   8,H  16)   -178.87 -0.000191    0.09   -178.78   
    94. D(H   6,C  13,C   8,C  11)     62.80 -0.000134   -0.10     62.70   
    ----------------------------------------------------------------------------

Geometry step timings:
Preparation and reading OPT file:      0.000 s ( 0.868 %)
Internal coordinates            :      0.000 s ( 1.061 %)
B/P matrices and projection     :      0.001 s (40.405 %)
Hessian update/contruction      :      0.000 s (11.283 %)
Making the step                 :      0.001 s (27.338 %)
Converting the step to Cartesian:      0.000 s ( 3.327 %)
Storing new data                :      0.000 s ( 0.868 %)
Checking convergence            :      0.000 s ( 1.157 %)
Final printing                  :      0.000 s (13.693 %)
Total time                      :      0.002 s

Time for energy+gradient        :      0.028 s
Time for complete geometry iter :      0.030 s

         *************************************************************
         *                GEOMETRY OPTIMIZATION CYCLE   3            *
         *************************************************************
---------------------------------
CARTESIAN COORDINATES (ANGSTROEM)
---------------------------------
  C    -9.098609    6.359949   -1.663044
  C    -7.964412    7.199836   -2.263925
  H   -10.443505    7.873886   -1.786128
  H   -10.490401    6.854729   -3.045491
  C    -8.935832    4.901620   -2.112573
  O    -6.738691    6.966062   -1.766782
  H    -9.299085    2.220667   -2.601379
  N   -10.400078    6.889098   -2.033419
  C    -9.848125    3.916466   -1.373316
  H    -9.122643    4.838836   -3.186738
  H    -7.895411    4.598170   -1.953353
[...]
CAMM data taken from xtbrestart

          ...................................................
          :                      SETUP                      :
          :.................................................:
          :  # basis functions                  49          :
          :  # atomic orbitals                  49          :
          :  # shells                           31          :
          :  # electrons                        54          :
          :  max. iterations                   250          :
          :  Hamiltonian                  GFN2-xTB          :
          :  restarted?                       true          :
          :  GBSA solvation                  false          :
          :  PC potential                    false          :
          :  electronic temp.          300.0000000     K    :
          :  accuracy                    0.2000000          :
          :  -> integral cutoff          0.3198970E+02      :
          :  -> integral neglect         0.2000000E-08      :
          :  -> SCF convergence          0.2000000E-06 Eh   :
          :  -> wf. convergence          0.2000000E-04 e    :
          :  Broyden damping             0.4000000          :
          :  net charge                          0          :
          :  unpaired electrons                  0          :
          ...................................................

 iter      E             dE          RMSdq      gap      omega  full diag
   1    -30.8805285 -0.308805E+02  0.904E-03    3.74       0.0  T
   2    -30.8805285 -0.100938E-07  0.530E-03    3.74       4.0  T
   3    -30.8805285 -0.205210E-08  0.341E-04    3.74      62.6  T
   4    -30.8805285 -0.716032E-09  0.166E-04    3.74     128.2  T
   5    -30.8805285 -0.460005E-10  0.606E-05    3.74     352.1  T

   *** convergence criteria satisfied after 5 iterations ***

         #    Occupation            Energy/Eh            Energy/eV
      -------------------------------------------------------------
         1        2.0000           -0.7501710             -20.4132
       ...           ...                  ...                  ...
        21        2.0000           -0.4622250             -12.5778
        22        2.0000           -0.4583545             -12.4725
        23        2.0000           -0.4473573             -12.1732
        24        2.0000           -0.4391674             -11.9504
        25        2.0000           -0.4353279             -11.8459
        26        2.0000           -0.4285376             -11.6611
        27        2.0000           -0.3784695             -10.2987 (HOMO)
        28                         -0.2411370              -6.5617 (LUMO)
        29                          0.0310395               0.8446
        30                          0.0430374               1.1711
        31                          0.0521934               1.4203
        32                          0.0759249               2.0660
       ...                                ...                  ...
        49                          0.6382316              17.3672
      -------------------------------------------------------------
                  HL-Gap            0.1373326 Eh            3.7370 eV
             Fermi-level           -0.3098032 Eh           -8.4302 eV

 SCC (total)                   0 d,  0 h,  0 min,  0.012 sec
 SCC setup                      ...        0 min,  0.000 sec (  1.456%)
 Dispersion                     ...        0 min,  0.000 sec (  2.447%)
 classical contributions        ...        0 min,  0.000 sec (  2.007%)
 integral evaluation            ...        0 min,  0.001 sec (  9.755%)
 iterations                     ...        0 min,  0.008 sec ( 66.799%)
 molecular gradient             ...        0 min,  0.002 sec ( 16.829%)
 printout                       ...        0 min,  0.000 sec (  0.567%)

         :::::::::::::::::::::::::::::::::::::::::::::::::::::
         ::                     SUMMARY                     ::
         :::::::::::::::::::::::::::::::::::::::::::::::::::::
         :: total energy             -30.530441343431 Eh    ::
         :: gradient norm              0.000245297680 Eh/a0 ::
         :: HOMO-LUMO gap              3.737008970335 eV    ::
         ::.................................................::
         :: SCC energy               -30.880441569075 Eh    ::
         :: -> isotropic ES            0.059528812030 Eh    ::
         :: -> anisotropic ES          0.005161127826 Eh    ::
         :: -> anisotropic XC          0.011926403593 Eh    ::
         :: -> dispersion             -0.015093671237 Eh    ::
         :: repulsion energy           0.350000225644 Eh    ::
         :: add. restraining           0.000000000000 Eh    ::
         :: total charge               0.000000000000 e     ::
         :::::::::::::::::::::::::::::::::::::::::::::::::::::


Property printout bound to 'properties.out'

           -------------------------------------------------
          | TOTAL ENERGY              -30.530441343431 Eh   |
          | GRADIENT NORM               0.000245297680 Eh/α |
          | HOMO-LUMO GAP               3.737008970335 eV   |
           -------------------------------------------------

------------------------------------------------------------------------
 * finished run on 2025/08/06 at 21:40:05.679     
------------------------------------------------------------------------
 total:
 * wall-time:     0 d,  0 h,  0 min,  0.018 sec
 *  cpu-time:     0 d,  0 h,  0 min,  0.029 sec
 * ratio c/w:     1.580 speedup
 SCF:
 * wall-time:     0 d,  0 h,  0 min,  0.012 sec
 *  cpu-time:     0 d,  0 h,  0 min,  0.020 sec
 * ratio c/w:     1.725 speedup


-------------------------   --------------------
FINAL SINGLE POINT ENERGY       -30.530441343430
-------------------------   --------------------


-------------
DIPOLE MOMENT
-------------
                                X             Y             Z
Total Dipole Moment    :     -0.19400      -1.06500       0.98000
                        -----------------------------------------
Magnitude (a.u.)       :      1.46023
Magnitude (Debye)      :      3.71160

                                *** OPTIMIZATION RUN DONE ***

		     ------------------------------
			                   _   
			                  | |  
			  __ _  ___   __ _| |_ 
			 / _` |/ _ \ / _` | __|
			| (_| | (_) | (_| | |_ 
			 \__, |\___/ \__,_|\__|
			 __/ |                
			|___/                 

		      A Global Optimizer Algorithm
		     ------------------------------

Global parameters
-----------------
  GOAT version                               ... default
  Minimum global steps                       ... 3
  Number of base workers                     ... 4
  Split workers by                           ... 2
  Final number of workers                    ... 8
  Number of available CPUs                   ... 9
  Parameter list (worker : temperature)      ...  0 : 2903.97,  1 : 1451.98, 
                                                  2 :  725.99,  3 :  363.00, 
                                                  4 : 2903.97,  5 : 1451.98, 
                                                  6 :  725.99,  7 :  363.00 
  GradComp (mean : sigma)                    ... 1.00 : 0.50
  Number of fragments                        ... 1
  Number of atoms                            ... 22
  Flexibility parameter                      ... 0.86
  Optimizations per global step              ... 352
  Optimizations per worker                   ... 44

Filtering criteria
------------------
  RMSD                                       ... 0.125 Angs (atom. pos.)
  EnDiff                                     ... 0.100 kcal/mol
  RotConst                                   ... 1.00-2.50 %
  Maximum Conf. Energy                       ... 6.000 kcal/mol

Thermodynamics
--------------
  Ensemble temperature                       ... 298.15 K
  Degeneracy of conformers                   ... 1
  *No rotamers will be included in Gconf

------------------------------------------------------------------------------
   Iter  MinTemp     MaxEn       GradComp    NOpt   NProcs    Output
------------------------------------------------------------------------------
List of participating nodes    ...  l.goat.0.hostnames

   0     2903.97     66.00    1.00 : 0.50      44        1    l.goat.0.0.out
   1     1451.98     66.00    1.00 : 0.50      44        1    l.goat.0.1.out
   3      363.00     66.00    1.00 : 0.50      44        1    l.goat.0.3.out
   2      725.99     66.00    1.00 : 0.50      44        1    l.goat.0.2.out
   4     2903.97     66.00    1.00 : 0.50      44        1    l.goat.0.4.out
   5     1451.98     66.00    1.00 : 0.50      44        1    l.goat.0.5.out
   7      363.00     66.00    1.00 : 0.50      44        1    l.goat.0.7.out
   6      725.99     66.00    1.00 : 0.50      44        1    l.goat.0.6.out

			     GOAT Global Iter 1
		Iter    Min En       Sconf       Gconf   
		        Hartree      cal/(molK)  kcal/mol
		=========================================

		   1    -30.540411   5.639       -0.896

List of participating nodes    ...  l.goat.1.hostnames

   0     2903.97     66.00    1.00 : 0.50      44        1    l.goat.1.0.out
   5     1451.98     66.00    1.00 : 0.50      44        1    l.goat.1.5.out
   1     1451.98     66.00    1.00 : 0.50      44        1    l.goat.1.1.out
   2      725.99     66.00    1.00 : 0.50      44        1    l.goat.1.2.out
   4     2903.97     66.00    1.00 : 0.50      44        1    l.goat.1.4.out
   3      363.00     66.00    1.00 : 0.50      44        1    l.goat.1.3.out
   6      725.99     66.00    1.00 : 0.50      44        1    l.goat.1.6.out
   7      363.00     66.00    1.00 : 0.50      44        1    l.goat.1.7.out

			     GOAT Global Iter 2
		Iter    Min En       Sconf       Gconf   
		        Hartree      cal/(molK)  kcal/mol
		=========================================

		   1    -30.540411   5.639       -0.896
		   2    -30.540411   5.868       -0.915

List of participating nodes    ...  l.goat.2.hostnames

   0     2903.97     66.00    1.00 : 0.50      44        1    l.goat.2.0.out
   3      363.00     66.00    1.00 : 0.50      44        1    l.goat.2.3.out
   6      725.99     66.00    1.00 : 0.50      44        1    l.goat.2.6.out
   1     1451.98     66.00    1.00 : 0.50      44        1    l.goat.2.1.out
   2      725.99     66.00    1.00 : 0.50      44        1    l.goat.2.2.out
   4     2903.97     66.00    1.00 : 0.50      44        1    l.goat.2.4.out
   5     1451.98     66.00    1.00 : 0.50      44        1    l.goat.2.5.out
   7      363.00     66.00    1.00 : 0.50      44        1    l.goat.2.7.out

			     GOAT Global Iter 3
		Iter    Min En       Sconf       Gconf   
		        Hartree      cal/(molK)  kcal/mol
		=========================================

		   1    -30.540411   5.639       -0.896
		   2    -30.540411   5.868       -0.915
		   3    -30.540411   5.996       -0.926

		Global minimum found!
		Writing structure to l.globalminimum.xyz

		# Final ensemble info #
		Conformer     Energy     Degen.   % total   % cumul.  
		              (kcal/mol)
		------------------------------------------------------
		        0     0.000	     1      20.97      20.97
		        1     0.384	     1      10.96      31.93
		        2     0.568	     1       8.04      39.97
		        3     0.606	     1       7.55      47.52
		        4     0.607	     1       7.53      55.05
		        5     0.849	     1       5.00      60.05
		        6     0.934	     1       4.34      64.39
		        7     1.011	     1       3.81      68.20
		        8     1.151	     1       3.01      71.20
		        9     1.362	     1       2.11      73.31
		       10     1.384	     1       2.03      75.34
		       11     1.387	     1       2.02      77.36
		       12     1.400	     1       1.97      79.33
		       13     1.430	     1       1.88      81.21
		       14     1.456	     1       1.80      83.00
		       15     1.459	     1       1.79      84.79
		       16     1.461	     1       1.78      86.57
		       17     1.546	     1       1.54      88.11
		       18     1.729	     1       1.13      89.24
		       19     1.934	     1       0.80      90.05
		       20     1.966	     1       0.76      90.80
		       21     2.034	     1       0.68      91.48
		       22     2.057	     1       0.65      92.13
		       23     2.076	     1       0.63      92.76
		       24     2.079	     1       0.63      93.39
		       25     2.135	     1       0.57      93.96
		       26     2.355	     1       0.39      94.36
		       27     2.361	     1       0.39      94.75
		       28     2.366	     1       0.39      95.13
		       29     2.404	     1       0.36      95.49
		       30     2.414	     1       0.36      95.85
		       31     2.444	     1       0.34      96.19
		       32     2.531	     1       0.29      96.48
		       33     2.602	     1       0.26      96.74
		       34     2.627	     1       0.25      96.99
		       35     2.644	     1       0.24      97.23
		       36     2.681	     1       0.23      97.46
		       37     2.685	     1       0.23      97.69
		       38     2.714	     1       0.21      97.90
		       39     2.863	     1       0.17      98.07
		       40     3.010	     1       0.13      98.20
		       41     3.080	     1       0.12      98.31
		       42     3.111	     1       0.11      98.42
		       43     3.146	     1       0.10      98.53
		       44     3.151	     1       0.10      98.63
		       45     3.155	     1       0.10      98.73
		       46     3.217	     1       0.09      98.82
		       47     3.328	     1       0.08      98.90
		       48     3.341	     1       0.07      98.98
		       49     3.355	     1       0.07      99.05
		       50     3.375	     1       0.07      99.12
		       51     3.395	     1       0.07      99.19
		       52     3.439	     1       0.06      99.25
		       53     3.444	     1       0.06      99.31
		       54     3.599	     1       0.05      99.36
		       55     3.600	     1       0.05      99.41
		       56     3.638	     1       0.05      99.45
		       57     3.679	     1       0.04      99.50
		       58     3.771	     1       0.04      99.53
		       59     3.781	     1       0.04      99.57
		       60     3.786	     1       0.04      99.60
		       61     3.836	     1       0.03      99.64
		       62     3.868	     1       0.03      99.67
		       63     3.887	     1       0.03      99.70
		       64     3.903	     1       0.03      99.72
		       65     3.932	     1       0.03      99.75
		       66     3.960	     1       0.03      99.78
		       67     3.986	     1       0.03      99.80
		       68     3.988	     1       0.03      99.83
		       69     4.024	     1       0.02      99.85
		       70     4.039	     1       0.02      99.88
		       71     4.218	     1       0.02      99.89
		       72     4.233	     1       0.02      99.91
		       73     4.302	     1       0.01      99.92
		       74     4.391	     1       0.01      99.94
		       75     4.461	     1       0.01      99.95
		       76     4.487	     1       0.01      99.96
		       77     4.554	     1       0.01      99.97
		       78     4.582	     1       0.01      99.98
		       79     4.629	     1       0.01      99.99
		       80     4.812	     1       0.01      99.99
		       81     5.243	     1       0.00      99.99
		       82     5.596	     1       0.00     100.00
		       83     5.672	     1       0.00     100.00
		       84     5.764	     1       0.00     100.00
		       85     5.908	     1       0.00     100.00

		Conformers below 3 kcal/mol: 40
		Lowest energy conformer    : -30.540411 Eh
		Sconf at 298.15 K          :  6.00 cal/(molK)
		Gconf at 298.15 K          : -0.93 kcal/mol

		Writing final ensemble to l.finalensemble.xyz

--------------------------------
SUGGESTED CITATIONS FOR THIS RUN
--------------------------------

Below you find a list of papers that are relevant to this ORCA run
We neither can nor want to force you to cite these papers, but we appreciate if you do
You receive ORCA, which is the product of decades of hard work by many enthusiastic individuals, for free
The only thing we kindly ask in return is that you cite our papers,
We deeply appreciate it, if you show your appreciation for ORCA by not just citing the generic ORCA reference.

Please note that relegating all ORCA citations to the supporting information does *not* help us.
SI sections are not indexed - citations you put there will not count into any citation statistics
But we need these citations in order to attract the funding resources that allow us to do what we are doing

Therefore, if you are a happy ORCA user, please consider citing a few of the papers listed below in the main body of your paper

In addition to the list printed below, the program has created the file l.bibtex that contains the list in bibtex format
You can import this file easily into all common literature databanks and citation aid programs


List of essential papers. We consider these as the minimum necessary citations

  1. Bannwarth, C.; Ehlert, S.; Grimme, S.
     GFN2-xTB—An Accurate and Broadly Parametrized Self-Consistent Tight-Binding Quantum Chemical Method with Multipole Electrostatics and Density-Dependent Dispersion Contributions
     J. Chem. Theory Comput. 2019 15(3), 1652-1671
     doi.org/10.1021/acs.jctc.8b01176
  2. Neese, F.
     Software update: the ORCA program system, version 6.0
     WIRES Comput. Molec. Sci. 2025 15(1), e70019
     doi.org/10.1002/wcms.7019
  3. de Souza, B.
     GOAT: A Global Optimization Algorithm for Molecules and Atomic Clusters
     Angewandte Chemie 2025 64(18), e202500393
     doi.org/10.1002/anie.202500393

List of papers to cite with high priority. The work reported in these papers was absolutely
necessary for this run to complete.
Our perspective: the developers of density functionals and basis sets usually get cited in chemistry papers
Good! But without the algorithms to do something with them, the functionals or basis sets would not do anything.
Hence, in our opinion, the algorithm design and method developments papers are equally worthy of getting cited

  1. Bannwarth, C.; Caldeweyher, E.; Ehlert, S.; Hansen, A.; Pracht, P.; Seibert, J.; Spicher, S.; Grimme, S.
     Extended tight-binding quantum chemistry methods
     WIRES Comput. Molec. Sci. 2020 11(2), e1493
     doi.org/10.1002/wcms.1493

List of suggested additional citations. These are papers that are important in the 'surrounding' of 
of this run, or papers that preceded the highly important papers. If you like your results we are grateful for a citation.

  1. Neese, F.
     The ORCA program system
     WIRES Comput. Molec. Sci. 2012 2(1), 73-78
     doi.org/10.1002/wcms.81
  2. Neese, F.
     Software update: the ORCA program system, version 4.0
     WIRES Comput. Molec. Sci. 2018 8(1), 1-6
     doi.org/10.1002/wcms.1327
  3. Neese, F.; Wennmohs, F.; Becker, U.; Riplinger, C.
     The ORCA quantum chemistry program package
     J. Chem. Phys. 2020 152(22), 224108
     doi.org/10.1063/5.0004608
  4. Neese, F.
     Software update: The ORCA program system—Version 5.0
     WIRES Comput. Molec. Sci. 2022 12(1), e1606
     doi.org/10.1002/wcms.1606

List of optional additional citations

  1. Neese, F.
     Approximate second-order SCF convergence for spin unrestricted wavefunctions
     Chem. Phys. Lett. 2000 325(1-3), 93-98
     doi.org/10.1016/s0009-2614(00)00662-x

Timings for individual modules:

Sum of individual times          ...      241.285 sec (=   4.021 min)
Geometry relaxation              ...        0.025 sec (=   0.000 min)   0.0 %
GOAT                             ...      240.986 sec (=   4.016 min)  99.9 %
XTB module                       ...        0.274 sec (=   0.005 min)   0.1 %
                             ****ORCA TERMINATED NORMALLY****
TOTAL RUN TIME: 0 days 0 hours 4 minutes 2 seconds 285 msec
