
                                 *****************
                                 * O   R   C   A *
                                 *****************

                                            #,                                       
                                            ###                                      
                                            ####                                     
                                            #####                                    
                                            ######                                   
                                           ########,                                 
                                     ,,################,,,,,                         
                               ,,#################################,,                 
                          ,,##########################################,,             
                       ,#########################################, ''#####,          
                    ,#############################################,,   '####,        
                  ,##################################################,,,,####,       
                ,###########''''           ''''###############################       
              ,#####''   ,,,,##########,,,,          '''####'''          '####       
            ,##' ,,,,###########################,,,                        '##       
           ' ,,###''''                  '''############,,,                           
         ,,##''                                '''############,,,,        ,,,,,,###''
      ,#''                                            '''#######################'''  
     '                                                          ''''####''''         
             ,#######,   #######,   ,#######,      ##                                
            ,#'     '#,  ##    ##  ,#'     '#,    #''#        ,####,    ,#,          
            ##       ##  ##   ,#'  ##            #'  '#       #'       ,# #          
            ##       ##  #######   ##           ,######,      #####,      #          
            '#,     ,#'  ##    ##  '#,     ,#' ,#      #,     #,   #      #          
             '#######'   ##     ##  '#######'  #'      '#     '####' #    #          



                #########################################################
                #                        -***-                          #
                #          Department of theory and spectroscopy        #
                #                                                       #
                #                      Frank Neese                      #
                #                                                       #
                #     Directorship, Architecture, Infrastructure        #
                #                    SHARK, DRIVERS                     #
                #        Core code/Algorithms in most modules           #
                #                                                       #
                #        Max Planck Institute fuer Kohlenforschung      #
                #                Kaiser Wilhelm Platz 1                 #
                #                 D-45470 Muelheim/Ruhr                 #
                #                      Germany                          #
                #                                                       #
                #                  All rights reserved                  #
                #                        -***-                          #
                #########################################################


                         Program Version 6.1.0  -  RELEASE   -
                                (GIT: $679e74b$)
                          ($2025-06-10 18:02:51 +0200$)


 With contributions from (in alphabetic order):
[Max-Planck-Institut fuer Kohlenforschung]                               
  Daniel Aravena         : Magnetic Suceptibility                        
  Michael Atanasov       : Ab Initio Ligand Field Theory (pilot matlab implementation)
  Alexander A. Auer      : GIAO ZORA, VPT2 properties, NMR spectrum      
  Ute Becker             : All parallelization in ORCA, NUMFREQ, NUMCALC 
  Giovanni Bistoni       : ED, misc. LED, open-shell LED, HFLD           
  Dmytro Bykov           : pre 5.0 version of the SCF Hessian            
  Marcos Casanova-Páez   : Triplet and SCS-CIS(D). UHF-(DLPNO)-IP/EA/STEOM-CCSD. UHF-CVS-IP/STEOM-CCSD   
  Vijay G. Chilkuri      : MRCI spin determinant printing, contributions to CSF-ICE 
  Pauline Colinet        : FMM embedding                                 
  Dipayan Datta          : RHF DLPNO-CCSD density                        
  Achintya Kumar Dutta   : EOM-CC, STEOM-CC                              
  Nicolas Foglia         : Exact transition moments, OPA infrastructure, MCD improvements    
  Dmitry Ganyushin       : Spin-Orbit,Spin-Spin,Magnetic field MRCI      
  Miquel Garcia-Rates    : C-PCM and meta-GGA Hessian, CCSD/C-PCM, Gaussian charge scheme 
  Tiago L. C. Gouveia    : GS-ROHF, GS-ROCIS                             
  Yang Guo               : DLPNO-NEVPT2, F12-NEVPT2, CIM, IAO-localization        
  Andreas Hansen         : Spin unrestricted coupled pair/coupled cluster methods 
  Ingolf Harden          : AUTO-CI MPn and infrastructure                
  Benjamin Helmich-Paris : MC-RPA, TRAH-(SCF,CASSCF), AVAS, COSX integrals, SCF dyn. polar., MC-PDFT, srDFT 
  Lee Huntington         : MR-EOM, pCC                                   
  Robert Izsak           : Overlap fitted RIJCOSX, COSX-SCS-MP3, EOM     
  Riya Kayal             : Wick's Theorem for AUTO-CI, AUTO-CI UHF-CCSDT 
  Emily Kempfer          : AUTO-CI RHF CISDT and CCSDT, approximate NEVPT4
  Christian Kollmar      : KDIIS, OOCD, Brueckner-CCSD(T), CCSD density, CASPT2, CASPT2-K, improved NEVPT2 
  Axel Koslowski         : Symmetry handling                             
  Simone Kossmann        : meta-GGA functionals, TD-DFT gradient, OOMP2, (MP2 Hessian; deprecated post 5.0) 
  Lucas Lang             : DCDCAS, Hyperfine gauge corrections, ICE-SOC+SSC
  Marvin Lechner         : AUTO-CI (C++ implementation), FIC-MRCC        
  Spencer Leger          : CASSCF response                               
  Dagmar Lenk            : GEPOL surface, SMD, ORCA-2-JSON               
  Dimitrios Liakos       : Extrapolation schemes; Compound Job, Property file
  Dimitrios Manganas     : Further ROCIS development; embedding schemes. LFT, Crystal Embedding 
  Dimitrios Pantazis     : SARC Basis sets                               
  Anastasios Papadopoulos: AUTO-CI, single reference methods and gradients 
  Taras Petrenko         : pre 6.0 DFT Hessian and TD-DFT gradient,  ECA, NRVS 
  Petra Pikulova         : Analytic Raman intensities                    
  Peter Pinski           : DLPNO-MP2, DLPNO-MP2 Gradient                 
  Shashank Vittal Rao    : ES-AILFT, MagRelax                            
  Christoph Reimann      : Effective Core Potentials                     
  Marius Retegan         : Local ZFS, SOC                                
  Christoph Riplinger    : Optimizer, TS searches, QM/MM, DLPNO-CCSD(T), (RO)-DLPNO pert. Triples 
  Michael Roemelt        : Original ROCIS implementation, recursive CI coupling coefficients
  Masaaki Saitow         : Open-shell DLPNO-CCSD energy and density      
  Barbara Sandhoefer     : DKH picture change effects                    
  Yorick L. A. Schmerwitz: GMF and freeze-and-release deltaSCF, NEB S-IDPP initial path                    
  Kantharuban Sivalingam : CASSCF convergence/infrastructure, NEVPT2, NEVPT3, NEVPT4(SD), FIC-MRCI and CEPA variants
  Bernardo de Souza      : ESD, SOC TD-DFT                               
  Georgi L. Stoychev     : AutoAux, RI-MP2 NMR, DLPNO-MP2 response, X2C  
  Van Anh Tran           : RI-MP2 g-tensors                              
  Willem Van den Heuvel  : Paramagnetic NMR                              
  Zikuan Wang            : NOTCH, Electric field optimization            
  Frank Wennmohs         : Technical directorship and infrastructure     
  Hang Xu                : AUTO-CI-Response properties                   
                                                                         
[FACCTs GmbH]                                                            
  Markus Bursch, Nicolas Foglia, Miquel Garcia-Rates, Ingolf Harden, Hagen Neugebauer, Anastasios Papadopoulos, 
  Christoph Riplinger, Bernardo de Souza, Georgi L. Stoychev                                                    
                                                                 
  APM, various basis sets, CI-OPT, improved COSX, DLPNO-Multilevel,           
  DOCKER, DRACO, updates on ESD, Fragmentator, GOAT, IRC, LR-CPCM, L-BFGS, MBIS, meta-GGA TD-DFT gradient, ML-optimized integration grids, 
  MM, NACMEs, nearIR, NEB, NEB-TS, NL-DFT gradient (VV10), 2- and 3-layer-ONIOM, interface openCOSMO-RS, QMMM,   
  Crystal-QMMM, RESP, rigid body optimization, SF, symmetry and pop. for TD-DFT, various functionals, SOLVATOR                                   
                                                                         
[Other institutions]                                                     
  V. Asgeirsson          : NEB                                           
  Christoph Bannwarth    : sTDA-DFT, sTD-DFT, PBEh-3c, B97-3c, D3        
  Giovanni Bistoni       : ETS/NOCV, ADLD/ADEX, COVALED                  
  Martin Brehm           : Molecular dynamics                            
  Ronald Cardenas        : ETS/NOCV                                      
  Martina Colucci        : COVALED                                       
  Sebastian Ehlert       : rSCAN, r2SCAN, r2SCAN-3c, D4, dhf basis sets  
  Marvin Friede          : D4 for Fr, Ra, Ac-Lr                          
  Lars Goerigk           : TD-DFT with DH, B97 family of functionals     
  Stefan Grimme          : VdW corrections, initial TS optimization, DFT functionals, gCP, sTDA/sTD-DF 
  Waldemar Hujo          : DFT-NL                                        
  H. Jonsson             : NEB                                           
  Holger Kruse           : gCP                                           
  Marcel Mueller         : wB97X-3c, vDZP basis set                      
  Hagen Neugebauer       : wr2SCAN, Native XTB                           
  Gianluca Regni         : ADLD/ADEX                                     
  Tobias Risthaus        : pre 6.0 range-separated hybrid DFT and stability analysis
  Lukas Wittmann         : regularized MP2, r2SCAN double-hybrids, wr2SCAN        
                                                                         
We gratefully acknowledge several colleagues who have allowed us to      
interface, adapt or use parts of their codes:                            
  Ed Valeev, F. Pavosevic, A. Kumar             : LibInt (2-el integral package), F12 methods 
  Garnet Chan, S. Sharma, J. Yang, R. Olivares  : DMRG                   
  Ulf Ekstrom                                   : XCFun DFT Library      
  Mihaly Kallay                                 : mrcc  (arbitrary order and MRCC methods)
  Frank Weinhold                                : gennbo (NPA and NBO analysis)           
  Simon Mueller                                 : openCOSMO-RS                            
  Christopher J. Cramer and Donald G. Truhlar   : smd solvation model                     
  S Lehtola, MJT Oliveira, MAL Marques          : LibXC Library                           
  Liviu Ungur et al                             : ANISO software                          


 Your calculation uses the libint2 library for the computation of 2-el integrals
 For citations please refer to: http://libint.valeyev.net

 Your ORCA version has been built with support for libXC version: 7.0.0
 For citations please refer to: https://libxc.gitlab.io

 This ORCA versions uses:
   CBLAS   interface :  Fast vector & matrix operations
   LAPACKE interface :  Fast linear algebra routines
   SCALAPACK package :  Parallel linear algebra routines
   Shared memory     :  Shared parallel matrices
   BLAS/LAPACK       :  OpenBLAS 0.3.29  USE64BITINT DYNAMIC_ARCH NO_AFFINITY Haswell SINGLE_THREADED
        Core in use  :  Haswell
   Copyright (c) 2011-2014, The OpenBLAS Project


  ***********************************
  * Starting time: Wed Aug 13 12:00:12 2025
  * Host name:     CHEMLAB02
  * Process ID:    1530575
  * Working dir.:  /home/vivek/mm-project/vivek/B97-D/c/2
  ***********************************



***************************************
The coordinates will be read from file: /home/vivek/mm-project/vivek/xtb-goat/c/C_CONF/2.xyz
***************************************


Your calculation utilizes empirical dispersion correction


Warning: RI is on but no J-basis has been assigned. Assigning Def2/J (nothing to worry about!)
================================================================================

----- Orbital basis set information -----
Your calculation utilizes the basis: 6-31G**
   H-He, Li-Ne : W. J. Hehre, R. Ditchfield and J.A. Pople, J. Chem. Phys. 56, 2257 (1972).
                 Note: He and Ne are unpublished basis sets taken from the Gaussian program.
                 Note: Li and B from J. D. Dill and J. A. Pople, J. Chem. Phys. 62, 2921 (1975).
   Na - Ar     : M. M. Francl, W. J. Pietro, W. J. Hehre, J. S. Binkley, M. S. Gordon, 
                 D. J. DeFrees and J. A. Pople, J. Chem. Phys. 77, 3654 (1982).
   K - Zn      : V. A. Rassolov, J. A. Pople, M. A. Ratner, and T. L. Windus, J. Chem. Phys. 109, 1223 (1998).

----- AuxJ basis set information -----
Your calculation utilizes the auxiliary basis: def2/J
   H-Rn: F. Weigend, Phys. Chem. Chem. Phys. 8, 1057 (2006).
   Fr-Lr: K. Eichkorn, F. Weigend, O. Treutler, R. Ahlrichs; Theor. Chem. Acc. 97, 119 (1997).

================================================================================
                                        WARNINGS
                       Please study these warnings very carefully!
================================================================================


INFO   : The exchange functional is Grimme's B97(-D)
         As described in S. Grimme, J. Comput. Chem. 27, 1787 (2006).
         Note that this functional defaults to a pure GGA. 

INFO   : The correlation functional is Grimme's B97(-D)
         As described in S. Grimme, J. Comput. Chem. 27, 1787 (2006).

================================================================================
                                       INPUT FILE
================================================================================
NAME = 2.inp
|  1> ! B97-D 6-31G** 
|  2> 
|  3> * xyzfile 0 1 /home/vivek/mm-project/vivek/xtb-goat/c/C_CONF/2.xyz
|  4> 
|  5>                          ****END OF INPUT****
================================================================================

                       ****************************
                       * Single Point Calculation *
                       ****************************

---------------------------------
CARTESIAN COORDINATES (ANGSTROEM)
---------------------------------
  H     -1.639079    2.568764    1.299381
  C     -3.071801    1.458475    0.117430
  H     -3.082412    0.852373   -0.788893
  H     -3.571471    1.255653    2.424599
  O     -0.360153    0.487059    1.504572
  C     -1.681547    2.074540    0.323011
  H     -0.610742    3.568798   -0.561909
  S     -3.577155    0.339188    1.459044
  N     -1.472476    3.058005   -0.721041
  H     -1.381228    2.583398   -1.614978
  C     -0.642438    0.954405    0.291119
  H     -3.806559    2.256904    0.021774
  O     -0.132464    0.545433   -0.717876
  H      0.262789   -0.256459    1.458240

----------------------------
CARTESIAN COORDINATES (A.U.)
----------------------------
  NO LB      ZA    FRAG     MASS         X           Y           Z
   0 H     1.0000    0     1.008   -3.097410    4.854260    2.455475
   1 C     6.0000    0    12.011   -5.804862    2.756118    0.221910
   2 H     1.0000    0     1.008   -5.824914    1.610751   -1.490792
   3 H     1.0000    0     1.008   -6.749102    2.372839    4.581828
   4 O     8.0000    0    15.999   -0.680591    0.920408    2.843230
   5 C     6.0000    0    12.011   -3.177663    3.920313    0.610403
   6 H     1.0000    0     1.008   -1.154135    6.744051   -1.061853
   7 S    16.0000    0    32.060   -6.759843    0.640972    2.757194
   8 N     7.0000    0    14.007   -2.782577    5.778792   -1.362571
   9 H     1.0000    0     1.008   -2.610143    4.881915   -3.051867
  10 C     6.0000    0    12.011   -1.214032    1.803565    0.550136
  11 H     1.0000    0     1.008   -7.193353    4.264931    0.041147
  12 O     8.0000    0    15.999   -0.250320    1.030719   -1.356589
  13 H     1.0000    0     1.008    0.496600   -0.484638    2.755675

--------------------------------
INTERNAL COORDINATES (ANGSTROEM)
--------------------------------
 H      0   0   0     0.000000000000     0.00000000     0.00000000
 C      1   0   0     2.163895853677     0.00000000     0.00000000
 H      2   1   0     1.090363915201   138.21747026     0.00000000
 H      2   1   3     2.369353585317    69.61499922   143.18498550
 O      1   2   3     2.451784982478    87.44588473   303.16032964
 C      1   2   3     1.095152594897    41.90968661    10.67914641
 H      6   1   2     2.040223935328    92.05280674   140.22507460
 S      4   2   1     1.331253393913    49.72697655   222.52841593
 N      7   6   1     1.014307201557    41.69653263   230.05328814
 H      9   7   6     1.016219134952   107.27250610   240.96140697
 C      5   1   2     1.330625954225    60.97507974    56.66911099
 H      2   1   6     1.089269882751    96.80466575   241.69267348
 O     11   5   1     1.202249390322   123.77191039   167.47720430
 H      5   1   2     0.971094127168   168.72668775   104.68832032

---------------------------
INTERNAL COORDINATES (A.U.)
---------------------------
 H      0   0   0     0.000000000000     0.00000000     0.00000000
 C      1   0   0     4.089170545778     0.00000000     0.00000000
 H      2   1   0     2.060489186041   138.21747026     0.00000000
 H      2   1   3     4.477429390673    69.61499922   143.18498550
 O      1   2   3     4.633202156145    87.44588473   303.16032964
 C      1   2   3     2.069538479208    41.90968661    10.67914641
 H      6   1   2     3.855464489642    92.05280674   140.22507460
 S      4   2   1     2.515704329348    49.72697655   222.52841593
 N      7   6   1     1.916762826606    41.69653263   230.05328814
 H      9   7   6     1.920375857110   107.27250610   240.96140697
 C      5   1   2     2.514518640173    60.97507974    56.66911099
 H      2   1   6     2.058421764328    96.80466575   241.69267348
 O     11   5   1     2.271922092383   123.77191039   167.47720430
 H      5   1   2     1.835101950606   168.72668775   104.68832032

---------------------
BASIS SET INFORMATION
---------------------
There are 5 groups of distinct atoms

 Group   1 Type H   : 4s1p contracted to 2s1p pattern {31/1}
 Group   2 Type C   : 10s4p1d contracted to 3s2p1d pattern {631/31/1}
 Group   3 Type O   : 10s4p1d contracted to 3s2p1d pattern {631/31/1}
 Group   4 Type S   : 16s10p1d contracted to 4s3p1d pattern {6631/631/1}
 Group   5 Type N   : 10s4p1d contracted to 3s2p1d pattern {631/31/1}

Atom   0H    basis set group =>   1
Atom   1C    basis set group =>   2
Atom   2H    basis set group =>   1
Atom   3H    basis set group =>   1
Atom   4O    basis set group =>   3
Atom   5C    basis set group =>   2
Atom   6H    basis set group =>   1
Atom   7S    basis set group =>   4
Atom   8N    basis set group =>   5
Atom   9H    basis set group =>   1
Atom  10C    basis set group =>   2
Atom  11H    basis set group =>   1
Atom  12O    basis set group =>   3
Atom  13H    basis set group =>   1
---------------------------------
AUXILIARY/J BASIS SET INFORMATION
---------------------------------
There are 5 groups of distinct atoms

 Group   1 Type H   : 5s2p1d contracted to 3s1p1d pattern {311/2/1}
 Group   2 Type C   : 12s5p4d2f1g contracted to 6s4p3d1f1g pattern {711111/2111/211/2/1}
 Group   3 Type O   : 12s5p4d2f1g contracted to 6s4p3d1f1g pattern {711111/2111/211/2/1}
 Group   4 Type S   : 14s5p5d2f1g contracted to 8s4p3d1f1g pattern {71111111/2111/311/2/1}
 Group   5 Type N   : 12s5p4d2f1g contracted to 6s4p3d1f1g pattern {711111/2111/211/2/1}

Atom   0H    basis set group =>   1
Atom   1C    basis set group =>   2
Atom   2H    basis set group =>   1
Atom   3H    basis set group =>   1
Atom   4O    basis set group =>   3
Atom   5C    basis set group =>   2
Atom   6H    basis set group =>   1
Atom   7S    basis set group =>   4
Atom   8N    basis set group =>   5
Atom   9H    basis set group =>   1
Atom  10C    basis set group =>   2
Atom  11H    basis set group =>   1
Atom  12O    basis set group =>   3
Atom  13H    basis set group =>   1
------------------------------------------------------------------------------
                             ORCA STARTUP CALCULATIONS
                           -- RI-GTO INTEGRALS CHOSEN --
------------------------------------------------------------------------------
------------------------------------------------------------------------------
                   ___                                                        
                  /   \      - P O W E R E D   B Y -                         
                 /     \                                                     
                 |  |  |   _    _      __       _____    __    __             
                 |  |  |  | |  | |    /  \     |  _  \  |  |  /  |          
                  \  \/   | |  | |   /    \    | | | |  |  | /  /          
                 / \  \   | |__| |  /  /\  \   | |_| |  |  |/  /          
                |  |  |   |  __  | /  /__\  \  |    /   |      \           
                |  |  |   | |  | | |   __   |  |    \   |  |\   \          
                \     /   | |  | | |  |  |  |  | |\  \  |  | \   \       
                 \___/    |_|  |_| |__|  |__|  |_| \__\ |__|  \__/        
                                                                              
                      - O R C A' S   B I G   F R I E N D -                    
                                      &                                       
                       - I N T E G R A L  F E E D E R -                       
                                                                              
 v1 FN, 2020, v2 2021, v3 2022-2024                                           
------------------------------------------------------------------------------


----------------------
SHARK INTEGRAL PACKAGE
----------------------

Number of atoms                             ...     14
Number of basis functions                   ...    137
Number of shells                            ...     65
Maximum angular momentum                    ...      2
Integral batch strategy                     ... SHARK/LIBINT Hybrid
RI-J (if used) integral strategy            ... SPLIT-RIJ (Revised 2003 algorithm where possible)
Printlevel                                  ...      1
Contraction scheme used                     ... SEGMENTED contraction
Prescreening option                         ... SCHWARTZ
   Thresh                                   ... 1.000e-10
   Tcut                                     ... 1.000e-11
   Tpresel                                  ... 1.000e-11 
Coulomb Range Separation                    ... NOT USED
Exchange Range Separation                   ... NOT USED
Multipole approximations                    ... NOT USED
Finite Nucleus Model                        ... NOT USED
CABS basis                                  ... NOT available
Auxiliary Coulomb fitting basis             ... AVAILABLE
   # of basis functions in Aux-J            ...    422
   # of shells in Aux-J                     ...    142
   Maximum angular momentum in Aux-J        ...      4
Auxiliary J/K fitting basis                 ... NOT available
Auxiliary Correlation fitting basis         ... NOT available
Auxiliary 'external' fitting basis          ... NOT available

Checking pre-screening integrals            ... done (  0.0 sec) Dimension = 65
   => SHARK Basis and OBASIS are compatible. Storing Pre-screening
Shell pair information
Shell pair cut-off parameter TPreSel        ...   1.0e-11
Total number of shell pairs                 ...      2145
Shell pairs after pre-screening             ...      2003
Total number of primitive shell pairs       ...     11826
Primitive shell pairs kept                  ...      7383
          la=0 lb=0:    615 shell pairs
          la=1 lb=0:    732 shell pairs
          la=1 lb=1:    237 shell pairs
          la=2 lb=0:    242 shell pairs
          la=2 lb=1:    149 shell pairs
          la=2 lb=2:     28 shell pairs

Checking whether 4 symmetric matrices of dimension 137 fit in memory
:Max Core in MB      =   4096.00
 MB in use           =      6.19
 MB left             =   4089.81
 MB needed           =      0.29
 Data fit in memory  = YES
Calculating RI/J V-Matrix + Cholesky decomp.... done (  0.0 sec)
Calculating Nuclear repulsion               ... done (  0.0 sec) ENN=    382.990550305246 Eh

Diagonalization of the overlap matrix:
Smallest eigenvalue                        ... 3.641e-03
Time for diagonalization                   ...    0.001 sec
Threshold for overlap eigenvalues          ... 1.000e-07
Number of eigenvalues below threshold      ... 0
Time for construction of square roots      ...    0.000 sec
Total time needed                          ...    0.001 sec

-------------------
DFT GRID GENERATION
-------------------

General Integration Accuracy     IntAcc      ... 4.388
Radial Grid Type                 RadialGrid  ... OptM3 with GC (2021)
Angular Grid (max. ang.)         AngularGrid ... 4 (Lebedev-302)
Angular grid pruning method      GridPruning ... 4 (adaptive)
Weight generation scheme         WeightScheme... mBecke (2022)
Basis function cutoff            BFCut       ... 1.0000e-10
Integration weight cutoff        WCut        ... 1.0000e-14
Partially contracted basis set               ... off
Rotationally invariant grid construction     ... off
Angular grids for H and He will be reduced by one unit

Total number of grid points                  ...    66176
Total number of batches                      ...     1041
Average number of points per batch           ...       63
Average number of grid points per atom       ...     4727
Grids setup in   0.2 sec
Initializing property integral containers    ... done (  0.0 sec)

SHARK setup successfully completed in   0.3 seconds

Maximum memory used throughout the entire STARTUP-calculation: 27.9 MB
-------------------------------------------------------------------------------
                                 ORCA GUESS
                   Start orbitals & Density for SCF / CASSCF
-------------------------------------------------------------------------------

------------
SCF SETTINGS
------------
Hamiltonian:
 Density Functional     Method          .... DFT(GTOs)
 Exchange Functional    Exchange        .... B97(D)
 Correlation Functional Correlation     .... B97(D)
 Gradients option       PostSCFGGA      .... off
 RI-approximation to the Coulomb term is turned on
   Number of AuxJ basis functions       .... 422


General Settings:
 Integral files         IntName         .... 2
 Hartree-Fock type      HFTyp           .... RHF
 Total Charge           Charge          ....    0
 Multiplicity           Mult            ....    1
 Number of Electrons    NEL             ....   64
 Basis Dimension        Dim             ....  137
 Nuclear Repulsion      ENuc            ....    382.9905503052 Eh

Convergence Acceleration:
 AO-DIIS                CNVDIIS         .... on
   Start iteration      DIISMaxIt       ....    12
   Startup error        DIISStart       ....  0.200000
   # of expansion vecs  DIISMaxEq       ....     5
   Bias factor          DIISBfac        ....   1.050
   Max. coefficient     DIISMaxC        ....  10.000
 MO-DIIS                CNVKDIIS        .... off
 Trust-Rad. Augm. Hess. CNVTRAH         .... auto
   Auto Start mean grad. ratio tolernc. ....  1.125000
   Auto Start start iteration           ....    50
   Auto Start num. interpolation iter.  ....    10
   Max. Number of Micro iterations      ....    24
   Max. Number of Macro iterations      .... Maxiter - #DIIS iter
   Number of Davidson start vectors     ....     2
   Converg. threshold    (grad. norm)   ....   5.000e-05
   Grad. Scal. Fac. for Micro threshold ....   0.100
   Minimum threshold for Micro iter.    ....   1.000e-02
   NR start threshold (gradient norm)   ....   1.000e-04
   Initial trust radius                 ....   0.400
   Minimum AH scaling param. (alpha)    ....   1.000
   Maximum AH scaling param. (alpha)    .... 1000.000
   Quad. conv. algorithm                .... NR
   White noise on init. David. guess    .... on
   Maximum white noise                  ....   0.010
   Pseudo random numbers                .... off
   Inactive MOs                         .... canonical
   Orbital update algorithm             .... Taylor
   Preconditioner                       .... Diag
   Full preconditioner red. dimension   ....   250
 SOSCF                 CNVSOSCF           .... on
   Start iteration     SOSCFMaxIt         ....   150
   Startup grad/error  SOSCFStart         ....  0.003300
   Hessian update      SOSCFHessUp        .... L-BFGS
   Autom. constraints  SOSCFAutoConstrain .... off
 Level Shifting         CNVShift        .... on
   Level shift para.    LevelShift      ....    0.2500
   Turn off err/grad.   ShiftErr        ....    0.0010
 Zerner damping         CNVZerner       .... off
 Static damping         CNVDamp         .... on
   Fraction old density DampFac         ....    0.7000
   Max. Damping (<1)    DampMax         ....    0.9800
   Min. Damping (>=0)   DampMin         ....    0.0000
   Turn off err/grad.   DampErr         ....    0.1000

SCF Procedure:
 Maximum # iterations   MaxIter         ....   125
 SCF integral mode      SCFMode         .... Direct
   Integral package                     .... SHARK and LIBINT hybrid scheme
 Reset frequency        DirectResetFreq ....    20
 Integral Threshold     Thresh          ....  1.000e-10 Eh
 Primitive CutOff       TCut            ....  1.000e-11 Eh

Convergence Tolerance:
 Convergence Check Mode ConvCheckMode   .... Total+1el-Energy
 Convergence forced     ConvForced      .... 0
 Energy Change          TolE            ....  1.000e-06 Eh
 1-El. energy change                    ....  1.000e-03 Eh
 Orbital Gradient       TolG            ....  5.000e-05
 Orbital Rotation angle TolX            ....  5.000e-05
 DIIS Error             TolErr          ....  1.000e-06

------------------------------
INITIAL GUESS: MODEL POTENTIAL
------------------------------
Loading Hartree-Fock densities                     ... done
Calculating cut-offs                               ... done
Initializing the effective Hamiltonian             ... done
Setting up the integral package (SHARK)            ... done
Starting the Coulomb interaction                   ... done (   0.0 sec)
Making the grid                                    ... done (   0.1 sec)
Mapping shells                                     ... done
Starting the XC term evaluation                    ... done (   0.1 sec)
  promolecular density results
     # of electrons  =     63.999032507
     EX              =    -64.730834660
     EC              =     -2.962311311
     EX+EC           =    -67.693145970
Transforming the Hamiltonian                       ... done (   0.0 sec)
Diagonalizing the Hamiltonian                      ... done (   0.0 sec)
Back transforming the eigenvectors                 ... done (   0.0 sec)
Now organizing SCF variables                       ... done
                      ------------------
                      INITIAL GUESS DONE (   0.2 sec)
                      ------------------
             **** ENERGY FILE WAS UPDATED (2.en.tmp) ****
Finished Guess after   0.2 sec
Maximum memory used throughout the entire GUESS-calculation: 10.3 MB

-------------------------------------------------------------------------------------------
                                      ORCA LEAN-SCF
                              memory conserving SCF solver
-------------------------------------------------------------------------------------------

----------------------------------------D-I-I-S--------------------------------------------
Iteration    Energy (Eh)           Delta-E    RMSDP     MaxDP     DIISErr   Damp  Time(sec)
-------------------------------------------------------------------------------------------
               ***  Starting incremental Fock matrix formation  ***
    1    -721.4601583841312049     0.00e+00  4.25e-03  1.01e-01  2.55e-01  0.700   0.3
    2    -721.5834270111107571    -1.23e-01  2.63e-03  5.15e-02  9.72e-02  0.700   0.3
                               ***Turning on AO-DIIS***
    3    -721.6192713524004603    -3.58e-02  1.01e-03  2.03e-02  2.56e-02  0.700   0.3
    4    -721.6435431259091047    -2.43e-02  1.38e-03  3.53e-02  1.14e-02  0.000   0.3
    5    -721.7007311994040037    -5.72e-02  4.90e-04  1.01e-02  9.36e-03  0.000   0.3
                              *** Initializing SOSCF ***
---------------------------------------S-O-S-C-F--------------------------------------
Iteration    Energy (Eh)           Delta-E    RMSDP     MaxDP     MaxGrad    Time(sec)
--------------------------------------------------------------------------------------
    6    -721.7013270972701093    -5.96e-04  1.56e-04  2.09e-03  2.91e-03     0.3
               *** Restarting incremental Fock matrix formation ***
    7    -721.7013748022246773    -4.77e-05  1.27e-04  2.63e-03  5.97e-04     0.3
    8    -721.7013647006571091     1.01e-05  6.45e-05  1.84e-03  1.73e-03     0.2
    9    -721.7013800309856606    -1.53e-05  5.49e-05  9.87e-04  2.57e-04     0.2
   10    -721.7013793408888205     6.90e-07  2.85e-05  4.79e-04  1.95e-04     0.2
                 **** Energy Check signals convergence ****

               *****************************************************
               *                     SUCCESS                       *
               *           SCF CONVERGED AFTER  10 CYCLES          *
               *****************************************************

             **** ENERGY FILE WAS UPDATED (2.en.tmp) ****

----------------
TOTAL SCF ENERGY
----------------

Total Energy       :       -721.70138126009044 Eh          -19638.49299 eV

Components:
Nuclear Repulsion  :        382.99055030524630 Eh           10421.70270 eV
Electronic Energy  :      -1104.69193156533674 Eh          -30060.19569 eV
One Electron Energy:      -1752.15623131621396 Eh          -47678.59499 eV
Two Electron Energy:        647.46429975087710 Eh           17618.39930 eV

Virial components:
Potential Energy   :      -1441.21237617594306 Eh          -39217.38253 eV
Kinetic Energy     :        719.51099491585273 Eh           19578.88954 eV
Virial Ratio       :          2.00304427084466

DFT components:
N(Alpha)           :       32.000021970617 electrons
N(Beta)            :       32.000021970617 electrons
N(Total)           :       64.000043941235 electrons
E(X)               :      -65.655962970499 Eh       
E(C)               :       -2.954420490607 Eh       
E(XC)              :      -68.610383461106 Eh       

---------------
SCF CONVERGENCE
---------------

  Last Energy change         ...   -6.9010e-07  Tolerance :   1.0000e-06
  Last MAX-Density change    ...    4.7902e-04  Tolerance :   1.0000e-05
  Last RMS-Density change    ...    2.8460e-05  Tolerance :   1.0000e-06
  Last DIIS Error            ...    2.9122e-03  Tolerance :   1.0000e-06
  Last Orbital Gradient      ...    1.9508e-04  Tolerance :   5.0000e-05
  Last Orbital Rotation      ...    1.9423e-04  Tolerance :   5.0000e-05


----------------
ORBITAL ENERGIES
----------------

  NO   OCC          E(Eh)            E(eV) 
   0   2.0000     -88.030147     -2395.4221 
   1   2.0000     -18.816918      -512.0344 
   2   2.0000     -18.757454      -510.4163 
   3   2.0000     -13.997306      -380.8861 
   4   2.0000     -10.031790      -272.9789 
   5   2.0000      -9.958678      -270.9894 
   6   2.0000      -9.947161      -270.6760 
   7   2.0000      -7.716815      -209.9852 
   8   2.0000      -5.751264      -156.4998 
   9   2.0000      -5.746911      -156.3814 
  10   2.0000      -5.739105      -156.1690 
  11   2.0000      -1.024720       -27.8840 
  12   2.0000      -0.936634       -25.4871 
  13   2.0000      -0.826799       -22.4983 
  14   2.0000      -0.726850       -19.7786 
  15   2.0000      -0.647033       -17.6067 
  16   2.0000      -0.592847       -16.1322 
  17   2.0000      -0.535145       -14.5620 
  18   2.0000      -0.472779       -12.8650 
  19   2.0000      -0.442557       -12.0426 
  20   2.0000      -0.424095       -11.5402 
  21   2.0000      -0.410414       -11.1679 
  22   2.0000      -0.395361       -10.7583 
  23   2.0000      -0.377771       -10.2797 
  24   2.0000      -0.352920        -9.6034 
  25   2.0000      -0.336922        -9.1681 
  26   2.0000      -0.328422        -8.9368 
  27   2.0000      -0.292001        -7.9458 
  28   2.0000      -0.277977        -7.5641 
  29   2.0000      -0.231905        -6.3105 
  30   2.0000      -0.205467        -5.5910 
  31   2.0000      -0.198299        -5.3960 
  32   0.0000      -0.022784        -0.6200 
  33   0.0000       0.003796         0.1033 
  34   0.0000       0.046010         1.2520 
  35   0.0000       0.053476         1.4552 
  36   0.0000       0.080027         2.1777 
  37   0.0000       0.093991         2.5576 
  38   0.0000       0.118155         3.2152 
  39   0.0000       0.134348         3.6558 
  40   0.0000       0.148112         4.0303 
  41   0.0000       0.177851         4.8396 
  42   0.0000       0.200387         5.4528 
*Only the first 10 virtual orbitals were printed.

                    ********************************
                    * MULLIKEN POPULATION ANALYSIS *
                    ********************************

-----------------------
MULLIKEN ATOMIC CHARGES
-----------------------
   0 H :    0.126189
   1 C :   -0.346596
   2 H :    0.155498
   3 H :    0.067340
   4 O :   -0.433763
   5 C :   -0.039645
   6 H :    0.246696
   7 S :   -0.042907
   8 N :   -0.555138
   9 H :    0.251477
  10 C :    0.506067
  11 H :    0.166616
  12 O :   -0.419320
  13 H :    0.317487
Sum of atomic charges:    0.0000000

--------------------------------
MULLIKEN REDUCED ORBITAL CHARGES
--------------------------------
  0 H s       :     0.862943  s :     0.862943
      pz      :     0.005751  p :     0.010868
      px      :     0.002359
      py      :     0.002757

  1 C s       :     3.306903  s :     3.306903
      pz      :     0.989192  p :     3.002958
      px      :     0.987318
      py      :     1.026448
      dz2     :     0.006381  d :     0.036736
      dxz     :     0.004126
      dyz     :     0.009594
      dx2y2   :     0.005932
      dxy     :     0.010702

  2 H s       :     0.832733  s :     0.832733
      pz      :     0.005525  p :     0.011769
      px      :     0.002383
      py      :     0.003861

  3 H s       :     0.916774  s :     0.916774
      pz      :     0.005499  p :     0.015886
      px      :     0.004935
      py      :     0.005453

  4 O s       :     3.823542  s :     3.823542
      pz      :     1.510562  p :     4.587122
      px      :     1.589848
      py      :     1.486713
      dz2     :     0.008893  d :     0.023099
      dxz     :     0.004736
      dyz     :     0.004732
      dx2y2   :     0.000361
      dxy     :     0.004377

  5 C s       :     3.196628  s :     3.196628
      pz      :     0.972191  p :     2.785454
      px      :     0.933682
      py      :     0.879581
      dz2     :     0.012716  d :     0.057562
      dxz     :     0.006469
      dyz     :     0.013825
      dx2y2   :     0.009351
      dxy     :     0.015201

  6 H s       :     0.729288  s :     0.729288
      pz      :     0.004629  p :     0.024016
      px      :     0.010762
      py      :     0.008625

  7 S s       :     5.846481  s :     5.846481
      pz      :     2.970637  p :    10.137510
      px      :     3.881956
      py      :     3.284916
      dz2     :     0.006785  d :     0.058916
      dxz     :     0.004538
      dyz     :     0.034429
      dx2y2   :     0.008206
      dxy     :     0.004959

  8 N s       :     3.591140  s :     3.591140
      pz      :     1.109080  p :     3.935664
      px      :     1.474677
      py      :     1.351906
      dz2     :     0.006387  d :     0.028335
      dxz     :     0.002219
      dyz     :     0.009016
      dx2y2   :     0.005783
      dxy     :     0.004931

  9 H s       :     0.724596  s :     0.724596
      pz      :     0.010261  p :     0.023927
      px      :     0.006660
      py      :     0.007006

 10 C s       :     2.983281  s :     2.983281
      pz      :     0.704463  p :     2.384710
      px      :     0.841344
      py      :     0.838903
      dz2     :     0.043889  d :     0.125943
      dxz     :     0.029860
      dyz     :     0.032379
      dx2y2   :     0.008513
      dxy     :     0.011302

 11 H s       :     0.821813  s :     0.821813
      pz      :     0.002467  p :     0.011572
      px      :     0.004248
      py      :     0.004857

 12 O s       :     3.857193  s :     3.857193
      pz      :     1.474721  p :     4.533964
      px      :     1.503229
      py      :     1.556014
      dz2     :     0.007725  d :     0.028163
      dxz     :     0.007721
      dyz     :     0.007364
      dx2y2   :     0.003149
      dxy     :     0.002206

 13 H s       :     0.644522  s :     0.644522
      pz      :     0.007162  p :     0.037991
      px      :     0.014285
      py      :     0.016543



                     *******************************
                     * LOEWDIN POPULATION ANALYSIS *
                     *******************************

----------------------
LOEWDIN ATOMIC CHARGES
----------------------
   0 H :    0.080896
   1 C :   -0.211344
   2 H :    0.091542
   3 H :    0.040228
   4 O :   -0.121940
   5 C :   -0.058430
   6 H :    0.128938
   7 S :    0.012926
   8 N :   -0.242771
   9 H :    0.130184
  10 C :    0.101434
  11 H :    0.088619
  12 O :   -0.223170
  13 H :    0.182888

-------------------------------
LOEWDIN REDUCED ORBITAL CHARGES
-------------------------------
  0 H s       :     0.879616  s :     0.879616
      pz      :     0.022117  p :     0.039488
      px      :     0.007139
      py      :     0.010232

  1 C s       :     2.956110  s :     2.956110
      pz      :     1.055115  p :     3.174419
      px      :     1.047260
      py      :     1.072044
      dz2     :     0.013846  d :     0.080815
      dxz     :     0.008684
      dyz     :     0.021417
      dx2y2   :     0.013102
      dxy     :     0.023767

  2 H s       :     0.867122  s :     0.867122
      pz      :     0.021442  p :     0.041336
      px      :     0.006962
      py      :     0.012931

  3 H s       :     0.911666  s :     0.911666
      pz      :     0.017685  p :     0.048106
      px      :     0.011701
      py      :     0.018720

  4 O s       :     3.469017  s :     3.469017
      pz      :     1.545038  p :     4.600822
      px      :     1.572872
      py      :     1.482912
      dz2     :     0.019977  d :     0.052101
      dxz     :     0.009148
      dyz     :     0.011165
      dx2y2   :     0.001116
      dxy     :     0.010695

  5 C s       :     2.887805  s :     2.887805
      pz      :     1.021258  p :     3.039437
      px      :     1.025775
      py      :     0.992403
      dz2     :     0.028364  d :     0.131188
      dxz     :     0.012699
      dyz     :     0.031328
      dx2y2   :     0.020832
      dxy     :     0.037965

  6 H s       :     0.792057  s :     0.792057
      pz      :     0.012083  p :     0.079004
      px      :     0.040515
      py      :     0.026406

  7 S s       :     5.644134  s :     5.644134
      pz      :     3.027488  p :    10.277347
      px      :     3.870634
      py      :     3.379225
      dz2     :     0.007838  d :     0.065592
      dxz     :     0.005273
      dyz     :     0.038657
      dx2y2   :     0.008590
      dxy     :     0.005235

  8 N s       :     3.196620  s :     3.196620
      pz      :     1.152266  p :     3.988436
      px      :     1.469551
      py      :     1.366620
      dz2     :     0.014870  d :     0.057714
      dxz     :     0.004410
      dyz     :     0.020343
      dx2y2   :     0.008659
      dxy     :     0.009432

  9 H s       :     0.790041  s :     0.790041
      pz      :     0.038126  p :     0.079775
      px      :     0.018782
      py      :     0.022867

 10 C s       :     2.854395  s :     2.854395
      pz      :     0.945579  p :     2.743522
      px      :     0.895457
      py      :     0.902486
      dz2     :     0.113362  d :     0.300649
      dxz     :     0.069028
      dyz     :     0.075556
      dx2y2   :     0.016076
      dxy     :     0.026627

 11 H s       :     0.869103  s :     0.869103
      pz      :     0.007417  p :     0.042279
      px      :     0.016361
      py      :     0.018501

 12 O s       :     3.553764  s :     3.553764
      pz      :     1.542662  p :     4.611072
      px      :     1.509415
      py      :     1.558995
      dz2     :     0.017502  d :     0.058334
      dxz     :     0.016805
      dyz     :     0.014773
      dx2y2   :     0.004337
      dxy     :     0.004918

 13 H s       :     0.701658  s :     0.701658
      pz      :     0.020405  p :     0.115454
      px      :     0.044006
      py      :     0.051042



                      *****************************
                      * MAYER POPULATION ANALYSIS *
                      *****************************

  NA   - Mulliken gross atomic population
  ZA   - Total nuclear charge
  QA   - Mulliken gross atomic charge
  VA   - Mayer's total valence
  BVA  - Mayer's bonded valence
  FA   - Mayer's free valence

  ATOM       NA         ZA         QA         VA         BVA        FA
  0 H      0.8738     1.0000     0.1262     0.9517     0.9517     0.0000
  1 C      6.3466     6.0000    -0.3466     3.8490     3.8490     0.0000
  2 H      0.8445     1.0000     0.1555     0.9485     0.9485     0.0000
  3 H      0.9327     1.0000     0.0673     0.9715     0.9715    -0.0000
  4 O      8.4338     8.0000    -0.4338     2.0652     2.0652    -0.0000
  5 C      6.0396     6.0000    -0.0396     3.8626     3.8626     0.0000
  6 H      0.7533     1.0000     0.2467     0.9180     0.9180     0.0000
  7 S     16.0429    16.0000    -0.0429     2.0032     2.0032     0.0000
  8 N      7.5551     7.0000    -0.5551     2.9029     2.9029     0.0000
  9 H      0.7485     1.0000     0.2515     0.9297     0.9297     0.0000
 10 C      5.4939     6.0000     0.5061     3.9421     3.9421     0.0000
 11 H      0.8334     1.0000     0.1666     0.9396     0.9396     0.0000
 12 O      8.4193     8.0000    -0.4193     2.1132     2.1132    -0.0000
 13 H      0.6825     1.0000     0.3175     0.9175     0.9175    -0.0000

  Mayer bond orders larger than 0.100000
B(  0-H ,  5-C ) :   0.9298 B(  1-C ,  2-H ) :   0.9382 B(  1-C ,  5-C ) :   0.9654 
B(  1-C ,  7-S ) :   1.0071 B(  1-C , 11-H ) :   0.9308 B(  3-H ,  7-S ) :   0.9516 
B(  4-O , 10-C ) :   1.1014 B(  4-O , 13-H ) :   0.8506 B(  5-C ,  8-N ) :   1.0534 
B(  5-C , 10-C ) :   0.8871 B(  6-H ,  8-N ) :   0.9076 B(  8-N ,  9-H ) :   0.8944 
B( 10-C , 12-O ) :   1.9187 

-------
TIMINGS
-------

Total SCF time: 0 days 0 hours 0 min 2 sec 

Total time                  ....       2.923 sec
Sum of individual times     ....       2.678 sec  ( 91.6%)

SCF preparation             ....       0.023 sec  (  0.8%)
Fock matrix formation       ....       2.631 sec  ( 90.0%)
  Startup                   ....       0.000 sec  (  0.0% of F)
  Split-RI-J                ....       0.832 sec  ( 31.6% of F)
  XC integration            ....       2.034 sec  ( 77.3% of F)
    XC Preparation          ....       0.000 sec  (  0.0% of XC)
    Basis function eval.    ....       0.695 sec  ( 34.2% of XC)
    Density eval.           ....       0.411 sec  ( 20.2% of XC)
    XC-Functional eval.     ....       0.425 sec  ( 20.9% of XC)
    XC-Potential eval.      ....       0.451 sec  ( 22.2% of XC)
Diagonalization             ....       0.000 sec  (  0.0%)
Density matrix formation    ....       0.002 sec  (  0.1%)
Total Energy calculation    ....       0.000 sec  (  0.0%)
Population analysis         ....       0.002 sec  (  0.1%)
Orbital Transformation      ....       0.003 sec  (  0.1%)
Orbital Orthonormalization  ....       0.000 sec  (  0.0%)
DIIS solution               ....       0.012 sec  (  0.4%)
SOSCF solution              ....       0.005 sec  (  0.2%)
Finished LeanSCF after   2.9 sec

Maximum memory used throughout the entire LEANSCF-calculation: 14.8 MB



-------------------------------------------------------------------------------
                          DFT DISPERSION CORRECTION                            
-------------------------------------------------------------------------------
Active option DFTDOPT                   ...         2   
Final C6-coefficient scaling factor     ...     1.250
Final VDW-radii scaling factor          ...     1.100
Damping factor alpha                    ...    20.000
-------------------------   ----------------
Dispersion correction           -0.016560999
-------------------------   ----------------


-------------------------   --------------------
FINAL SINGLE POINT ENERGY      -721.717942258849
-------------------------   --------------------


------------------------------------------------------------------------------
                              ORCA PROPERTY CALCULATIONS
------------------------------------------------------------------------------

GBWName                                 ... 2.gbw
Number of atoms                         ...     14
Number of basis functions               ...    137
Max core memory                         ...   4096 MB

Electric properties:
Dipole moment                           ... YES
Quadrupole moment                       ...  NO
Static polarizability (Dipole/Dipole)   ...  NO
Static polarizability (Dipole/Quad.)    ...  NO
Static polarizability (Quad./Quad.)     ...  NO
Static polarizability (Velocity)        ...  NO
Static hyperpolarizability              ...  NO

Atomic electric properties:
Dipole moment                           ...  NO
Quadrupole moment                       ...  NO
Static polarizability                   ...  NO

Choice of electric origin               ... Center of mass
Position of electric origin             ...    -3.461728     2.137779     0.940645

General magnetic properties:
Magnetizability                         ...  NO

EPR properties:
g-Tensor (aka g-matrix)                 ...  NO
Zero-Field splitting spin-orbit         ...  NO
Zero-field splitting spin-spin          ...  NO
Hyperfine couplings                     ...  NO (   0 nuclei)
Quadrupole couplings                    ...  NO (   0 nuclei)
Contact density                         ...  NO (   0 nuclei)

NMR properties:
Chemical shifts                         ...  NO (   0 nuclei)
Spin-rotation constants                 ...  NO (   0 nuclei)
Spin-spin couplings                     ...  NO (   0 nuclei,    0 pairs)

Choice of magnetic origin               ... GIAO
Position of magnetic origin             ...     0.000000     0.000000     0.000000

Properties with geometric perturbations:
SCF Hessian                             ...  NO
IR spectrum                             ...  NO
VCD spectrum                            ...  NO
X-ray spectroscopy properties:
SCF XES/XAS/RIXS spectra                ...  NO

SCF SOC stabilization energy            ...  NO
Diagonal Born-Oppenheimer correction    ...  NO

-------------
DIPOLE MOMENT
-------------

Method             : SCF
Type of density    : Electron Density
Multiplicity       :   1
Irrep              :   0
Energy             :  -721.7013812600904430 Eh
Basis              : AO
                                X                 Y                 Z
Electronic contribution:      1.292685974      -4.240845671       1.570854541
Nuclear contribution   :     -0.844055051       4.622342121      -1.206747735
                        -----------------------------------------
Total Dipole Moment    :      0.448630923       0.381496450       0.364106805
                        -----------------------------------------
Magnitude (a.u.)       :      0.692374908
Magnitude (Debye)      :      1.759877155



--------------------
Rotational spectrum 
--------------------
 
Rotational constants in cm-1:             0.096431             0.055023             0.040908 
Rotational constants in MHz :          2890.913858          1649.546116          1226.393986 

Dipole components along the rotational axes: 
x,y,z [a.u.] :    -0.319103     0.099966    -0.606270 
x,y,z [Debye]:    -0.811095     0.254094    -1.541015 

 

Dipole moment calculation done in   0.0 sec 

Maximum memory used throughout the entire PROP-calculation: 8.4 MB

--------------------------------
SUGGESTED CITATIONS FOR THIS RUN
--------------------------------

Below you find a list of papers that are relevant to this ORCA run
We neither can nor want to force you to cite these papers, but we appreciate if you do
You receive ORCA, which is the product of decades of hard work by many enthusiastic individuals, for free
The only thing we kindly ask in return is that you cite our papers,
We deeply appreciate it, if you show your appreciation for ORCA by not just citing the generic ORCA reference.

Please note that relegating all ORCA citations to the supporting information does *not* help us.
SI sections are not indexed - citations you put there will not count into any citation statistics
But we need these citations in order to attract the funding resources that allow us to do what we are doing

Therefore, if you are a happy ORCA user, please consider citing a few of the papers listed below in the main body of your paper

In addition to the list printed below, the program has created the file 2.bibtex that contains the list in bibtex format
You can import this file easily into all common literature databanks and citation aid programs


List of essential papers. We consider these as the minimum necessary citations

  1. Neese, F.
     Software update: the ORCA program system, version 6.0
     WIRES Comput. Molec. Sci. 2025 15(1), e70019
     doi.org/10.1002/wcms.7019

List of papers to cite with high priority. The work reported in these papers was absolutely
necessary for this run to complete.
Our perspective: the developers of density functionals and basis sets usually get cited in chemistry papers
Good! But without the algorithms to do something with them, the functionals or basis sets would not do anything.
Hence, in our opinion, the algorithm design and method developments papers are equally worthy of getting cited

  1. Neese, F.
     An improvement of the resolution of the identity approximation for the formation of the Coulomb matrix
     J. Comp. Chem. 2003 24(14), 1740-1747
     doi.org/10.1002/jcc.10318
  2. Grimme, S.
     Semiempirical GGA-type density functional constructed with a long-range dispersion correction
     J.Comput.Chem. 2006 27(15), 1787-1799
     doi.org/10.1002/jcc.20495
  3. Neese, F.
     The SHARK Integral Generation and Digestion System
     J. Comp. Chem. 2022 44(3), 381
     doi.org/10.1002/jcc.26942

List of suggested additional citations. These are papers that are important in the 'surrounding' of 
of this run, or papers that preceded the highly important papers. If you like your results we are grateful for a citation.

  1. Neese, F.
     The ORCA program system
     WIRES Comput. Molec. Sci. 2012 2(1), 73-78
     doi.org/10.1002/wcms.81
  2. Neese, F.
     Software update: the ORCA program system, version 4.0
     WIRES Comput. Molec. Sci. 2018 8(1), 1-6
     doi.org/10.1002/wcms.1327
  3. Neese, F.; Wennmohs, F.; Becker, U.; Riplinger, C.
     The ORCA quantum chemistry program package
     J. Chem. Phys. 2020 152(22), 224108
     doi.org/10.1063/5.0004608
  4. Neese, F.
     Software update: The ORCA program system—Version 5.0
     WIRES Comput. Molec. Sci. 2022 12(1), e1606
     doi.org/10.1002/wcms.1606

List of optional additional citations

  1. Neese, F.
     Approximate second-order SCF convergence for spin unrestricted wavefunctions
     Chem. Phys. Lett. 2000 325(1-3), 93-98
     doi.org/10.1016/s0009-2614(00)00662-x

Timings for individual modules:

Sum of individual times          ...        3.445 sec (=   0.057 min)
Startup calculation              ...        0.299 sec (=   0.005 min)   8.7 %
SCF iterations                   ...        3.116 sec (=   0.052 min)  90.5 %
Property calculations            ...        0.029 sec (=   0.000 min)   0.8 %
                             ****ORCA TERMINATED NORMALLY****
TOTAL RUN TIME: 0 days 0 hours 0 minutes 3 seconds 482 msec
