
                                 *****************
                                 * O   R   C   A *
                                 *****************

                                            #,                                       
                                            ###                                      
                                            ####                                     
                                            #####                                    
                                            ######                                   
                                           ########,                                 
                                     ,,################,,,,,                         
                               ,,#################################,,                 
                          ,,##########################################,,             
                       ,#########################################, ''#####,          
                    ,#############################################,,   '####,        
                  ,##################################################,,,,####,       
                ,###########''''           ''''###############################       
              ,#####''   ,,,,##########,,,,          '''####'''          '####       
            ,##' ,,,,###########################,,,                        '##       
           ' ,,###''''                  '''############,,,                           
         ,,##''                                '''############,,,,        ,,,,,,###''
      ,#''                                            '''#######################'''  
     '                                                          ''''####''''         
             ,#######,   #######,   ,#######,      ##                                
            ,#'     '#,  ##    ##  ,#'     '#,    #''#        ,####,    ,#,          
            ##       ##  ##   ,#'  ##            #'  '#       #'       ,# #          
            ##       ##  #######   ##           ,######,      #####,      #          
            '#,     ,#'  ##    ##  '#,     ,#' ,#      #,     #,   #      #          
             '#######'   ##     ##  '#######'  #'      '#     '####' #    #          



                #########################################################
                #                        -***-                          #
                #          Department of theory and spectroscopy        #
                #                                                       #
                #                      Frank Neese                      #
                #                                                       #
                #     Directorship, Architecture, Infrastructure        #
                #                    SHARK, DRIVERS                     #
                #        Core code/Algorithms in most modules           #
                #                                                       #
                #        Max Planck Institute fuer Kohlenforschung      #
                #                Kaiser Wilhelm Platz 1                 #
                #                 D-45470 Muelheim/Ruhr                 #
                #                      Germany                          #
                #                                                       #
                #                  All rights reserved                  #
                #                        -***-                          #
                #########################################################


                         Program Version 6.1.0  -  RELEASE   -
                                (GIT: $679e74b$)
                          ($2025-06-10 18:02:51 +0200$)


 With contributions from (in alphabetic order):
[Max-Planck-Institut fuer Kohlenforschung]                               
  Daniel Aravena         : Magnetic Suceptibility                        
  Michael Atanasov       : Ab Initio Ligand Field Theory (pilot matlab implementation)
  Alexander A. Auer      : GIAO ZORA, VPT2 properties, NMR spectrum      
  Ute Becker             : All parallelization in ORCA, NUMFREQ, NUMCALC 
  Giovanni Bistoni       : ED, misc. LED, open-shell LED, HFLD           
  Dmytro Bykov           : pre 5.0 version of the SCF Hessian            
  Marcos Casanova-Páez   : Triplet and SCS-CIS(D). UHF-(DLPNO)-IP/EA/STEOM-CCSD. UHF-CVS-IP/STEOM-CCSD   
  Vijay G. Chilkuri      : MRCI spin determinant printing, contributions to CSF-ICE 
  Pauline Colinet        : FMM embedding                                 
  Dipayan Datta          : RHF DLPNO-CCSD density                        
  Achintya Kumar Dutta   : EOM-CC, STEOM-CC                              
  Nicolas Foglia         : Exact transition moments, OPA infrastructure, MCD improvements    
  Dmitry Ganyushin       : Spin-Orbit,Spin-Spin,Magnetic field MRCI      
  Miquel Garcia-Rates    : C-PCM and meta-GGA Hessian, CCSD/C-PCM, Gaussian charge scheme 
  Tiago L. C. Gouveia    : GS-ROHF, GS-ROCIS                             
  Yang Guo               : DLPNO-NEVPT2, F12-NEVPT2, CIM, IAO-localization        
  Andreas Hansen         : Spin unrestricted coupled pair/coupled cluster methods 
  Ingolf Harden          : AUTO-CI MPn and infrastructure                
  Benjamin Helmich-Paris : MC-RPA, TRAH-(SCF,CASSCF), AVAS, COSX integrals, SCF dyn. polar., MC-PDFT, srDFT 
  Lee Huntington         : MR-EOM, pCC                                   
  Robert Izsak           : Overlap fitted RIJCOSX, COSX-SCS-MP3, EOM     
  Riya Kayal             : Wick's Theorem for AUTO-CI, AUTO-CI UHF-CCSDT 
  Emily Kempfer          : AUTO-CI RHF CISDT and CCSDT, approximate NEVPT4
  Christian Kollmar      : KDIIS, OOCD, Brueckner-CCSD(T), CCSD density, CASPT2, CASPT2-K, improved NEVPT2 
  Axel Koslowski         : Symmetry handling                             
  Simone Kossmann        : meta-GGA functionals, TD-DFT gradient, OOMP2, (MP2 Hessian; deprecated post 5.0) 
  Lucas Lang             : DCDCAS, Hyperfine gauge corrections, ICE-SOC+SSC
  Marvin Lechner         : AUTO-CI (C++ implementation), FIC-MRCC        
  Spencer Leger          : CASSCF response                               
  Dagmar Lenk            : GEPOL surface, SMD, ORCA-2-JSON               
  Dimitrios Liakos       : Extrapolation schemes; Compound Job, Property file
  Dimitrios Manganas     : Further ROCIS development; embedding schemes. LFT, Crystal Embedding 
  Dimitrios Pantazis     : SARC Basis sets                               
  Anastasios Papadopoulos: AUTO-CI, single reference methods and gradients 
  Taras Petrenko         : pre 6.0 DFT Hessian and TD-DFT gradient,  ECA, NRVS 
  Petra Pikulova         : Analytic Raman intensities                    
  Peter Pinski           : DLPNO-MP2, DLPNO-MP2 Gradient                 
  Shashank Vittal Rao    : ES-AILFT, MagRelax                            
  Christoph Reimann      : Effective Core Potentials                     
  Marius Retegan         : Local ZFS, SOC                                
  Christoph Riplinger    : Optimizer, TS searches, QM/MM, DLPNO-CCSD(T), (RO)-DLPNO pert. Triples 
  Michael Roemelt        : Original ROCIS implementation, recursive CI coupling coefficients
  Masaaki Saitow         : Open-shell DLPNO-CCSD energy and density      
  Barbara Sandhoefer     : DKH picture change effects                    
  Yorick L. A. Schmerwitz: GMF and freeze-and-release deltaSCF, NEB S-IDPP initial path                    
  Kantharuban Sivalingam : CASSCF convergence/infrastructure, NEVPT2, NEVPT3, NEVPT4(SD), FIC-MRCI and CEPA variants
  Bernardo de Souza      : ESD, SOC TD-DFT                               
  Georgi L. Stoychev     : AutoAux, RI-MP2 NMR, DLPNO-MP2 response, X2C  
  Van Anh Tran           : RI-MP2 g-tensors                              
  Willem Van den Heuvel  : Paramagnetic NMR                              
  Zikuan Wang            : NOTCH, Electric field optimization            
  Frank Wennmohs         : Technical directorship and infrastructure     
  Hang Xu                : AUTO-CI-Response properties                   
                                                                         
[FACCTs GmbH]                                                            
  Markus Bursch, Nicolas Foglia, Miquel Garcia-Rates, Ingolf Harden, Hagen Neugebauer, Anastasios Papadopoulos, 
  Christoph Riplinger, Bernardo de Souza, Georgi L. Stoychev                                                    
                                                                 
  APM, various basis sets, CI-OPT, improved COSX, DLPNO-Multilevel,           
  DOCKER, DRACO, updates on ESD, Fragmentator, GOAT, IRC, LR-CPCM, L-BFGS, MBIS, meta-GGA TD-DFT gradient, ML-optimized integration grids, 
  MM, NACMEs, nearIR, NEB, NEB-TS, NL-DFT gradient (VV10), 2- and 3-layer-ONIOM, interface openCOSMO-RS, QMMM,   
  Crystal-QMMM, RESP, rigid body optimization, SF, symmetry and pop. for TD-DFT, various functionals, SOLVATOR                                   
                                                                         
[Other institutions]                                                     
  V. Asgeirsson          : NEB                                           
  Christoph Bannwarth    : sTDA-DFT, sTD-DFT, PBEh-3c, B97-3c, D3        
  Giovanni Bistoni       : ETS/NOCV, ADLD/ADEX, COVALED                  
  Martin Brehm           : Molecular dynamics                            
  Ronald Cardenas        : ETS/NOCV                                      
  Martina Colucci        : COVALED                                       
  Sebastian Ehlert       : rSCAN, r2SCAN, r2SCAN-3c, D4, dhf basis sets  
  Marvin Friede          : D4 for Fr, Ra, Ac-Lr                          
  Lars Goerigk           : TD-DFT with DH, B97 family of functionals     
  Stefan Grimme          : VdW corrections, initial TS optimization, DFT functionals, gCP, sTDA/sTD-DF 
  Waldemar Hujo          : DFT-NL                                        
  H. Jonsson             : NEB                                           
  Holger Kruse           : gCP                                           
  Marcel Mueller         : wB97X-3c, vDZP basis set                      
  Hagen Neugebauer       : wr2SCAN, Native XTB                           
  Gianluca Regni         : ADLD/ADEX                                     
  Tobias Risthaus        : pre 6.0 range-separated hybrid DFT and stability analysis
  Lukas Wittmann         : regularized MP2, r2SCAN double-hybrids, wr2SCAN        
                                                                         
We gratefully acknowledge several colleagues who have allowed us to      
interface, adapt or use parts of their codes:                            
  Ed Valeev, F. Pavosevic, A. Kumar             : LibInt (2-el integral package), F12 methods 
  Garnet Chan, S. Sharma, J. Yang, R. Olivares  : DMRG                   
  Ulf Ekstrom                                   : XCFun DFT Library      
  Mihaly Kallay                                 : mrcc  (arbitrary order and MRCC methods)
  Frank Weinhold                                : gennbo (NPA and NBO analysis)           
  Simon Mueller                                 : openCOSMO-RS                            
  Christopher J. Cramer and Donald G. Truhlar   : smd solvation model                     
  S Lehtola, MJT Oliveira, MAL Marques          : LibXC Library                           
  Liviu Ungur et al                             : ANISO software                          


 Your calculation uses the libint2 library for the computation of 2-el integrals
 For citations please refer to: http://libint.valeyev.net

 Your ORCA version has been built with support for libXC version: 7.0.0
 For citations please refer to: https://libxc.gitlab.io

 This ORCA versions uses:
   CBLAS   interface :  Fast vector & matrix operations
   LAPACKE interface :  Fast linear algebra routines
   SCALAPACK package :  Parallel linear algebra routines
   Shared memory     :  Shared parallel matrices
   BLAS/LAPACK       :  OpenBLAS 0.3.29  USE64BITINT DYNAMIC_ARCH NO_AFFINITY Haswell SINGLE_THREADED
        Core in use  :  Haswell
   Copyright (c) 2011-2014, The OpenBLAS Project


  ***********************************
  * Starting time: Sat Aug 30 16:05:48 2025
  * Host name:     chemlab03
  * Process ID:    81477
  * Working dir.:  /home/vivek/mm-project/vivek/xtb-goat/B97-D-opt/h/5
  ***********************************



***************************************
The coordinates will be read from file: /home/vivek/mm-project/vivek/xtb-goat/xtb-goat/h/H_CONF/5.xyz
***************************************


Your calculation utilizes empirical dispersion correction


Warning: RI is on but no J-basis has been assigned. Assigning Def2/J (nothing to worry about!)
================================================================================

----- Orbital basis set information -----
Your calculation utilizes the basis: 6-31G**
   H-He, Li-Ne : W. J. Hehre, R. Ditchfield and J.A. Pople, J. Chem. Phys. 56, 2257 (1972).
                 Note: He and Ne are unpublished basis sets taken from the Gaussian program.
                 Note: Li and B from J. D. Dill and J. A. Pople, J. Chem. Phys. 62, 2921 (1975).
   Na - Ar     : M. M. Francl, W. J. Pietro, W. J. Hehre, J. S. Binkley, M. S. Gordon, 
                 D. J. DeFrees and J. A. Pople, J. Chem. Phys. 77, 3654 (1982).
   K - Zn      : V. A. Rassolov, J. A. Pople, M. A. Ratner, and T. L. Windus, J. Chem. Phys. 109, 1223 (1998).

----- AuxJ basis set information -----
Your calculation utilizes the auxiliary basis: def2/J
   H-Rn: F. Weigend, Phys. Chem. Chem. Phys. 8, 1057 (2006).
   Fr-Lr: K. Eichkorn, F. Weigend, O. Treutler, R. Ahlrichs; Theor. Chem. Acc. 97, 119 (1997).

================================================================================
                                        WARNINGS
                       Please study these warnings very carefully!
================================================================================


WARNING: Geometry Optimization
  ===> : Switching off AutoStart
         For restart on a previous wavefunction, please use MOREAD

INFO   : The exchange functional is Grimme's B97(-D)
         As described in S. Grimme, J. Comput. Chem. 27, 1787 (2006).
         Note that this functional defaults to a pure GGA. 

INFO   : The correlation functional is Grimme's B97(-D)
         As described in S. Grimme, J. Comput. Chem. 27, 1787 (2006).

================================================================================
                                       INPUT FILE
================================================================================
NAME = 5.inp
|  1> ! B97-D 6-31G** opt
|  2> 
|  3> * xyzfile 0 1 /home/vivek/mm-project/vivek/xtb-goat/xtb-goat/h/H_CONF/5.xyz
|  4> 
|  5>                          ****END OF INPUT****
================================================================================

                       *****************************
                       * Geometry Optimization Run *
                       *****************************

Geometry optimization settings:
Update method            Update   .... BFGS
Choice of coordinates    CoordSys .... (2022) Redundant Internals
Initial Hessian          InHess   .... Almloef's Model
Max. no of cycles        MaxIter  .... 72

Convergence Tolerances:
Energy Change            TolE     ....  5.0000e-06 Eh
Max. Gradient            TolMAXG  ....  3.0000e-04 Eh/bohr
RMS Gradient             TolRMSG  ....  1.0000e-04 Eh/bohr
Max. Displacement        TolMAXD  ....  4.0000e-03 bohr
RMS Displacement         TolRMSD  ....  2.0000e-03 bohr
Strict Convergence                .... False

------------------------------------------------------------------------------
                        ORCA OPTIMIZATION COORDINATE SETUP
------------------------------------------------------------------------------

The optimization will be done in redundant internal coordinates (2022)
Making redundant internal coordinates   ...  (2022 redundants) done
Evaluating the initial hessian          ...  (Almloef) done
Evaluating the coordinates              ...  done
Calculating the B-matrix                .... done
Calculating the G-matrix                .... done
The number of degrees of freedom        ....  122

    -----------------------------------------------------------------
                    Redundant Internal Coordinates


    -----------------------------------------------------------------
         Definition                    Initial Value    Approx d2E/dq
    -----------------------------------------------------------------
      1. B(N   1,C   0)                  1.4632         0.427653   
      2. B(C   3,N   1)                  1.4716         0.414665   
      3. B(N   4,C   0)                  1.4504         0.448163   
      4. B(N   4,H   2)                  1.0165         0.422467   
      5. B(H   5,C   0)                  1.0965         0.351613   
      6. B(H   6,C   0)                  1.0891         0.361273   
      7. B(C   7,C   3)                  1.5635         0.330282   
      8. B(C   7,N   4)                  1.4558         0.439374   
      9. B(H   8,N   1)                  1.0162         0.422984   
     10. B(H   9,C   7)                  1.0934         0.355595   
     11. B(H  10,C   7)                  1.0879         0.362953   
     12. B(C  11,C   3)                  1.5314         0.371680   
     13. B(H  12,C   3)                  1.0927         0.356521   
     14. B(C  13,C  11)                  1.5366         0.364626   
     15. B(H  14,C  11)                  1.0923         0.357085   
     16. B(H  15,C  11)                  1.0902         0.359889   
     17. B(C  16,C  13)                  1.5425         0.356784   
     18. B(N  18,H  17)                  1.0128         0.428327   
     19. B(N  18,C  13)                  1.4598         0.433052   
     20. B(H  19,N   1)                  1.9870         0.011954   
     21. B(H  19,N  18)                  1.0226         0.413168   
     22. B(O  20,C  16)                  1.3254         0.709530   
     23. B(H  21,C  13)                  1.0975         0.350349   
     24. B(H  22,N  18)                  1.8121         0.022722   
     25. B(H  22,O  20)                  0.9906         0.464691   
     26. B(O  23,C  16)                  1.1996         1.126309   
     27. A(N   4,C   0,H   6)          112.3769         0.332378   
     28. A(N   1,C   0,N   4)          107.5456         0.378944   
     29. A(N   1,C   0,H   5)          107.8403         0.328339   
     30. A(N   4,C   0,H   5)          107.7502         0.330890   
     31. A(H   5,C   0,H   6)          109.2497         0.289901   
     32. A(N   1,C   0,H   6)          111.8934         0.329811   
     33. A(C   3,N   1,H   8)          109.6500         0.333938   
     34. A(C   0,N   1,H   8)          109.5446         0.335654   
     35. A(C   0,N   1,C   3)          104.4659         0.373890   
     36. A(C  11,C   3,H  12)          108.4043         0.323517   
     37. A(N   1,C   3,H  12)          110.1221         0.327421   
     38. A(C   7,C   3,C  11)          111.2335         0.355502   
     39. A(N   1,C   3,C   7)          104.7721         0.359937   
     40. A(N   1,C   3,C  11)          111.2519         0.367277   
     41. A(C   7,C   3,H  12)          111.0526         0.317332   
     42. A(C   0,N   4,H   2)          109.8490         0.338214   
     43. A(H   2,N   4,C   7)          110.1664         0.337099   
     44. A(C   0,N   4,C   7)          103.1073         0.380723   
     45. A(C   3,C   7,H   9)          109.6797         0.317198   
     46. A(C   3,C   7,N   4)          106.2147         0.363510   
     47. A(N   4,C   7,H  10)          111.4879         0.331544   
     48. A(C   3,C   7,H  10)          112.6081         0.318258   
     49. A(N   4,C   7,H   9)          108.0199         0.330423   
     50. A(H   9,C   7,H  10)          108.7162         0.290625   
     51. A(H  14,C  11,H  15)          108.9065         0.290429   
     52. A(C  13,C  11,H  15)          108.5058         0.323000   
     53. A(C   3,C  11,H  15)          108.1319         0.324017   
     54. A(C  13,C  11,H  14)          108.9443         0.322586   
     55. A(C   3,C  11,H  14)          109.5696         0.323601   
     56. A(C   3,C  11,C  13)          112.7109         0.361536   
     57. A(C  11,C  13,C  16)          110.5792         0.359025   
     58. A(N  18,C  13,H  21)          108.9706         0.328824   
     59. A(C  16,C  13,H  21)          105.6999         0.320440   
     60. A(C  11,C  13,H  21)          108.6429         0.321581   
     61. A(C  16,C  13,N  18)          107.7041         0.367433   
     62. A(C  11,C  13,N  18)          114.8453         0.368807   
     63. A(O  20,C  16,O  23)          123.7298         0.489558   
     64. A(C  13,C  16,O  23)          123.4443         0.434683   
     65. A(C  13,C  16,O  20)          112.8218         0.400354   
     66. A(H  17,N  18,H  19)          107.6407         0.300540   
     67. A(C  13,N  18,H  19)          107.7568         0.335044   
     68. A(C  13,N  18,H  17)          111.2547         0.337059   
     69. A(C  16,O  20,H  22)          106.1328         0.371552   
     70. D(H   8,N   1,C   0,H   6)    -40.8839         0.016707   
     71. D(H   8,N   1,C   0,N   4)     82.9900         0.016707   
     72. D(C   3,N   1,C   0,H   5)     81.5507         0.016707   
     73. D(H   8,N   1,C   0,H   5)   -161.0558         0.016707   
     74. D(C   3,N   1,C   0,N   4)    -34.4035         0.016707   
     75. D(C   3,N   1,C   0,H   6)   -158.2774         0.016707   
     76. D(C   7,C   3,N   1,H   8)   -100.9687         0.015706   
     77. D(H  12,C   3,N   1,H   8)     18.5209         0.015706   
     78. D(C  11,C   3,N   1,H   8)    138.7376         0.015706   
     79. D(C   7,C   3,N   1,C   0)     16.3523         0.015706   
     80. D(C  11,C   3,N   1,C   0)   -103.9414         0.015706   
     81. D(H  12,C   3,N   1,C   0)    135.8419         0.015706   
     82. D(H   2,N   4,C   0,H   6)     44.3644         0.017132   
     83. D(H   2,N   4,C   0,H   5)    164.7715         0.017132   
     84. D(H   2,N   4,C   0,N   1)    -79.2149         0.017132   
     85. D(C   7,N   4,C   0,H   5)    -77.8168         0.017132   
     86. D(C   7,N   4,C   0,N   1)     38.1968         0.017132   
     87. D(H  10,C   7,N   4,C   0)   -149.3352         0.016461   
     88. D(H   9,C   7,N   4,C   0)     91.2783         0.016461   
     89. D(C   3,C   7,N   4,H   2)     90.8591         0.016461   
     90. D(C   3,C   7,N   4,C   0)    -26.3286         0.016461   
     91. D(H   9,C   7,C   3,H  12)    130.8585         0.010000   
     92. D(H   9,C   7,C   3,C  11)     10.0281         0.010000   
     93. D(H   9,C   7,C   3,N   1)   -110.2779         0.010000   
     94. D(N   4,C   7,C   3,H  12)   -112.6443         0.010000   
     95. D(H   9,C   7,N   4,H   2)   -151.5340         0.016461   
     96. D(N   4,C   7,C   3,C  11)    126.5253         0.010000   
     97. D(N   4,C   7,C   3,N   1)      6.2193         0.010000   
     98. D(C  13,C  11,C   3,H  12)     58.9131         0.011037   
     99. D(C  13,C  11,C   3,C   7)   -178.7127         0.011037   
    100. D(C  13,C  11,C   3,N   1)    -62.3139         0.011037   
    101. D(H  14,C  11,C   3,H  12)   -179.6006         0.011037   
    102. D(H  14,C  11,C   3,C   7)    -57.2264         0.011037   
    103. D(H  14,C  11,C   3,N   1)     59.1724         0.011037   
    104. D(N  18,C  13,C  11,H  15)   -174.2725         0.010648   
    105. D(N  18,C  13,C  11,H  14)    -55.8384         0.010648   
    106. D(N  18,C  13,C  11,C   3)     66.0021         0.010648   
    107. D(C  16,C  13,C  11,H  15)     63.5999         0.010648   
    108. D(C  16,C  13,C  11,H  14)   -177.9661         0.010648   
    109. D(C  16,C  13,C  11,C   3)    -56.1255         0.010648   
    110. D(O  23,C  16,C  13,N  18)   -169.6269         0.010000   
    111. D(O  23,C  16,C  13,C  11)    -43.4007         0.010000   
    112. D(O  20,C  16,C  13,H  21)   -105.2861         0.010000   
    113. D(O  20,C  16,C  13,N  18)     11.0859         0.010000   
    114. D(O  20,C  16,C  13,C  11)    137.3121         0.010000   
    115. D(H  19,N  18,C  13,H  21)   -155.9139         0.017135   
    116. D(H  19,N  18,C  13,C  16)     89.8751         0.017135   
    117. D(H  19,N  18,C  13,C  11)    -33.7954         0.017135   
    118. D(H  17,N  18,C  13,H  21)    -38.1394         0.017135   
    119. D(H  17,N  18,C  13,C  16)   -152.3504         0.017135   
    120. D(H  17,N  18,C  13,C  11)     83.9791         0.017135   
    121. D(H  22,O  20,C  16,O  23)    179.2783         0.037800   
    122. D(H  22,O  20,C  16,C  13)     -1.4369         0.037800   
    -----------------------------------------------------------------

Number of atoms                         .... 24
Number of degrees of freedom            .... 122


         *************************************************************
         *                GEOMETRY OPTIMIZATION CYCLE   1            *
         *************************************************************
---------------------------------
CARTESIAN COORDINATES (ANGSTROEM)
---------------------------------
  C     -9.364464    3.201948   -0.320713
  N     -8.030008    2.604804   -0.260722
  H     -9.966825    2.957875    1.606967
  C     -7.291548    3.449925    0.691137
  N     -9.672404    3.717841    0.999447
  H     -9.320873    4.053198   -1.010473
  H    -10.111542    2.492128   -0.673136
  C     -8.396450    4.254954    1.449912
  H     -8.097105    1.658426    0.103287
  H     -8.350731    5.307773    1.158252
  H     -8.295027    4.187484    2.530922
  C     -6.322331    4.387292   -0.034879
  H     -6.717137    2.826248    1.380422
  C     -5.239467    3.629663   -0.818808
  H     -6.878548    5.025599   -0.725011
  H     -5.834266    5.014725    0.711156
  C     -4.462510    2.676709    0.112632
  H     -5.841715    3.416700   -2.773422
  N     -5.734292    2.843872   -1.945151
  H     -6.658691    2.486203   -1.693705
  O     -4.239708    1.490655   -0.435337
  H     -4.500903    4.353651   -1.185974
  H     -4.666595    1.515702   -1.328872
  O     -4.089151    2.983999    1.210447

----------------------------
CARTESIAN COORDINATES (A.U.)
----------------------------
  NO LB      ZA    FRAG     MASS         X           Y           Z
   0 C     6.0000    0    12.011  -17.696272    6.050804   -0.606060
   1 N     7.0000    0    14.007  -15.174517    4.922366   -0.492694
   2 H     1.0000    0     1.008  -18.834570    5.589573    3.036727
   3 C     6.0000    0    12.011  -13.779028    6.519413    1.306059
   4 N     7.0000    0    14.007  -18.278194    7.025702    1.888681
   5 H     1.0000    0     1.008  -17.613898    7.659433   -1.909518
   6 H     1.0000    0     1.008  -19.108045    4.709440   -1.272042
   7 C     6.0000    0    12.011  -15.866992    8.040698    2.739936
   8 H     1.0000    0     1.008  -15.301312    3.133970    0.195183
   9 H     1.0000    0     1.008  -15.780595   10.030237    2.188779
  10 H     1.0000    0     1.008  -15.675329    7.913198    4.782749
  11 C     6.0000    0    12.011  -11.947474    8.290781   -0.065912
  12 H     1.0000    0     1.008  -12.693549    5.340834    2.608619
  13 C     6.0000    0    12.011   -9.901158    6.859069   -1.547322
  14 H     1.0000    0     1.008  -12.998572    9.497006   -1.370072
  15 H     1.0000    0     1.008  -11.025165    9.476456    1.343891
  16 C     6.0000    0    12.011   -8.432922    5.058247    0.212843
  17 H     1.0000    0     1.008  -11.039241    6.456627   -5.241009
  18 N     7.0000    0    14.007  -10.836241    5.374140   -3.675803
  19 H     1.0000    0     1.008  -12.583103    4.698243   -3.200639
  20 O     8.0000    0    15.999   -8.011887    2.816930   -0.822667
  21 H     1.0000    0     1.008   -8.505474    8.227209   -2.241166
  22 H     1.0000    0     1.008   -8.818586    2.864261   -2.511205
  23 O     8.0000    0    15.999   -7.727375    5.638940    2.287414

--------------------------------
INTERNAL COORDINATES (ANGSTROEM)
--------------------------------
 C      0   0   0     0.000000000000     0.00000000     0.00000000
 N      1   0   0     1.463198911589     0.00000000     0.00000000
 H      1   2   0     2.034296195525   100.49991483     0.00000000
 C      2   1   3     1.471593875628   104.46592662   297.59041622
 N      3   1   2     1.016520219710    42.11633887   107.71426674
 H      1   2   3     1.096492476909   107.84033231   143.96030717
 H      1   2   3     1.089114626430   111.89343562   264.13217710
 C      5   3   1     1.455838573351   110.16642334   247.08145216
 H      2   1   3     1.016187054220   109.54460461    54.98393470
 H      8   5   3     1.093426917242   108.01989278   208.46603082
 H      8   5   3     1.087852035776   111.48787756   327.85252950
 C      4   2   1     1.531384378525   111.25193983   256.05864445
 H      4   2   1     1.092719313303   110.12206550   135.84192302
 C     12   4   2     1.536600189669   112.71087318   297.68614502
 H     12   4   2     1.092288787144   109.56964797    59.17243498
 H     12   4   2     1.090159666355   108.13185085   177.74478802
 C     14  12   4     1.542518047133   110.57921774   303.87446758
 H     14  12   4     2.056349518193   109.24463509    94.91588674
 N     18  14  12     1.012770279671    41.42221247   252.91175374
 H     19  18  14     1.022578569143   107.64070067   117.84482788
 O     17  14  12     1.325380990418   112.82180204   137.31211961
 H     14  12   4     1.097472927301   108.64287518   188.29777900
 H     21  17  14     0.990588650370   106.13283885   358.56314888
 O     17  14  12     1.199593080882   123.44431125   316.59932586

---------------------------
INTERNAL COORDINATES (A.U.)
---------------------------
 C      0   0   0     0.000000000000     0.00000000     0.00000000
 N      1   0   0     2.765045222354     0.00000000     0.00000000
 H      1   2   0     3.844262684821   100.49991483     0.00000000
 C      2   1   3     2.780909405292   104.46592662   297.59041622
 N      3   1   2     1.920944824846    42.11633887   107.71426674
 H      1   2   3     2.072070489263   107.84033231   143.96030717
 H      1   2   3     2.058128372401   111.89343562   264.13217710
 C      5   3   1     2.751136198832   110.16642334   247.08145216
 H      2   1   3     1.920315233313   109.54460461    54.98393470
 H      8   5   3     2.066277421045   108.01989278   208.46603082
 H      8   5   3     2.055742421845   111.48787756   327.85252950
 C      4   2   1     2.893897081178   111.25193983   256.05864445
 H      4   2   1     2.064940243388   110.12206550   135.84192302
 C     12   4   2     2.903753535807   112.71087318   297.68614502
 H     12   4   2     2.064126666856   109.56964797    59.17243498
 H     12   4   2     2.060103211657   108.13185085   177.74478802
 C     14  12   4     2.914936665712   110.57921774   303.87446758
 H     14  12   4     3.885937425006   109.24463509    94.91588674
 N     18  14  12     1.913858465152    41.42221247   252.91175374
 H     19  18  14     1.932393446097   107.64070067   117.84482788
 O     17  14  12     2.504607094996   112.82180204   137.31211961
 H     14  12   4     2.073923271992   108.64287518   188.29777900
 H     21  17  14     1.871941260569   106.13283885   358.56314888
 O     17  14  12     2.266902395013   123.44431125   316.59932586

---------------------
BASIS SET INFORMATION
---------------------
There are 4 groups of distinct atoms

 Group   1 Type C   : 10s4p1d contracted to 3s2p1d pattern {631/31/1}
 Group   2 Type N   : 10s4p1d contracted to 3s2p1d pattern {631/31/1}
 Group   3 Type H   : 4s1p contracted to 2s1p pattern {31/1}
 Group   4 Type O   : 10s4p1d contracted to 3s2p1d pattern {631/31/1}

Atom   0C    basis set group =>   1
Atom   1N    basis set group =>   2
Atom   2H    basis set group =>   3
Atom   3C    basis set group =>   1
Atom   4N    basis set group =>   2
Atom   5H    basis set group =>   3
Atom   6H    basis set group =>   3
Atom   7C    basis set group =>   1
Atom   8H    basis set group =>   3
Atom   9H    basis set group =>   3
Atom  10H    basis set group =>   3
Atom  11C    basis set group =>   1
Atom  12H    basis set group =>   3
Atom  13C    basis set group =>   1
Atom  14H    basis set group =>   3
Atom  15H    basis set group =>   3
Atom  16C    basis set group =>   1
Atom  17H    basis set group =>   3
Atom  18N    basis set group =>   2
Atom  19H    basis set group =>   3
Atom  20O    basis set group =>   4
Atom  21H    basis set group =>   3
Atom  22H    basis set group =>   3
Atom  23O    basis set group =>   4
---------------------------------
AUXILIARY/J BASIS SET INFORMATION
---------------------------------
There are 4 groups of distinct atoms

 Group   1 Type C   : 12s5p4d2f1g contracted to 6s4p3d1f1g pattern {711111/2111/211/2/1}
 Group   2 Type N   : 12s5p4d2f1g contracted to 6s4p3d1f1g pattern {711111/2111/211/2/1}
 Group   3 Type H   : 5s2p1d contracted to 3s1p1d pattern {311/2/1}
 Group   4 Type O   : 12s5p4d2f1g contracted to 6s4p3d1f1g pattern {711111/2111/211/2/1}

Atom   0C    basis set group =>   1
Atom   1N    basis set group =>   2
Atom   2H    basis set group =>   3
Atom   3C    basis set group =>   1
Atom   4N    basis set group =>   2
Atom   5H    basis set group =>   3
Atom   6H    basis set group =>   3
Atom   7C    basis set group =>   1
Atom   8H    basis set group =>   3
Atom   9H    basis set group =>   3
Atom  10H    basis set group =>   3
Atom  11C    basis set group =>   1
Atom  12H    basis set group =>   3
Atom  13C    basis set group =>   1
Atom  14H    basis set group =>   3
Atom  15H    basis set group =>   3
Atom  16C    basis set group =>   1
Atom  17H    basis set group =>   3
Atom  18N    basis set group =>   2
Atom  19H    basis set group =>   3
Atom  20O    basis set group =>   4
Atom  21H    basis set group =>   3
Atom  22H    basis set group =>   3
Atom  23O    basis set group =>   4
------------------------------------------------------------------------------
                             ORCA STARTUP CALCULATIONS
                           -- RI-GTO INTEGRALS CHOSEN --
------------------------------------------------------------------------------
------------------------------------------------------------------------------
                   ___                                                        
                  /   \      - P O W E R E D   B Y -                         
                 /     \                                                     
                 |  |  |   _    _      __       _____    __    __             
                 |  |  |  | |  | |    /  \     |  _  \  |  |  /  |          
                  \  \/   | |  | |   /    \    | | | |  |  | /  /          
                 / \  \   | |__| |  /  /\  \   | |_| |  |  |/  /          
                |  |  |   |  __  | /  /__\  \  |    /   |      \           
                |  |  |   | |  | | |   __   |  |    \   |  |\   \          
                \     /   | |  | | |  |  |  |  | |\  \  |  | \   \       
                 \___/    |_|  |_| |__|  |__|  |_| \__\ |__|  \__/        
                                                                              
                      - O R C A' S   B I G   F R I E N D -                    
                                      &                                       
                       - I N T E G R A L  F E E D E R -                       
                                                                              
 v1 FN, 2020, v2 2021, v3 2022-2024                                           
------------------------------------------------------------------------------


----------------------
SHARK INTEGRAL PACKAGE
----------------------

Number of atoms                             ...     24
Number of basis functions                   ...    219
Number of shells                            ...    105
Maximum angular momentum                    ...      2
Integral batch strategy                     ... SHARK/LIBINT Hybrid
RI-J (if used) integral strategy            ... SPLIT-RIJ (Revised 2003 algorithm where possible)
Printlevel                                  ...      1
Contraction scheme used                     ... SEGMENTED contraction
Prescreening option                         ... SCHWARTZ
   Thresh                                   ... 2.500e-11
   Tcut                                     ... 2.500e-12
   Tpresel                                  ... 2.500e-12 
Coulomb Range Separation                    ... NOT USED
Exchange Range Separation                   ... NOT USED
Multipole approximations                    ... NOT USED
Finite Nucleus Model                        ... NOT USED
CABS basis                                  ... NOT available
Auxiliary Coulomb fitting basis             ... AVAILABLE
   # of basis functions in Aux-J            ...    682
   # of shells in Aux-J                     ...    230
   Maximum angular momentum in Aux-J        ...      4
Auxiliary J/K fitting basis                 ... NOT available
Auxiliary Correlation fitting basis         ... NOT available
Auxiliary 'external' fitting basis          ... NOT available

Checking pre-screening integrals            ... done (  0.0 sec) Dimension = 105
   => SHARK Basis and OBASIS are compatible. Storing Pre-screening
Shell pair information
Shell pair cut-off parameter TPreSel        ...   2.5e-12
Total number of shell pairs                 ...      5565
Shell pairs after pre-screening             ...      4933
Total number of primitive shell pairs       ...     26835
Primitive shell pairs kept                  ...     15432
          la=0 lb=0:   1575 shell pairs
          la=1 lb=0:   1834 shell pairs
          la=1 lb=1:    559 shell pairs
          la=2 lb=0:    569 shell pairs
          la=2 lb=1:    338 shell pairs
          la=2 lb=2:     58 shell pairs

Checking whether 4 symmetric matrices of dimension 219 fit in memory
:Max Core in MB      =   4096.00
 MB in use           =     10.04
 MB left             =   4085.96
 MB needed           =      0.74
 Data fit in memory  = YES
Calculating RI/J V-Matrix + Cholesky decomp.... done (  0.0 sec)
Calculating Nuclear repulsion               ... done (  0.0 sec) ENN=    680.261568332424 Eh

Diagonalization of the overlap matrix:
Smallest eigenvalue                        ... 2.472e-03
Time for diagonalization                   ...    0.002 sec
Threshold for overlap eigenvalues          ... 1.000e-07
Number of eigenvalues below threshold      ... 0
Time for construction of square roots      ...    0.001 sec
Total time needed                          ...    0.004 sec

-------------------
DFT GRID GENERATION
-------------------

General Integration Accuracy     IntAcc      ... 4.388
Radial Grid Type                 RadialGrid  ... OptM3 with GC (2021)
Angular Grid (max. ang.)         AngularGrid ... 4 (Lebedev-302)
Angular grid pruning method      GridPruning ... 4 (adaptive)
Weight generation scheme         WeightScheme... mBecke (2022)
Basis function cutoff            BFCut       ... 1.0000e-11
Integration weight cutoff        WCut        ... 1.0000e-14
Partially contracted basis set               ... off
Rotationally invariant grid construction     ... off
Angular grids for H and He will be reduced by one unit

Total number of grid points                  ...   107273
Total number of batches                      ...     1690
Average number of points per batch           ...       63
Average number of grid points per atom       ...     4470
Grids setup in   0.5 sec
Initializing property integral containers    ... done (  0.0 sec)

SHARK setup successfully completed in   0.6 seconds

Maximum memory used throughout the entire STARTUP-calculation: 46.3 MB
-------------------------------------------------------------------------------
                                 ORCA GUESS
                   Start orbitals & Density for SCF / CASSCF
-------------------------------------------------------------------------------

------------
SCF SETTINGS
------------
Hamiltonian:
 Density Functional     Method          .... DFT(GTOs)
 Exchange Functional    Exchange        .... B97(D)
 Correlation Functional Correlation     .... B97(D)
 Gradients option       PostSCFGGA      .... off
 RI-approximation to the Coulomb term is turned on
   Number of AuxJ basis functions       .... 682


General Settings:
 Integral files         IntName         .... 5
 Hartree-Fock type      HFTyp           .... RHF
 Total Charge           Charge          ....    0
 Multiplicity           Mult            ....    1
 Number of Electrons    NEL             ....   86
 Basis Dimension        Dim             ....  219
 Nuclear Repulsion      ENuc            ....    680.2615683324 Eh

Convergence Acceleration:
 AO-DIIS                CNVDIIS         .... on
   Start iteration      DIISMaxIt       ....    12
   Startup error        DIISStart       ....  0.200000
   # of expansion vecs  DIISMaxEq       ....     5
   Bias factor          DIISBfac        ....   1.050
   Max. coefficient     DIISMaxC        ....  10.000
 MO-DIIS                CNVKDIIS        .... off
 Trust-Rad. Augm. Hess. CNVTRAH         .... auto
   Auto Start mean grad. ratio tolernc. ....  1.125000
   Auto Start start iteration           ....    50
   Auto Start num. interpolation iter.  ....    10
   Max. Number of Micro iterations      ....    24
   Max. Number of Macro iterations      .... Maxiter - #DIIS iter
   Number of Davidson start vectors     ....     2
   Converg. threshold    (grad. norm)   ....   1.000e-05
   Grad. Scal. Fac. for Micro threshold ....   0.100
   Minimum threshold for Micro iter.    ....   1.000e-02
   NR start threshold (gradient norm)   ....   1.000e-04
   Initial trust radius                 ....   0.400
   Minimum AH scaling param. (alpha)    ....   1.000
   Maximum AH scaling param. (alpha)    .... 1000.000
   Quad. conv. algorithm                .... NR
   White noise on init. David. guess    .... on
   Maximum white noise                  ....   0.010
   Pseudo random numbers                .... off
   Inactive MOs                         .... canonical
   Orbital update algorithm             .... Taylor
   Preconditioner                       .... Diag
   Full preconditioner red. dimension   ....   250
 SOSCF                 CNVSOSCF           .... on
   Start iteration     SOSCFMaxIt         ....   150
   Startup grad/error  SOSCFStart         ....  0.003300
   Hessian update      SOSCFHessUp        .... L-BFGS
   Autom. constraints  SOSCFAutoConstrain .... off
 Level Shifting         CNVShift        .... on
   Level shift para.    LevelShift      ....    0.2500
   Turn off err/grad.   ShiftErr        ....    0.0010
 Zerner damping         CNVZerner       .... off
 Static damping         CNVDamp         .... on
   Fraction old density DampFac         ....    0.7000
   Max. Damping (<1)    DampMax         ....    0.9800
   Min. Damping (>=0)   DampMin         ....    0.0000
   Turn off err/grad.   DampErr         ....    0.1000

SCF Procedure:
 Maximum # iterations   MaxIter         ....   125
 SCF integral mode      SCFMode         .... Direct
   Integral package                     .... SHARK and LIBINT hybrid scheme
 Reset frequency        DirectResetFreq ....    20
 Integral Threshold     Thresh          ....  2.500e-11 Eh
 Primitive CutOff       TCut            ....  2.500e-12 Eh

Convergence Tolerance:
 Convergence Check Mode ConvCheckMode   .... Total+1el-Energy
 Convergence forced     ConvForced      .... 0
 Energy Change          TolE            ....  1.000e-08 Eh
 1-El. energy change                    ....  1.000e-05 Eh
 Orbital Gradient       TolG            ....  1.000e-05
 Orbital Rotation angle TolX            ....  1.000e-05
 DIIS Error             TolErr          ....  5.000e-07

------------------------------
INITIAL GUESS: MODEL POTENTIAL
------------------------------
Loading Hartree-Fock densities                     ... done
Calculating cut-offs                               ... done
Initializing the effective Hamiltonian             ... done
Setting up the integral package (SHARK)            ... done
Starting the Coulomb interaction                   ... done (   0.1 sec)
Making the grid                                    ... done (   0.1 sec)
Mapping shells                                     ... done
Starting the XC term evaluation                    ... done (   0.1 sec)
  promolecular density results
     # of electrons  =     85.994055059
     EX              =    -69.847914560
     EC              =     -3.770712621
     EX+EC           =    -73.618627181
Transforming the Hamiltonian                       ... done (   0.0 sec)
Diagonalizing the Hamiltonian                      ... done (   0.0 sec)
Back transforming the eigenvectors                 ... done (   0.0 sec)
Now organizing SCF variables                       ... done
                      ------------------
                      INITIAL GUESS DONE (   0.4 sec)
                      ------------------
             **** ENERGY FILE WAS UPDATED (5.en.tmp) ****
Finished Guess after   0.4 sec
Maximum memory used throughout the entire GUESS-calculation: 16.2 MB

-------------------------------------------------------------------------------------------
                                      ORCA LEAN-SCF
                              memory conserving SCF solver
-------------------------------------------------------------------------------------------

----------------------------------------D-I-I-S--------------------------------------------
Iteration    Energy (Eh)           Delta-E    RMSDP     MaxDP     DIISErr   Damp  Time(sec)
-------------------------------------------------------------------------------------------
               ***  Starting incremental Fock matrix formation  ***
    1    -550.4097505766364975     0.00e+00  3.31e-03  1.06e-01  2.60e-01  0.700   0.8
    2    -550.5914032942139329    -1.82e-01  2.16e-03  5.51e-02  9.25e-02  0.700   0.7
                               ***Turning on AO-DIIS***
    3    -550.6487231202499970    -5.73e-02  8.32e-04  1.86e-02  2.50e-02  0.700   0.7
    4    -550.6859619142708198    -3.72e-02  1.14e-03  2.39e-02  1.13e-02  0.000   0.7
    5    -550.7716890413066722    -8.57e-02  3.49e-04  8.88e-03  8.05e-03  0.000   0.7
                              *** Initializing SOSCF ***
---------------------------------------S-O-S-C-F--------------------------------------
Iteration    Energy (Eh)           Delta-E    RMSDP     MaxDP     MaxGrad    Time(sec)
--------------------------------------------------------------------------------------
    6    -550.7724257308709639    -7.37e-04  1.35e-04  2.72e-03  3.00e-03     0.7
               *** Restarting incremental Fock matrix formation ***
    7    -550.7725038445621522    -7.81e-05  9.18e-05  2.85e-03  5.94e-04     0.8
    8    -550.7724914634245579     1.24e-05  4.69e-05  2.14e-03  1.90e-03     0.6
    9    -550.7725103422878874    -1.89e-05  3.49e-05  9.54e-04  2.80e-04     0.6
   10    -550.7725097812472086     5.61e-07  1.60e-05  4.74e-04  1.36e-04     0.6
   11    -550.7725115149353314    -1.73e-06  8.09e-06  1.90e-04  3.32e-05     0.6
   12    -550.7725114662396209     4.87e-08  4.14e-06  1.36e-04  4.81e-05     0.6
   13    -550.7725115738528530    -1.08e-07  1.75e-06  3.36e-05  9.68e-06     0.6
   14    -550.7725115735197505     3.33e-10  9.73e-07  2.08e-05  9.92e-06     0.6
                 **** Energy Check signals convergence ****

               *****************************************************
               *                     SUCCESS                       *
               *           SCF CONVERGED AFTER  14 CYCLES          *
               *****************************************************

             **** ENERGY FILE WAS UPDATED (5.en.tmp) ****

----------------
TOTAL SCF ENERGY
----------------

Total Energy       :       -550.77251157518640 Eh          -14987.28198 eV

Components:
Nuclear Repulsion  :        680.26156833242408 Eh           18510.85835 eV
Electronic Energy  :      -1231.03407990761025 Eh          -33498.14033 eV
One Electron Energy:      -2100.08948810715265 Eh          -57146.34024 eV
Two Electron Energy:        869.05540819954228 Eh           23648.19991 eV

Virial components:
Potential Energy   :      -1098.78634895034929 Eh          -29899.49662 eV
Kinetic Energy     :        548.01383737516278 Eh           14912.21464 eV
Virial Ratio       :          2.00503394989666

DFT components:
N(Alpha)           :       43.000034589009 electrons
N(Beta)            :       43.000034589009 electrons
N(Total)           :       86.000069178018 electrons
E(X)               :      -71.442253713228 Eh       
E(C)               :       -3.770292572949 Eh       
E(XC)              :      -75.212546286177 Eh       

---------------
SCF CONVERGENCE
---------------

  Last Energy change         ...   -3.3310e-10  Tolerance :   1.0000e-08
  Last MAX-Density change    ...    2.0769e-05  Tolerance :   1.0000e-07
  Last RMS-Density change    ...    9.7304e-07  Tolerance :   5.0000e-09
  Last DIIS Error            ...    2.9985e-03  Tolerance :   5.0000e-07
  Last Orbital Gradient      ...    9.9213e-06  Tolerance :   1.0000e-05
  Last Orbital Rotation      ...    8.2764e-06  Tolerance :   1.0000e-05


----------------
ORBITAL ENERGIES
----------------

  NO   OCC          E(Eh)            E(eV) 
   0   2.0000     -18.780227      -511.0359 
   1   2.0000     -18.728607      -509.6313 
   2   2.0000     -14.009590      -381.2203 
   3   2.0000     -14.000006      -380.9595 
   4   2.0000     -13.996819      -380.8728 
   5   2.0000     -10.007743      -272.3245 
   6   2.0000      -9.963776      -271.1281 
   7   2.0000      -9.945668      -270.6354 
   8   2.0000      -9.940897      -270.5056 
   9   2.0000      -9.933352      -270.3002 
  10   2.0000      -9.910029      -269.6656 
  11   2.0000      -0.993041       -27.0220 
  12   2.0000      -0.913931       -24.8693 
  13   2.0000      -0.891454       -24.2577 
  14   2.0000      -0.821861       -22.3640 
  15   2.0000      -0.785679       -21.3794 
  16   2.0000      -0.708946       -19.2914 
  17   2.0000      -0.652144       -17.7458 
  18   2.0000      -0.592683       -16.1277 
  19   2.0000      -0.569737       -15.5033 
  20   2.0000      -0.530595       -14.4382 
  21   2.0000      -0.517388       -14.0789 
  22   2.0000      -0.490808       -13.3556 
  23   2.0000      -0.473616       -12.8877 
  24   2.0000      -0.434806       -11.8317 
  25   2.0000      -0.430879       -11.7248 
  26   2.0000      -0.415863       -11.3162 
  27   2.0000      -0.403002       -10.9662 
  28   2.0000      -0.385894       -10.5007 
  29   2.0000      -0.375663       -10.2223 
  30   2.0000      -0.363070        -9.8796 
  31   2.0000      -0.354864        -9.6563 
  32   2.0000      -0.347382        -9.4527 
  33   2.0000      -0.337932        -9.1956 
  34   2.0000      -0.323329        -8.7982 
  35   2.0000      -0.310036        -8.4365 
  36   2.0000      -0.299338        -8.1454 
  37   2.0000      -0.290288        -7.8991 
  38   2.0000      -0.247541        -6.7359 
  39   2.0000      -0.238236        -6.4827 
  40   2.0000      -0.210586        -5.7303 
  41   2.0000      -0.194333        -5.2881 
  42   2.0000      -0.189138        -5.1467 
  43   0.0000       0.001130         0.0308 
  44   0.0000       0.032285         0.8785 
  45   0.0000       0.063274         1.7218 
  46   0.0000       0.080447         2.1891 
  47   0.0000       0.095872         2.6088 
  48   0.0000       0.108565         2.9542 
  49   0.0000       0.110401         3.0042 
  50   0.0000       0.118762         3.2317 
  51   0.0000       0.130742         3.5577 
  52   0.0000       0.134439         3.6583 
  53   0.0000       0.138002         3.7552 
*Only the first 10 virtual orbitals were printed.

                    ********************************
                    * MULLIKEN POPULATION ANALYSIS *
                    ********************************

-----------------------
MULLIKEN ATOMIC CHARGES
-----------------------
   0 C :    0.003915
   1 N :   -0.479476
   2 H :    0.232579
   3 C :   -0.019316
   4 N :   -0.448181
   5 H :    0.123014
   6 H :    0.114212
   7 C :   -0.099532
   8 H :    0.244876
   9 H :    0.118738
  10 H :    0.115925
  11 C :   -0.170067
  12 H :    0.130204
  13 C :   -0.083782
  14 H :    0.091846
  15 H :    0.129616
  16 C :    0.531869
  17 H :    0.246299
  18 N :   -0.627515
  19 H :    0.273522
  20 O :   -0.459452
  21 H :    0.132918
  22 H :    0.326716
  23 O :   -0.428929
Sum of atomic charges:    0.0000000

--------------------------------
MULLIKEN REDUCED ORBITAL CHARGES
--------------------------------
  0 C s       :     3.158774  s :     3.158774
      pz      :     0.888436  p :     2.770470
      px      :     0.857072
      py      :     1.024962
      dz2     :     0.014205  d :     0.066840
      dxz     :     0.012730
      dyz     :     0.016667
      dx2y2   :     0.009657
      dxy     :     0.013581

  1 N s       :     3.613734  s :     3.613734
      pz      :     1.519095  p :     3.831802
      px      :     1.198034
      py      :     1.114674
      dz2     :     0.004843  d :     0.033939
      dxz     :     0.005622
      dyz     :     0.008584
      dx2y2   :     0.009101
      dxy     :     0.005790

  2 H s       :     0.743360  s :     0.743360
      pz      :     0.007258  p :     0.024061
      px      :     0.007354
      py      :     0.009449

  3 C s       :     3.192599  s :     3.192599
      pz      :     0.906713  p :     2.772686
      px      :     0.931740
      py      :     0.934233
      dz2     :     0.007510  d :     0.054030
      dxz     :     0.012806
      dyz     :     0.013271
      dx2y2   :     0.006169
      dxy     :     0.014276

  4 N s       :     3.601188  s :     3.601188
      pz      :     1.058510  p :     3.811443
      px      :     1.379139
      py      :     1.373794
      dz2     :     0.005677  d :     0.035550
      dxz     :     0.006474
      dyz     :     0.010505
      dx2y2   :     0.008663
      dxy     :     0.004232

  5 H s       :     0.866825  s :     0.866825
      pz      :     0.003589  p :     0.010160
      px      :     0.001887
      py      :     0.004684

  6 H s       :     0.875073  s :     0.875073
      pz      :     0.002564  p :     0.010715
      px      :     0.004191
      py      :     0.003960

  7 C s       :     3.198481  s :     3.198481
      pz      :     1.020491  p :     2.852013
      px      :     0.822964
      py      :     1.008559
      dz2     :     0.011172  d :     0.049038
      dxz     :     0.008250
      dyz     :     0.004224
      dx2y2   :     0.014569
      dxy     :     0.010824

  8 H s       :     0.731153  s :     0.731153
      pz      :     0.007654  p :     0.023971
      px      :     0.005179
      py      :     0.011138

  9 H s       :     0.870352  s :     0.870352
      pz      :     0.002681  p :     0.010910
      px      :     0.001941
      py      :     0.006288

 10 H s       :     0.872724  s :     0.872724
      pz      :     0.006671  p :     0.011351
      px      :     0.002172
      py      :     0.002508

 11 C s       :     3.213778  s :     3.213778
      pz      :     0.993816  p :     2.920809
      px      :     0.956589
      py      :     0.970404
      dz2     :     0.002646  d :     0.035480
      dxz     :     0.009595
      dyz     :     0.010126
      dx2y2   :     0.003795
      dxy     :     0.009318

 12 H s       :     0.858313  s :     0.858313
      pz      :     0.004144  p :     0.011483
      px      :     0.004012
      py      :     0.003327

 13 C s       :     3.204847  s :     3.204847
      pz      :     0.885075  p :     2.824202
      px      :     0.972515
      py      :     0.966613
      dz2     :     0.008765  d :     0.054732
      dxz     :     0.012691
      dyz     :     0.015452
      dx2y2   :     0.005428
      dxy     :     0.012397

 14 H s       :     0.896609  s :     0.896609
      pz      :     0.004022  p :     0.011545
      px      :     0.003532
      py      :     0.003992

 15 H s       :     0.858697  s :     0.858697
      pz      :     0.004455  p :     0.011687
      px      :     0.003426
      py      :     0.003805

 16 C s       :     2.978985  s :     2.978985
      pz      :     0.779807  p :     2.361856
      px      :     0.822047
      py      :     0.760002
      dz2     :     0.027886  d :     0.127290
      dxz     :     0.023386
      dyz     :     0.042344
      dx2y2   :     0.017227
      dxy     :     0.016448

 17 H s       :     0.729715  s :     0.729715
      pz      :     0.009993  p :     0.023985
      px      :     0.006168
      py      :     0.007823

 18 N s       :     3.600700  s :     3.600700
      pz      :     1.148386  p :     4.000399
      px      :     1.418941
      py      :     1.433072
      dz2     :     0.004903  d :     0.026416
      dxz     :     0.003441
      dyz     :     0.009249
      dx2y2   :     0.005791
      dxy     :     0.003032

 19 H s       :     0.700518  s :     0.700518
      pz      :     0.005551  p :     0.025960
      px      :     0.013431
      py      :     0.006978

 20 O s       :     3.830187  s :     3.830187
      pz      :     1.421860  p :     4.604729
      px      :     1.694966
      py      :     1.487903
      dz2     :     0.004826  d :     0.024537
      dxz     :     0.003989
      dyz     :     0.003962
      dx2y2   :     0.006293
      dxy     :     0.005468

 21 H s       :     0.855900  s :     0.855900
      pz      :     0.002437  p :     0.011183
      px      :     0.004435
      py      :     0.004311

 22 H s       :     0.631810  s :     0.631810
      pz      :     0.021406  p :     0.041474
      px      :     0.012318
      py      :     0.007751

 23 O s       :     3.863889  s :     3.863889
      pz      :     1.362606  p :     4.536935
      px      :     1.473672
      py      :     1.700657
      dz2     :     0.009825  d :     0.028105
      dxz     :     0.008264
      dyz     :     0.006942
      dx2y2   :     0.001348
      dxy     :     0.001726



                     *******************************
                     * LOEWDIN POPULATION ANALYSIS *
                     *******************************

----------------------
LOEWDIN ATOMIC CHARGES
----------------------
   0 C :   -0.024462
   1 N :   -0.199623
   2 H :    0.121356
   3 C :   -0.038475
   4 N :   -0.202410
   5 H :    0.065020
   6 H :    0.070731
   7 C :   -0.074396
   8 H :    0.125279
   9 H :    0.068231
  10 H :    0.073741
  11 C :   -0.128831
  12 H :    0.077447
  13 C :   -0.062183
  14 H :    0.064891
  15 H :    0.084542
  16 C :    0.097342
  17 H :    0.127661
  18 N :   -0.254696
  19 H :    0.119768
  20 O :   -0.141102
  21 H :    0.087150
  22 H :    0.164217
  23 O :   -0.221197

-------------------------------
LOEWDIN REDUCED ORBITAL CHARGES
-------------------------------
  0 C s       :     2.886172  s :     2.886172
      pz      :     0.979039  p :     2.992172
      px      :     0.959023
      py      :     1.054110
      dz2     :     0.033525  d :     0.146118
      dxz     :     0.025399
      dyz     :     0.036536
      dx2y2   :     0.020650
      dxy     :     0.030008

  1 N s       :     3.201227  s :     3.201227
      pz      :     1.529205  p :     3.922919
      px      :     1.241499
      py      :     1.152215
      dz2     :     0.010138  d :     0.075477
      dxz     :     0.011624
      dyz     :     0.015635
      dx2y2   :     0.022352
      dxy     :     0.015729

  2 H s       :     0.799301  s :     0.799301
      pz      :     0.023539  p :     0.079343
      px      :     0.021648
      py      :     0.034155

  3 C s       :     2.892836  s :     2.892836
      pz      :     0.996292  p :     3.022820
      px      :     1.009747
      py      :     1.016782
      dz2     :     0.014744  d :     0.122818
      dxz     :     0.030408
      dyz     :     0.031108
      dx2y2   :     0.010615
      dxy     :     0.035943

  4 N s       :     3.195322  s :     3.195322
      pz      :     1.133483  p :     3.927960
      px      :     1.398549
      py      :     1.395929
      dz2     :     0.016312  d :     0.079128
      dxz     :     0.015524
      dyz     :     0.022794
      dx2y2   :     0.015026
      dxy     :     0.009472

  5 H s       :     0.897307  s :     0.897307
      pz      :     0.013836  p :     0.037673
      px      :     0.005585
      py      :     0.018252

  6 H s       :     0.890773  s :     0.890773
      pz      :     0.008577  p :     0.038496
      px      :     0.015506
      py      :     0.014413

  7 C s       :     2.904999  s :     2.904999
      pz      :     1.064827  p :     3.061179
      px      :     0.939342
      py      :     1.057009
      dz2     :     0.023433  d :     0.108218
      dxz     :     0.018861
      dyz     :     0.007640
      dx2y2   :     0.032450
      dxy     :     0.025836

  8 H s       :     0.794341  s :     0.794341
      pz      :     0.024945  p :     0.080380
      px      :     0.014864
      py      :     0.040571

  9 H s       :     0.892603  s :     0.892603
      pz      :     0.008170  p :     0.039166
      px      :     0.005754
      py      :     0.025242

 10 H s       :     0.886521  s :     0.886521
      pz      :     0.026126  p :     0.039738
      px      :     0.006378
      py      :     0.007234

 11 C s       :     2.906966  s :     2.906966
      pz      :     1.058908  p :     3.140926
      px      :     1.035124
      py      :     1.046895
      dz2     :     0.005757  d :     0.080939
      dxz     :     0.022567
      dyz     :     0.022357
      dx2y2   :     0.007831
      dxy     :     0.022427

 12 H s       :     0.881242  s :     0.881242
      pz      :     0.014953  p :     0.041312
      px      :     0.013583
      py      :     0.012777

 13 C s       :     2.890808  s :     2.890808
      pz      :     0.980315  p :     3.045897
      px      :     1.030678
      py      :     1.034904
      dz2     :     0.017566  d :     0.125478
      dxz     :     0.030929
      dyz     :     0.037865
      dx2y2   :     0.010712
      dxy     :     0.028407

 14 H s       :     0.895189  s :     0.895189
      pz      :     0.014241  p :     0.039920
      px      :     0.012003
      py      :     0.013676

 15 H s       :     0.874567  s :     0.874567
      pz      :     0.016426  p :     0.040892
      px      :     0.011251
      py      :     0.013214

 16 C s       :     2.854919  s :     2.854919
      pz      :     0.978465  p :     2.741274
      px      :     0.852443
      py      :     0.910367
      dz2     :     0.065953  d :     0.306465
      dxz     :     0.053248
      dyz     :     0.109219
      dx2y2   :     0.041330
      dxy     :     0.036715

 17 H s       :     0.792069  s :     0.792069
      pz      :     0.034943  p :     0.080270
      px      :     0.017990
      py      :     0.027338

 18 N s       :     3.192439  s :     3.192439
      pz      :     1.176036  p :     4.006595
      px      :     1.395442
      py      :     1.435117
      dz2     :     0.012751  d :     0.055662
      dxz     :     0.007715
      dyz     :     0.019406
      dx2y2   :     0.009033
      dxy     :     0.006756

 19 H s       :     0.785657  s :     0.785657
      pz      :     0.017013  p :     0.094575
      px      :     0.054156
      py      :     0.023407

 20 O s       :     3.475361  s :     3.475361
      pz      :     1.417090  p :     4.612448
      px      :     1.667564
      py      :     1.527793
      dz2     :     0.012662  d :     0.053293
      dxz     :     0.007996
      dyz     :     0.010353
      dx2y2   :     0.013136
      dxy     :     0.009145

 21 H s       :     0.873399  s :     0.873399
      pz      :     0.008064  p :     0.039451
      px      :     0.015961
      py      :     0.015426

 22 H s       :     0.703427  s :     0.703427
      pz      :     0.071752  p :     0.132356
      px      :     0.038685
      py      :     0.021919

 23 O s       :     3.548255  s :     3.548255
      pz      :     1.456819  p :     4.615191
      px      :     1.472041
      py      :     1.686331
      dz2     :     0.022505  d :     0.057752
      dxz     :     0.016171
      dyz     :     0.013824
      dx2y2   :     0.002455
      dxy     :     0.002796



                      *****************************
                      * MAYER POPULATION ANALYSIS *
                      *****************************

  NA   - Mulliken gross atomic population
  ZA   - Total nuclear charge
  QA   - Mulliken gross atomic charge
  VA   - Mayer's total valence
  BVA  - Mayer's bonded valence
  FA   - Mayer's free valence

  ATOM       NA         ZA         QA         VA         BVA        FA
  0 C      5.9961     6.0000     0.0039     3.8973     3.8973    -0.0000
  1 N      7.4795     7.0000    -0.4795     2.9520     2.9520    -0.0000
  2 H      0.7674     1.0000     0.2326     0.9221     0.9221    -0.0000
  3 C      6.0193     6.0000    -0.0193     3.8429     3.8429     0.0000
  4 N      7.4482     7.0000    -0.4482     2.9423     2.9423     0.0000
  5 H      0.8770     1.0000     0.1230     0.9431     0.9431     0.0000
  6 H      0.8858     1.0000     0.1142     0.9544     0.9544     0.0000
  7 C      6.0995     6.0000    -0.0995     3.8529     3.8529     0.0000
  8 H      0.7551     1.0000     0.2449     0.9184     0.9184    -0.0000
  9 H      0.8813     1.0000     0.1187     0.9498     0.9498     0.0000
 10 H      0.8841     1.0000     0.1159     0.9537     0.9537     0.0000
 11 C      6.1701     6.0000    -0.1701     3.8554     3.8554     0.0000
 12 H      0.8698     1.0000     0.1302     0.9621     0.9621    -0.0000
 13 C      6.0838     6.0000    -0.0838     3.8274     3.8274     0.0000
 14 H      0.9082     1.0000     0.0918     0.9622     0.9622    -0.0000
 15 H      0.8704     1.0000     0.1296     0.9567     0.9567     0.0000
 16 C      5.4681     6.0000     0.5319     3.9686     3.9686    -0.0000
 17 H      0.7537     1.0000     0.2463     0.9222     0.9222     0.0000
 18 N      7.6275     7.0000    -0.6275     2.9047     2.9047     0.0000
 19 H      0.7265     1.0000     0.2735     0.9532     0.9532     0.0000
 20 O      8.4595     8.0000    -0.4595     2.0675     2.0675    -0.0000
 21 H      0.8671     1.0000     0.1329     0.9463     0.9463     0.0000
 22 H      0.6733     1.0000     0.3267     0.9411     0.9411     0.0000
 23 O      8.4289     8.0000    -0.4289     2.0990     2.0990     0.0000

  Mayer bond orders larger than 0.100000
B(  0-C ,  1-N ) :   0.9751 B(  0-C ,  4-N ) :   1.0189 B(  0-C ,  5-H ) :   0.9378 
B(  0-C ,  6-H ) :   0.9533 B(  1-N ,  3-C ) :   0.9784 B(  1-N ,  8-H ) :   0.8955 
B(  1-N , 19-H ) :   0.1183 B(  2-H ,  4-N ) :   0.9007 B(  3-C ,  7-C ) :   0.9374 
B(  3-C , 11-C ) :   0.9893 B(  3-C , 12-H ) :   0.9314 B(  4-N ,  7-C ) :   1.0151 
B(  7-C ,  9-H ) :   0.9432 B(  7-C , 10-H ) :   0.9514 B( 11-C , 13-C ) :   0.9754 
B( 11-C , 14-H ) :   0.9399 B( 11-C , 15-H ) :   0.9303 B( 13-C , 16-C ) :   0.9039 
B( 13-C , 18-N ) :   0.9842 B( 13-C , 21-H ) :   0.9316 B( 16-C , 20-O ) :   1.1505 
B( 16-C , 23-O ) :   1.8913 B( 17-H , 18-N ) :   0.9064 B( 18-N , 19-H ) :   0.8276 
B( 18-N , 22-H ) :   0.1586 B( 20-O , 22-H ) :   0.7625 B( 20-O , 23-O ) :   0.1029 


-------
TIMINGS
-------

Total SCF time: 0 days 0 hours 0 min 9 sec 

Total time                  ....       9.985 sec
Sum of individual times     ....       9.359 sec  ( 93.7%)

SCF preparation             ....       0.031 sec  (  0.3%)
Fock matrix formation       ....       9.242 sec  ( 92.6%)
  Startup                   ....       0.001 sec  (  0.0% of F)
  Split-RI-J                ....       3.527 sec  ( 38.2% of F)
  XC integration            ....       6.254 sec  ( 67.7% of F)
    XC Preparation          ....       0.000 sec  (  0.0% of XC)
    Basis function eval.    ....       2.205 sec  ( 35.3% of XC)
    Density eval.           ....       1.465 sec  ( 23.4% of XC)
    XC-Functional eval.     ....       0.983 sec  ( 15.7% of XC)
    XC-Potential eval.      ....       1.453 sec  ( 23.2% of XC)
Diagonalization             ....       0.000 sec  (  0.0%)
Density matrix formation    ....       0.007 sec  (  0.1%)
Total Energy calculation    ....       0.001 sec  (  0.0%)
Population analysis         ....       0.003 sec  (  0.0%)
Orbital Transformation      ....       0.008 sec  (  0.1%)
Orbital Orthonormalization  ....       0.000 sec  (  0.0%)
DIIS solution               ....       0.037 sec  (  0.4%)
SOSCF solution              ....       0.029 sec  (  0.3%)
Finished LeanSCF after  10.0 sec

Maximum memory used throughout the entire LEANSCF-calculation: 25.5 MB



-------------------------------------------------------------------------------
                          DFT DISPERSION CORRECTION                            
-------------------------------------------------------------------------------
Active option DFTDOPT                   ...         2   
Final C6-coefficient scaling factor     ...     1.250
Final VDW-radii scaling factor          ...     1.100
Damping factor alpha                    ...    20.000
-------------------------   ----------------
Dispersion correction           -0.038914097
-------------------------   ----------------


-------------------------   --------------------
FINAL SINGLE POINT ENERGY      -550.811425671811
-------------------------   --------------------

------------------------------------------------------------------------------
                         ORCA SCF GRADIENT CALCULATION
------------------------------------------------------------------------------

Nuc. rep. gradient        (SHARK) ... done (  0.0 sec)
HCore & Overlap gradient  (SHARK) ... done (  0.2 sec)
Split-RIJ-J gradient      (SHARK) ... done (  0.9 sec)
XC gradient                       ... done (  3.6 sec)
Dispersion correction             ... done (  0.0 sec)

-------------------
DISPERSION GRADIENT
-------------------

   1   C   :   -0.001267905   -0.000761218    0.000198403
   2   N   :   -0.000685430    0.000183516   -0.000162020
   3   H   :   -0.001010326   -0.000036122    0.000640437
   4   C   :   -0.000267708    0.001410932    0.000701246
   5   N   :    0.000188042    0.000292797   -0.000322017
   6   H   :   -0.001173422   -0.000836960   -0.000232810
   7   H   :    0.000042503    0.000730061   -0.000470899
   8   C   :   -0.000178434   -0.000513531    0.000491505
   9   H   :   -0.000124068   -0.001217548   -0.000031447
  10   H   :   -0.000221559   -0.000243482    0.001136973
  11   H   :   -0.000147108    0.000740209   -0.000252398
  12   C   :    0.000878515   -0.000547651    0.000207779
  13   H   :   -0.000473403   -0.000033602    0.000390437
  14   C   :    0.000129908   -0.000436161   -0.000065436
  15   H   :    0.001124577    0.000921438    0.000301780
  16   H   :   -0.000192416    0.000786745   -0.000591188
  17   C   :    0.000521040    0.000181320   -0.000350169
  18   H   :   -0.000289096   -0.000269634   -0.000863071
  19   N   :    0.001168088   -0.000258429    0.000338431
  20   H   :   -0.000258496    0.000274512   -0.001206656
  21   O   :    0.000305525    0.000028282   -0.000155090
  22   H   :    0.000372330    0.000015642   -0.000105749
  23   H   :    0.000462328   -0.000019210    0.000077831
  24   O   :    0.001096514   -0.000391904    0.000324127

Difference to translation invariance:
           :    0.0000000000    0.0000000000    0.0000000000

Difference to rotation invariance:
           :    0.0000000000   -0.0000000000   -0.0000000000

Norm of the Dispersion gradient    ...    0.0050260803
RMS gradient                       ...    0.0005923292
MAX gradient                       ...    0.0014109317

------------------
CARTESIAN GRADIENT
------------------

   1   C   :    0.003243319   -0.000995572    0.001052741
   2   N   :   -0.003782871    0.012869666    0.009505956
   3   H   :   -0.000848769    0.003608514   -0.000908468
   4   C   :   -0.006811321   -0.006481135   -0.002768947
   5   N   :    0.015973670   -0.004155946   -0.005317380
   6   H   :    0.000717300   -0.002794196    0.004070692
   7   H   :    0.003720840    0.003518761    0.002151194
   8   C   :   -0.000210124   -0.001070706   -0.001652945
   9   H   :    0.001764824    0.001672880   -0.003141112
  10   H   :   -0.002450108   -0.006366800   -0.000009704
  11   H   :    0.000154426   -0.000536960   -0.006355704
  12   C   :   -0.002358712    0.005449513   -0.002145029
  13   H   :   -0.001240987    0.002598477   -0.001665704
  14   C   :   -0.000038150   -0.003609042   -0.001402528
  15   H   :    0.002984355   -0.004347578    0.003139067
  16   H   :   -0.002048470   -0.004525689   -0.003700214
  17   C   :    0.008313792   -0.004611437    0.022587108
  18   H   :   -0.000677390   -0.002218706    0.003894067
  19   N   :   -0.002923655    0.005880189    0.012670176
  20   H   :    0.005941521   -0.001217688   -0.001965366
  21   O   :   -0.010381626    0.024642885   -0.002702353
  22   H   :   -0.001876025   -0.001636303    0.001700099
  23   H   :    0.003252678   -0.006917818    0.005359786
  24   O   :   -0.010418515   -0.008755310   -0.032395430

Difference to translation invariance:
           :   -0.0000000000    0.0000000000   -0.0000000000

Difference to rotation invariance:
           :    0.0000033097   -0.0001543592    0.0002254980

Norm of the Cartesian gradient     ...    0.0625906326
RMS gradient                       ...    0.0073763768
MAX gradient                       ...    0.0323954303

-------
TIMINGS
-------

Total SCF gradient time     ....        4.744 sec

Densities                   ....       0.000 sec  (  0.0%)
One electron gradient       ....       0.190 sec  (  4.0%)
RI-J Coulomb gradient       ....       0.916 sec  ( 19.3%)
XC gradient                 ....       3.637 sec  ( 76.7%)

Maximum memory used throughout the entire SCFGRAD-calculation: 32.6 MB
------------------------------------------------------------------------------
                         ORCA GEOMETRY RELAXATION STEP
------------------------------------------------------------------------------

Reading the OPT-File                    .... done
Getting information on internals        .... done
Copying old internal coords+grads       .... done
Making the new internal coordinates     .... (2022 redundants) done
Validating the new internal coordinates .... (2022 redundants) done
Calculating the B-matrix                .... done
Calculating the G,G- and P matrices     .... done
Transforming gradient to internals      .... done
Projecting the internal gradient        .... done
Number of atoms                         ....  24
Number of internal coordinates          .... 122
Current Energy                          ....  -550.811425672 Eh
Current gradient norm                   ....     0.062590633 Eh/bohr
Maximum allowed component of the step   ....  0.300
Current trust radius                    ....  0.300
Evaluating the initial hessian          ....  (Almloef) done
Projecting the Hessian                  .... done
Forming the augmented Hessian           .... done
Diagonalizing the augmented Hessian     .... done
Last element of RFO vector              ....  0.962114086
Lowest eigenvalues of augmented Hessian:
 -0.008308783  0.010524086  0.011037498  0.011483705  0.014010515
Length of the computed step             ....  0.283383422
The final length of the internal step   ....  0.283383422
Converting the step to Cartesian space:
 Initial RMS(Int)=    0.0256563296
Transforming coordinates:
 Iter   0:  RMS(Cart)=    0.0765040662 RMS(Int)=    0.5671368703
 Iter   5:  RMS(Cart)=    0.0000001388 RMS(Int)=    0.0000000870
done
Storing new coordinates                 .... done

                                .--------------------.
          ----------------------|Geometry convergence|-------------------------
          Item                value                   Tolerance       Converged
          ---------------------------------------------------------------------
          RMS gradient        0.0053362098            0.0001000000      NO
          MAX gradient        0.0351346527            0.0003000000      NO
          RMS step            0.0256563296            0.0020000000      NO
          MAX step            0.1419476618            0.0040000000      NO
          -------------------------------------------------------------------------
          ........................................................
          Max(Bonds)      0.0751      Max(Angles)    2.19
          Max(Dihed)        3.89      Max(Improp)    0.00
          ---------------------------------------------------------------------

The optimization has not yet converged - more geometry cycles are needed


    ---------------------------------------------------------------------------
                         Redundant Internal Coordinates
                            (Angstroem and degrees)

        Definition                    Value    dE/dq     Step     New-Value
    ----------------------------------------------------------------------------
     1. B(N   1,C   0)                1.4632 -0.012052  0.0152    1.4784   
     2. B(C   3,N   1)                1.4716 -0.014121  0.0173    1.4889   
     3. B(N   4,C   0)                1.4504 -0.010280  0.0122    1.4627   
     4. B(N   4,H   2)                1.0165 -0.002996  0.0037    1.0202   
     5. B(H   5,C   0)                1.0965 -0.004700  0.0069    1.1034   
     6. B(H   6,C   0)                1.0891 -0.005544  0.0079    1.0971   
     7. B(C   7,C   3)                1.5635 -0.011220  0.0168    1.5804   
     8. B(C   7,N   4)                1.4558 -0.012365  0.0145    1.4703   
     9. B(H   8,N   1)                1.0162 -0.002800  0.0034    1.0196   
    10. B(H   9,C   7)                1.0934 -0.006229  0.0091    1.1025   
    11. B(H  10,C   7)                1.0879 -0.006267  0.0089    1.0968   
    12. B(C  11,C   3)                1.5314 -0.006833  0.0110    1.5424   
    13. B(H  12,C   3)                1.0927 -0.003186  0.0046    1.0973   
    14. B(C  13,C  11)                1.5366 -0.007129  0.0119    1.5485   
    15. B(H  14,C  11)                1.0923 -0.006045  0.0088    1.1010   
    16. B(H  15,C  11)                1.0902 -0.006054  0.0087    1.0989   
    17. B(C  16,C  13)                1.5425 -0.010110  0.0148    1.5574   
    18. B(N  18,H  17)                1.0128 -0.004367  0.0053    1.0181   
    19. B(N  18,C  13)                1.4598 -0.011738  0.0147    1.4745   
    20. B(H  19,N   1)                1.9870 -0.004289  0.0751    2.0621   
    21. B(H  19,N  18)                1.0226 -0.008774  0.0096    1.0322   
    22. B(O  20,C  16)                1.3254 -0.017156  0.0127    1.3381   
    23. B(H  21,C  13)                1.0975 -0.002912  0.0043    1.1018   
    24. B(H  22,N  18)                1.8121 -0.001624  0.0254    1.8375   
    25. B(H  22,O  20)                0.9906 -0.007349  0.0081    0.9987   
    26. B(O  23,C  16)                1.1996 -0.035135  0.0164    1.2160   
    27. A(N   4,C   0,H   6)          112.38  0.000418   -0.20    112.18   
[...]
      pz      :     1.419225  p :     4.595683
      px      :     1.681862
      py      :     1.494595
      dz2     :     0.004304  d :     0.024915
      dxz     :     0.004449
      dyz     :     0.004266
      dx2y2   :     0.006392
      dxy     :     0.005505

 21 H s       :     0.853550  s :     0.853550
      pz      :     0.002432  p :     0.011110
      px      :     0.004323
      py      :     0.004355

 22 H s       :     0.625704  s :     0.625704
      pz      :     0.020295  p :     0.041003
      px      :     0.012803
      py      :     0.007905

 23 O s       :     3.878205  s :     3.878205
      pz      :     1.352782  p :     4.533654
      px      :     1.492753
      py      :     1.688119
      dz2     :     0.009609  d :     0.027132
      dxz     :     0.008018
      dyz     :     0.006950
      dx2y2   :     0.001093
      dxy     :     0.001461



                     *******************************
                     * LOEWDIN POPULATION ANALYSIS *
                     *******************************

----------------------
LOEWDIN ATOMIC CHARGES
----------------------
   0 C :   -0.022341
   1 N :   -0.214281
   2 H :    0.122467
   3 C :   -0.033936
   4 N :   -0.208838
   5 H :    0.066800
   6 H :    0.071242
   7 C :   -0.074168
   8 H :    0.125890
   9 H :    0.069380
  10 H :    0.074685
  11 C :   -0.129878
  12 H :    0.077515
  13 C :   -0.058305
  14 H :    0.066121
  15 H :    0.087584
  16 C :    0.116024
  17 H :    0.131123
  18 N :   -0.255903
  19 H :    0.127586
  20 O :   -0.161995
  21 H :    0.088318
  22 H :    0.169812
  23 O :   -0.234901

-------------------------------
LOEWDIN REDUCED ORBITAL CHARGES
-------------------------------
  0 C s       :     2.899898  s :     2.899898
      pz      :     0.976331  p :     2.985317
      px      :     0.957337
      py      :     1.051650
      dz2     :     0.031491  d :     0.137126
      dxz     :     0.022921
      dyz     :     0.034836
      dx2y2   :     0.018623
      dxy     :     0.029256

  1 N s       :     3.231590  s :     3.231590
      pz      :     1.522535  p :     3.911553
      px      :     1.232892
      py      :     1.156126
      dz2     :     0.008881  d :     0.071139
      dxz     :     0.010960
      dyz     :     0.016346
      dx2y2   :     0.019558
      dxy     :     0.015394

  2 H s       :     0.799885  s :     0.799885
      pz      :     0.023003  p :     0.077648
      px      :     0.020089
      py      :     0.034557

  3 C s       :     2.905475  s :     2.905475
      pz      :     0.993400  p :     3.012960
      px      :     1.004476
      py      :     1.015085
      dz2     :     0.012958  d :     0.115500
      dxz     :     0.028872
      dyz     :     0.029592
      dx2y2   :     0.009915
      dxy     :     0.034163

  4 N s       :     3.224399  s :     3.224399
      pz      :     1.133194  p :     3.908521
      px      :     1.398062
      py      :     1.377265
      dz2     :     0.015468  d :     0.075918
      dxz     :     0.013934
      dyz     :     0.022364
      dx2y2   :     0.015694
      dxy     :     0.008458

  5 H s       :     0.895975  s :     0.895975
      pz      :     0.014062  p :     0.037225
      px      :     0.005456
      py      :     0.017707

  6 H s       :     0.890951  s :     0.890951
      pz      :     0.008145  p :     0.037807
      px      :     0.015557
      py      :     0.014105

  7 C s       :     2.918198  s :     2.918198
      pz      :     1.064310  p :     3.054056
      px      :     0.931960
      py      :     1.057786
      dz2     :     0.022791  d :     0.101914
      dxz     :     0.017535
      dyz     :     0.007135
      dx2y2   :     0.030346
      dxy     :     0.024107

  8 H s       :     0.795378  s :     0.795378
      pz      :     0.025462  p :     0.078732
      px      :     0.014482
      py      :     0.038787

  9 H s       :     0.892310  s :     0.892310
      pz      :     0.007827  p :     0.038310
      px      :     0.005476
      py      :     0.025007

 10 H s       :     0.886509  s :     0.886509
      pz      :     0.025843  p :     0.038806
      px      :     0.006032
      py      :     0.006932

 11 C s       :     2.912875  s :     2.912875
      pz      :     1.058256  p :     3.137829
      px      :     1.032416
      py      :     1.047157
      dz2     :     0.005542  d :     0.079174
      dxz     :     0.022217
      dyz     :     0.021716
      dx2y2   :     0.007796
      dxy     :     0.021902

 12 H s       :     0.881855  s :     0.881855
      pz      :     0.014560  p :     0.040630
      px      :     0.013014
      py      :     0.013056

 13 C s       :     2.901680  s :     2.901680
      pz      :     0.975418  p :     3.037316
      px      :     1.030290
      py      :     1.031608
      dz2     :     0.016840  d :     0.119310
      dxz     :     0.029538
      dyz     :     0.035945
      dx2y2   :     0.010072
      dxy     :     0.026914

 14 H s       :     0.895162  s :     0.895162
      pz      :     0.013734  p :     0.038717
      px      :     0.011332
      py      :     0.013651

 15 H s       :     0.872589  s :     0.872589
      pz      :     0.016125  p :     0.039828
      px      :     0.010845
      py      :     0.012858

 16 C s       :     2.869012  s :     2.869012
      pz      :     0.973610  p :     2.727691
      px      :     0.854358
      py      :     0.899722
      dz2     :     0.063298  d :     0.287274
      dxz     :     0.053856
      dyz     :     0.101843
      dx2y2   :     0.036416
      dxy     :     0.031861

 17 H s       :     0.789803  s :     0.789803
      pz      :     0.035310  p :     0.079075
      px      :     0.016670
      py      :     0.027095

 18 N s       :     3.205400  s :     3.205400
      pz      :     1.162829  p :     3.997777
      px      :     1.371659
      py      :     1.463288
      dz2     :     0.012860  d :     0.052726
      dxz     :     0.006229
      dyz     :     0.018794
      dx2y2   :     0.009746
      dxy     :     0.005096

 19 H s       :     0.782554  s :     0.782554
      pz      :     0.014887  p :     0.089860
      px      :     0.053551
      py      :     0.021422

 20 O s       :     3.501091  s :     3.501091
      pz      :     1.415413  p :     4.609346
      px      :     1.660687
      py      :     1.533246
      dz2     :     0.011063  d :     0.051559
      dxz     :     0.008716
      dyz     :     0.010369
      dx2y2   :     0.012141
      dxy     :     0.009268

 21 H s       :     0.872548  s :     0.872548
      pz      :     0.008012  p :     0.039134
      px      :     0.015413
      py      :     0.015708

 22 H s       :     0.700047  s :     0.700047
      pz      :     0.068009  p :     0.130140
      px      :     0.040357
      py      :     0.021774

 23 O s       :     3.564765  s :     3.564765
      pz      :     1.448476  p :     4.615156
      px      :     1.489656
      py      :     1.677024
      dz2     :     0.022479  d :     0.054980
      dxz     :     0.014948
      dyz     :     0.013306
      dx2y2   :     0.001948
      dxy     :     0.002298



                      *****************************
                      * MAYER POPULATION ANALYSIS *
                      *****************************

  NA   - Mulliken gross atomic population
  ZA   - Total nuclear charge
  QA   - Mulliken gross atomic charge
  VA   - Mayer's total valence
  BVA  - Mayer's bonded valence
  FA   - Mayer's free valence

  ATOM       NA         ZA         QA         VA         BVA        FA
  0 C      6.0032     6.0000    -0.0032     3.8859     3.8859     0.0000
  1 N      7.4796     7.0000    -0.4796     2.9386     2.9386     0.0000
  2 H      0.7676     1.0000     0.2324     0.9211     0.9211     0.0000
  3 C      6.0158     6.0000    -0.0158     3.8340     3.8340     0.0000
  4 N      7.4457     7.0000    -0.4457     2.9310     2.9310     0.0000
  5 H      0.8747     1.0000     0.1253     0.9443     0.9443    -0.0000
  6 H      0.8842     1.0000     0.1158     0.9540     0.9540    -0.0000
  7 C      6.1047     6.0000    -0.1047     3.8438     3.8438     0.0000
  8 H      0.7562     1.0000     0.2438     0.9183     0.9183    -0.0000
  9 H      0.8802     1.0000     0.1198     0.9508     0.9508     0.0000
 10 H      0.8827     1.0000     0.1173     0.9537     0.9537     0.0000
 11 C      6.1756     6.0000    -0.1756     3.8605     3.8605     0.0000
 12 H      0.8700     1.0000     0.1300     0.9614     0.9614     0.0000
 13 C      6.0822     6.0000    -0.0822     3.8185     3.8185     0.0000
 14 H      0.9071     1.0000     0.0929     0.9610     0.9610     0.0000
 15 H      0.8671     1.0000     0.1329     0.9565     0.9565    -0.0000
 16 C      5.4611     6.0000     0.5389     3.9330     3.9330    -0.0000
 17 H      0.7488     1.0000     0.2512     0.9183     0.9183     0.0000
 18 N      7.6320     7.0000    -0.6320     2.9093     2.9093     0.0000
 19 H      0.7207     1.0000     0.2793     0.9479     0.9479     0.0000
 20 O      8.4706     8.0000    -0.4706     2.0601     2.0601     0.0000
 21 H      0.8647     1.0000     0.1353     0.9451     0.9451     0.0000
 22 H      0.6667     1.0000     0.3333     0.9328     0.9328     0.0000
 23 O      8.4390     8.0000    -0.4390     2.0874     2.0874    -0.0000

  Mayer bond orders larger than 0.100000
B(  0-C ,  1-N ) :   0.9690 B(  0-C ,  4-N ) :   1.0104 B(  0-C ,  5-H ) :   0.9397 
B(  0-C ,  6-H ) :   0.9524 B(  1-N ,  3-C ) :   0.9696 B(  1-N ,  8-H ) :   0.8949 
B(  1-N , 19-H ) :   0.1094 B(  2-H ,  4-N ) :   0.8989 B(  3-C ,  7-C ) :   0.9317 
B(  3-C , 11-C ) :   0.9906 B(  3-C , 12-H ) :   0.9324 B(  4-N ,  7-C ) :   1.0067 
B(  7-C ,  9-H ) :   0.9435 B(  7-C , 10-H ) :   0.9507 B( 11-C , 13-C ) :   0.9772 
B( 11-C , 14-H ) :   0.9388 B( 11-C , 15-H ) :   0.9287 B( 13-C , 16-C ) :   0.8976 
B( 13-C , 18-N ) :   0.9723 B( 13-C , 21-H ) :   0.9314 B( 16-C , 20-O ) :   1.1437 
B( 16-C , 23-O ) :   1.8731 B( 17-H , 18-N ) :   0.9035 B( 18-N , 19-H ) :   0.8306 
B( 18-N , 22-H ) :   0.1673 B( 20-O , 22-H ) :   0.7494 B( 20-O , 23-O ) :   0.1087 


-------
TIMINGS
-------

Total SCF time: 0 days 0 hours 0 min 5 sec 

Total time                  ....       5.013 sec
Sum of individual times     ....       4.420 sec  ( 88.2%)

SCF preparation             ....       0.034 sec  (  0.7%)
Fock matrix formation       ....       4.327 sec  ( 86.3%)
  Startup                   ....       0.001 sec  (  0.0% of F)
  Split-RI-J                ....       1.737 sec  ( 40.2% of F)
  XC integration            ....       3.104 sec  ( 71.7% of F)
    XC Preparation          ....       0.000 sec  (  0.0% of XC)
    Basis function eval.    ....       1.158 sec  ( 37.3% of XC)
    Density eval.           ....       0.744 sec  ( 24.0% of XC)
    XC-Functional eval.     ....       0.525 sec  ( 16.9% of XC)
    XC-Potential eval.      ....       0.600 sec  ( 19.3% of XC)
Diagonalization             ....       0.000 sec  (  0.0%)
Density matrix formation    ....       0.003 sec  (  0.1%)
Total Energy calculation    ....       0.001 sec  (  0.0%)
Population analysis         ....       0.021 sec  (  0.4%)
Orbital Transformation      ....       0.006 sec  (  0.1%)
Orbital Orthonormalization  ....       0.000 sec  (  0.0%)
DIIS solution               ....       0.005 sec  (  0.1%)
SOSCF solution              ....       0.023 sec  (  0.5%)
Finished LeanSCF after   5.0 sec

Maximum memory used throughout the entire LEANSCF-calculation: 25.8 MB



-------------------------------------------------------------------------------
                          DFT DISPERSION CORRECTION                            
-------------------------------------------------------------------------------
Active option DFTDOPT                   ...         2   
Final C6-coefficient scaling factor     ...     1.250
Final VDW-radii scaling factor          ...     1.100
Damping factor alpha                    ...    20.000
-------------------------   ----------------
Dispersion correction           -0.037964450
-------------------------   ----------------


-------------------------   --------------------
FINAL SINGLE POINT ENERGY      -550.816654970113
-------------------------   --------------------

                                *** OPTIMIZATION RUN DONE ***


------------------------------------------------------------------------------
                              ORCA PROPERTY CALCULATIONS
------------------------------------------------------------------------------

GBWName                                 ... 5.gbw
Number of atoms                         ...     24
Number of basis functions               ...    219
Max core memory                         ...   4096 MB

Electric properties:
Dipole moment                           ... YES
Quadrupole moment                       ...  NO
Static polarizability (Dipole/Dipole)   ...  NO
Static polarizability (Dipole/Quad.)    ...  NO
Static polarizability (Quad./Quad.)     ...  NO
Static polarizability (Velocity)        ...  NO
Static hyperpolarizability              ...  NO

Atomic electric properties:
Dipole moment                           ...  NO
Quadrupole moment                       ...  NO
Static polarizability                   ...  NO

Choice of electric origin               ... Center of mass
Position of electric origin             ...   -12.462802     5.988765     0.078285

General magnetic properties:
Magnetizability                         ...  NO

EPR properties:
g-Tensor (aka g-matrix)                 ...  NO
Zero-Field splitting spin-orbit         ...  NO
Zero-field splitting spin-spin          ...  NO
Hyperfine couplings                     ...  NO (   0 nuclei)
Quadrupole couplings                    ...  NO (   0 nuclei)
Contact density                         ...  NO (   0 nuclei)

NMR properties:
Chemical shifts                         ...  NO (   0 nuclei)
Spin-rotation constants                 ...  NO (   0 nuclei)
Spin-spin couplings                     ...  NO (   0 nuclei,    0 pairs)

Choice of magnetic origin               ... GIAO
Position of magnetic origin             ...     0.000000     0.000000     0.000000

Properties with geometric perturbations:
SCF Hessian                             ...  NO
IR spectrum                             ...  NO
VCD spectrum                            ...  NO
X-ray spectroscopy properties:
SCF XES/XAS/RIXS spectra                ...  NO

SCF SOC stabilization energy            ...  NO
Diagonal Born-Oppenheimer correction    ...  NO

-------------
DIPOLE MOMENT
-------------

Method             : SCF
Type of density    : Electron Density
Multiplicity       :   1
Irrep              :   0
Energy             :  -550.7786905204653749 Eh
Basis              : AO
                                X                 Y                 Z
Electronic contribution:      7.492766009      -3.604421198       1.392873302
Nuclear contribution   :     -8.911696408       3.861857841      -2.291860136
                        -----------------------------------------
Total Dipole Moment    :     -1.418930399       0.257436643      -0.898986834
                        -----------------------------------------
Magnitude (a.u.)       :      1.699357063
Magnitude (Debye)      :      4.319422385



--------------------
Rotational spectrum 
--------------------
 
Rotational constants in cm-1:             0.070110             0.021713             0.019495 
Rotational constants in MHz :          2101.848685           650.937388           584.442877 

Dipole components along the rotational axes: 
x,y,z [a.u.] :    -1.260360    -1.080458     0.363206 
x,y,z [Debye]:    -3.203580    -2.746306     0.923196 

 

Dipole moment calculation done in   0.0 sec 

Maximum memory used throughout the entire PROP-calculation: 14.8 MB

--------------------------------
SUGGESTED CITATIONS FOR THIS RUN
--------------------------------

Below you find a list of papers that are relevant to this ORCA run
We neither can nor want to force you to cite these papers, but we appreciate if you do
You receive ORCA, which is the product of decades of hard work by many enthusiastic individuals, for free
The only thing we kindly ask in return is that you cite our papers,
We deeply appreciate it, if you show your appreciation for ORCA by not just citing the generic ORCA reference.

Please note that relegating all ORCA citations to the supporting information does *not* help us.
SI sections are not indexed - citations you put there will not count into any citation statistics
But we need these citations in order to attract the funding resources that allow us to do what we are doing

Therefore, if you are a happy ORCA user, please consider citing a few of the papers listed below in the main body of your paper

In addition to the list printed below, the program has created the file 5.bibtex that contains the list in bibtex format
You can import this file easily into all common literature databanks and citation aid programs


List of essential papers. We consider these as the minimum necessary citations

  1. Neese, F.
     Software update: the ORCA program system, version 6.0
     WIRES Comput. Molec. Sci. 2025 15(1), e70019
     doi.org/10.1002/wcms.7019

List of papers to cite with high priority. The work reported in these papers was absolutely
necessary for this run to complete.
Our perspective: the developers of density functionals and basis sets usually get cited in chemistry papers
Good! But without the algorithms to do something with them, the functionals or basis sets would not do anything.
Hence, in our opinion, the algorithm design and method developments papers are equally worthy of getting cited

  1. Neese, F.
     An improvement of the resolution of the identity approximation for the formation of the Coulomb matrix
     J. Comp. Chem. 2003 24(14), 1740-1747
     doi.org/10.1002/jcc.10318
  2. Grimme, S.
     Semiempirical GGA-type density functional constructed with a long-range dispersion correction
     J.Comput.Chem. 2006 27(15), 1787-1799
     doi.org/10.1002/jcc.20495
  3. Neese, F.
     The SHARK Integral Generation and Digestion System
     J. Comp. Chem. 2022 44(3), 381
     doi.org/10.1002/jcc.26942

List of suggested additional citations. These are papers that are important in the 'surrounding' of 
of this run, or papers that preceded the highly important papers. If you like your results we are grateful for a citation.

  1. Neese, F.
     The ORCA program system
     WIRES Comput. Molec. Sci. 2012 2(1), 73-78
     doi.org/10.1002/wcms.81
  2. Neese, F.
     Software update: the ORCA program system, version 4.0
     WIRES Comput. Molec. Sci. 2018 8(1), 1-6
     doi.org/10.1002/wcms.1327
  3. Neese, F.; Wennmohs, F.; Becker, U.; Riplinger, C.
     The ORCA quantum chemistry program package
     J. Chem. Phys. 2020 152(22), 224108
     doi.org/10.1063/5.0004608
  4. Neese, F.
     Software update: The ORCA program system—Version 5.0
     WIRES Comput. Molec. Sci. 2022 12(1), e1606
     doi.org/10.1002/wcms.1606

List of optional additional citations

  1. Neese, F.
     Approximate second-order SCF convergence for spin unrestricted wavefunctions
     Chem. Phys. Lett. 2000 325(1-3), 93-98
     doi.org/10.1016/s0009-2614(00)00662-x

Timings for individual modules:

Sum of individual times          ...      138.207 sec (=   2.303 min)
Startup calculation              ...        6.785 sec (=   0.113 min)   4.9 %
SCF iterations                   ...       79.164 sec (=   1.319 min)  57.3 %
Property calculations            ...        0.045 sec (=   0.001 min)   0.0 %
SCF Gradient evaluation          ...       52.186 sec (=   0.870 min)  37.8 %
Geometry relaxation              ...        0.026 sec (=   0.000 min)   0.0 %
                             ****ORCA TERMINATED NORMALLY****
TOTAL RUN TIME: 0 days 0 hours 2 minutes 18 seconds 515 msec
