
                                 *****************
                                 * O   R   C   A *
                                 *****************

                                            #,                                       
                                            ###                                      
                                            ####                                     
                                            #####                                    
                                            ######                                   
                                           ########,                                 
                                     ,,################,,,,,                         
                               ,,#################################,,                 
                          ,,##########################################,,             
                       ,#########################################, ''#####,          
                    ,#############################################,,   '####,        
                  ,##################################################,,,,####,       
                ,###########''''           ''''###############################       
              ,#####''   ,,,,##########,,,,          '''####'''          '####       
            ,##' ,,,,###########################,,,                        '##       
           ' ,,###''''                  '''############,,,                           
         ,,##''                                '''############,,,,        ,,,,,,###''
      ,#''                                            '''#######################'''  
     '                                                          ''''####''''         
             ,#######,   #######,   ,#######,      ##                                
            ,#'     '#,  ##    ##  ,#'     '#,    #''#        ,####,    ,#,          
            ##       ##  ##   ,#'  ##            #'  '#       #'       ,# #          
            ##       ##  #######   ##           ,######,      #####,      #          
            '#,     ,#'  ##    ##  '#,     ,#' ,#      #,     #,   #      #          
             '#######'   ##     ##  '#######'  #'      '#     '####' #    #          



                #########################################################
                #                        -***-                          #
                #          Department of theory and spectroscopy        #
                #                                                       #
                #                      Frank Neese                      #
                #                                                       #
                #     Directorship, Architecture, Infrastructure        #
                #                    SHARK, DRIVERS                     #
                #        Core code/Algorithms in most modules           #
                #                                                       #
                #        Max Planck Institute fuer Kohlenforschung      #
                #                Kaiser Wilhelm Platz 1                 #
                #                 D-45470 Muelheim/Ruhr                 #
                #                      Germany                          #
                #                                                       #
                #                  All rights reserved                  #
                #                        -***-                          #
                #########################################################


                         Program Version 6.1.0  -  RELEASE   -
                                (GIT: $679e74b$)
                          ($2025-06-10 18:02:51 +0200$)


 With contributions from (in alphabetic order):
[Max-Planck-Institut fuer Kohlenforschung]                               
  Daniel Aravena         : Magnetic Suceptibility                        
  Michael Atanasov       : Ab Initio Ligand Field Theory (pilot matlab implementation)
  Alexander A. Auer      : GIAO ZORA, VPT2 properties, NMR spectrum      
  Ute Becker             : All parallelization in ORCA, NUMFREQ, NUMCALC 
  Giovanni Bistoni       : ED, misc. LED, open-shell LED, HFLD           
  Dmytro Bykov           : pre 5.0 version of the SCF Hessian            
  Marcos Casanova-Páez   : Triplet and SCS-CIS(D). UHF-(DLPNO)-IP/EA/STEOM-CCSD. UHF-CVS-IP/STEOM-CCSD   
  Vijay G. Chilkuri      : MRCI spin determinant printing, contributions to CSF-ICE 
  Pauline Colinet        : FMM embedding                                 
  Dipayan Datta          : RHF DLPNO-CCSD density                        
  Achintya Kumar Dutta   : EOM-CC, STEOM-CC                              
  Nicolas Foglia         : Exact transition moments, OPA infrastructure, MCD improvements    
  Dmitry Ganyushin       : Spin-Orbit,Spin-Spin,Magnetic field MRCI      
  Miquel Garcia-Rates    : C-PCM and meta-GGA Hessian, CCSD/C-PCM, Gaussian charge scheme 
  Tiago L. C. Gouveia    : GS-ROHF, GS-ROCIS                             
  Yang Guo               : DLPNO-NEVPT2, F12-NEVPT2, CIM, IAO-localization        
  Andreas Hansen         : Spin unrestricted coupled pair/coupled cluster methods 
  Ingolf Harden          : AUTO-CI MPn and infrastructure                
  Benjamin Helmich-Paris : MC-RPA, TRAH-(SCF,CASSCF), AVAS, COSX integrals, SCF dyn. polar., MC-PDFT, srDFT 
  Lee Huntington         : MR-EOM, pCC                                   
  Robert Izsak           : Overlap fitted RIJCOSX, COSX-SCS-MP3, EOM     
  Riya Kayal             : Wick's Theorem for AUTO-CI, AUTO-CI UHF-CCSDT 
  Emily Kempfer          : AUTO-CI RHF CISDT and CCSDT, approximate NEVPT4
  Christian Kollmar      : KDIIS, OOCD, Brueckner-CCSD(T), CCSD density, CASPT2, CASPT2-K, improved NEVPT2 
  Axel Koslowski         : Symmetry handling                             
  Simone Kossmann        : meta-GGA functionals, TD-DFT gradient, OOMP2, (MP2 Hessian; deprecated post 5.0) 
  Lucas Lang             : DCDCAS, Hyperfine gauge corrections, ICE-SOC+SSC
  Marvin Lechner         : AUTO-CI (C++ implementation), FIC-MRCC        
  Spencer Leger          : CASSCF response                               
  Dagmar Lenk            : GEPOL surface, SMD, ORCA-2-JSON               
  Dimitrios Liakos       : Extrapolation schemes; Compound Job, Property file
  Dimitrios Manganas     : Further ROCIS development; embedding schemes. LFT, Crystal Embedding 
  Dimitrios Pantazis     : SARC Basis sets                               
  Anastasios Papadopoulos: AUTO-CI, single reference methods and gradients 
  Taras Petrenko         : pre 6.0 DFT Hessian and TD-DFT gradient,  ECA, NRVS 
  Petra Pikulova         : Analytic Raman intensities                    
  Peter Pinski           : DLPNO-MP2, DLPNO-MP2 Gradient                 
  Shashank Vittal Rao    : ES-AILFT, MagRelax                            
  Christoph Reimann      : Effective Core Potentials                     
  Marius Retegan         : Local ZFS, SOC                                
  Christoph Riplinger    : Optimizer, TS searches, QM/MM, DLPNO-CCSD(T), (RO)-DLPNO pert. Triples 
  Michael Roemelt        : Original ROCIS implementation, recursive CI coupling coefficients
  Masaaki Saitow         : Open-shell DLPNO-CCSD energy and density      
  Barbara Sandhoefer     : DKH picture change effects                    
  Yorick L. A. Schmerwitz: GMF and freeze-and-release deltaSCF, NEB S-IDPP initial path                    
  Kantharuban Sivalingam : CASSCF convergence/infrastructure, NEVPT2, NEVPT3, NEVPT4(SD), FIC-MRCI and CEPA variants
  Bernardo de Souza      : ESD, SOC TD-DFT                               
  Georgi L. Stoychev     : AutoAux, RI-MP2 NMR, DLPNO-MP2 response, X2C  
  Van Anh Tran           : RI-MP2 g-tensors                              
  Willem Van den Heuvel  : Paramagnetic NMR                              
  Zikuan Wang            : NOTCH, Electric field optimization            
  Frank Wennmohs         : Technical directorship and infrastructure     
  Hang Xu                : AUTO-CI-Response properties                   
                                                                         
[FACCTs GmbH]                                                            
  Markus Bursch, Nicolas Foglia, Miquel Garcia-Rates, Ingolf Harden, Hagen Neugebauer, Anastasios Papadopoulos, 
  Christoph Riplinger, Bernardo de Souza, Georgi L. Stoychev                                                    
                                                                 
  APM, various basis sets, CI-OPT, improved COSX, DLPNO-Multilevel,           
  DOCKER, DRACO, updates on ESD, Fragmentator, GOAT, IRC, LR-CPCM, L-BFGS, MBIS, meta-GGA TD-DFT gradient, ML-optimized integration grids, 
  MM, NACMEs, nearIR, NEB, NEB-TS, NL-DFT gradient (VV10), 2- and 3-layer-ONIOM, interface openCOSMO-RS, QMMM,   
  Crystal-QMMM, RESP, rigid body optimization, SF, symmetry and pop. for TD-DFT, various functionals, SOLVATOR                                   
                                                                         
[Other institutions]                                                     
  V. Asgeirsson          : NEB                                           
  Christoph Bannwarth    : sTDA-DFT, sTD-DFT, PBEh-3c, B97-3c, D3        
  Giovanni Bistoni       : ETS/NOCV, ADLD/ADEX, COVALED                  
  Martin Brehm           : Molecular dynamics                            
  Ronald Cardenas        : ETS/NOCV                                      
  Martina Colucci        : COVALED                                       
  Sebastian Ehlert       : rSCAN, r2SCAN, r2SCAN-3c, D4, dhf basis sets  
  Marvin Friede          : D4 for Fr, Ra, Ac-Lr                          
  Lars Goerigk           : TD-DFT with DH, B97 family of functionals     
  Stefan Grimme          : VdW corrections, initial TS optimization, DFT functionals, gCP, sTDA/sTD-DF 
  Waldemar Hujo          : DFT-NL                                        
  H. Jonsson             : NEB                                           
  Holger Kruse           : gCP                                           
  Marcel Mueller         : wB97X-3c, vDZP basis set                      
  Hagen Neugebauer       : wr2SCAN, Native XTB                           
  Gianluca Regni         : ADLD/ADEX                                     
  Tobias Risthaus        : pre 6.0 range-separated hybrid DFT and stability analysis
  Lukas Wittmann         : regularized MP2, r2SCAN double-hybrids, wr2SCAN        
                                                                         
We gratefully acknowledge several colleagues who have allowed us to      
interface, adapt or use parts of their codes:                            
  Ed Valeev, F. Pavosevic, A. Kumar             : LibInt (2-el integral package), F12 methods 
  Garnet Chan, S. Sharma, J. Yang, R. Olivares  : DMRG                   
  Ulf Ekstrom                                   : XCFun DFT Library      
  Mihaly Kallay                                 : mrcc  (arbitrary order and MRCC methods)
  Frank Weinhold                                : gennbo (NPA and NBO analysis)           
  Simon Mueller                                 : openCOSMO-RS                            
  Christopher J. Cramer and Donald G. Truhlar   : smd solvation model                     
  S Lehtola, MJT Oliveira, MAL Marques          : LibXC Library                           
  Liviu Ungur et al                             : ANISO software                          


 Your calculation uses the libint2 library for the computation of 2-el integrals
 For citations please refer to: http://libint.valeyev.net

 Your ORCA version has been built with support for libXC version: 7.0.0
 For citations please refer to: https://libxc.gitlab.io

 This ORCA versions uses:
   CBLAS   interface :  Fast vector & matrix operations
   LAPACKE interface :  Fast linear algebra routines
   SCALAPACK package :  Parallel linear algebra routines
   Shared memory     :  Shared parallel matrices
   BLAS/LAPACK       :  OpenBLAS 0.3.29  USE64BITINT DYNAMIC_ARCH NO_AFFINITY Haswell SINGLE_THREADED
        Core in use  :  Haswell
   Copyright (c) 2011-2014, The OpenBLAS Project


  ***********************************
  * Starting time: Thu Aug 14 12:10:55 2025
  * Host name:     CHEMLAB02
  * Process ID:    1769449
  * Working dir.:  /home/vivek/mm-project/vivek/B97-D/k/2
  ***********************************



***************************************
The coordinates will be read from file: /home/vivek/mm-project/vivek/xtb-goat/k/K_CONF/2.xyz
***************************************


Your calculation utilizes empirical dispersion correction


Warning: RI is on but no J-basis has been assigned. Assigning Def2/J (nothing to worry about!)
================================================================================

----- Orbital basis set information -----
Your calculation utilizes the basis: 6-31G**
   H-He, Li-Ne : W. J. Hehre, R. Ditchfield and J.A. Pople, J. Chem. Phys. 56, 2257 (1972).
                 Note: He and Ne are unpublished basis sets taken from the Gaussian program.
                 Note: Li and B from J. D. Dill and J. A. Pople, J. Chem. Phys. 62, 2921 (1975).
   Na - Ar     : M. M. Francl, W. J. Pietro, W. J. Hehre, J. S. Binkley, M. S. Gordon, 
                 D. J. DeFrees and J. A. Pople, J. Chem. Phys. 77, 3654 (1982).
   K - Zn      : V. A. Rassolov, J. A. Pople, M. A. Ratner, and T. L. Windus, J. Chem. Phys. 109, 1223 (1998).

----- AuxJ basis set information -----
Your calculation utilizes the auxiliary basis: def2/J
   H-Rn: F. Weigend, Phys. Chem. Chem. Phys. 8, 1057 (2006).
   Fr-Lr: K. Eichkorn, F. Weigend, O. Treutler, R. Ahlrichs; Theor. Chem. Acc. 97, 119 (1997).

================================================================================
                                        WARNINGS
                       Please study these warnings very carefully!
================================================================================


INFO   : The exchange functional is Grimme's B97(-D)
         As described in S. Grimme, J. Comput. Chem. 27, 1787 (2006).
         Note that this functional defaults to a pure GGA. 

INFO   : The correlation functional is Grimme's B97(-D)
         As described in S. Grimme, J. Comput. Chem. 27, 1787 (2006).

================================================================================
                                       INPUT FILE
================================================================================
NAME = 2.inp
|  1> ! B97-D 6-31G** 
|  2> 
|  3> * xyzfile 0 1 /home/vivek/mm-project/vivek/xtb-goat/k/K_CONF/2.xyz
|  4> 
|  5>                          ****END OF INPUT****
================================================================================

                       ****************************
                       * Single Point Calculation *
                       ****************************

---------------------------------
CARTESIAN COORDINATES (ANGSTROEM)
---------------------------------
  C    -14.095102    6.331892    0.888261
  C    -12.570352    6.502627    0.952812
  H    -14.563467    8.028325   -0.138497
  H    -14.639555    8.202098    1.487756
  N    -14.840200    7.566662    0.722000
  C    -11.861011    5.160685    1.103395
  H    -12.234840    6.998171    0.038997
  H    -12.317955    7.148807    1.799206
  C    -10.349334    5.293930    1.282784
  H    -12.267527    4.644331    1.975776
  H    -12.053344    4.547526    0.222760
  C     -9.641760    5.724318   -0.014321
  H    -10.125589    6.023308    2.063088
  H     -9.940403    4.327548    1.587667
  C     -8.155005    5.870705    0.282608
  H     -6.932802    6.983862    1.236030
  N     -9.905718    4.767543   -1.069040
  O     -7.884645    6.931696    1.051773
  H    -14.351639    5.677482    0.050906
  H    -14.449411    5.857012    1.807672
  H     -9.504265    3.869031   -0.816787
  O     -7.303076    5.121383   -0.117187
  H    -10.019027    6.704180   -0.324392
  H     -9.456229    5.060256   -1.930199

----------------------------
CARTESIAN COORDINATES (A.U.)
----------------------------
  NO LB      ZA    FRAG     MASS         X           Y           Z
   0 C     6.0000    0    12.011  -26.635882   11.965542    1.678569
   1 C     6.0000    0    12.011  -23.754523   12.288184    1.800554
   2 H     1.0000    0     1.008  -27.520963   15.171335   -0.261722
   3 H     1.0000    0     1.008  -27.664749   15.499719    2.811451
   4 N     7.0000    0    14.007  -28.043914   14.298918    1.364382
   5 C     6.0000    0    12.011  -22.414063    9.752282    2.085114
   6 H     1.0000    0     1.008  -23.120496   13.224627    0.073694
   7 H     1.0000    0     1.008  -23.277561   13.509287    3.400007
   8 C     6.0000    0    12.011  -19.557406   10.004079    2.424111
   9 H     1.0000    0     1.008  -23.182266    8.776513    3.733676
  10 H     1.0000    0     1.008  -22.777519    8.593578    0.420956
  11 C     6.0000    0    12.011  -18.220286   10.817394   -0.027062
  12 H     1.0000    0     1.008  -19.134590   11.382403    3.898670
  13 H     1.0000    0     1.008  -18.784639    8.177880    3.000256
  14 C     6.0000    0    12.011  -15.410726   11.094024    0.534051
  15 H     1.0000    0     1.008  -13.101097   13.197587    2.335758
  16 N     7.0000    0    14.007  -18.719094    9.009351   -2.020193
  17 O     8.0000    0    15.999  -14.899819   13.099008    1.987564
  18 H     1.0000    0     1.008  -27.120668   10.728886    0.096199
  19 H     1.0000    0     1.008  -27.305429   11.068149    3.416005
  20 H     1.0000    0     1.008  -17.960459    7.311410   -1.543504
  21 O     8.0000    0    15.999  -13.800813    9.678011   -0.221451
  22 H     1.0000    0     1.008  -18.933218   12.669064   -0.613012
  23 H     1.0000    0     1.008  -17.869682    9.562498   -3.647548

--------------------------------
INTERNAL COORDINATES (ANGSTROEM)
--------------------------------
 C      0   0   0     0.000000000000     0.00000000     0.00000000
 C      1   0   0     1.535636391910     0.00000000     0.00000000
 H      1   2   0     2.037518540282    99.02431307     0.00000000
 H      3   1   2     1.637280211660    66.32918485   266.47819700
 N      3   1   2     1.014972660968    41.98973450   232.49816818
 C      2   1   3     1.525335174131   111.59712200   205.12433866
 H      2   1   3     1.092332693476   108.67788956   326.35830155
 H      2   1   3     1.094365410588   109.09634923    83.83817511
 C      6   2   1     1.528104780208   113.26077377   184.56699485
 H      6   2   1     1.092211914588   108.76492404   305.15807373
 H      6   2   1     1.090171250090   109.45274710    63.27676158
 C      9   6   2     1.538952474689   112.35066855   288.21547196
 H      9   6   2     1.091296269690   110.18425559    49.64722158
 H      9   6   2     1.092736923027   109.01668157   168.43177940
 C     12   9   6     1.523166807067   108.14098139   178.19691753
 H     15  12   9     1.908379767096   141.13090492   290.19969531
 N     12   9   6     1.448283420948   110.19763098   301.58962022
 O     16  15  12     0.970915213511    41.06098055   358.26613942
 H      1   2   3     1.093263743126   109.37423678    96.81176616
 H      1   2   3     1.093783816580   109.54639053   214.92495912
 H     17  12   9     1.015932750299   109.35553167   296.08644141
 O     15  12   9     1.202955486900   124.51448520   109.01378193
 H     12   9   6     1.094807773826   109.30366149    61.10286665
 H     17  12   9     1.014552619502   110.29174801   178.79215662

---------------------------
INTERNAL COORDINATES (A.U.)
---------------------------
 C      0   0   0     0.000000000000     0.00000000     0.00000000
 C      1   0   0     2.901932221993     0.00000000     0.00000000
 H      1   2   0     3.850352033920    99.02431307     0.00000000
 H      3   1   2     3.094011204526    66.32918485   266.47819700
 N      3   1   2     1.918020362646    41.98973450   232.49816818
 C      2   1   3     2.882465741544   111.59712200   205.12433866
 H      2   1   3     2.064209637798   108.67788956   326.35830155
 H      2   1   3     2.068050916447   109.09634923    83.83817511
 C      6   2   1     2.887699538529   113.26077377   184.56699485
 H      6   2   1     2.063981398777   108.76492404   305.15807373
 H      6   2   1     2.060125101745   109.45274710    63.27676158
 C      9   6   2     2.908198710282   112.35066855   288.21547196
 H      9   6   2     2.062251080685   110.18425559    49.64722158
 H      9   6   2     2.064973520944   109.01668157   168.43177940
 C     12   9   6     2.878368121637   108.14098139   178.19691753
 H     15  12   9     3.606315119328   141.13090492   290.19969531
 N     12   9   6     2.736859029889   110.19763098   301.58962022
 O     16  15  12     1.834763852794    41.06098055   358.26613942
 H      1   2   3     2.065969066653   109.37423678    96.81176616
 H      1   2   3     2.066951863052   109.54639053   214.92495912
 H     17  12   9     1.919834668546   109.35553167   296.08644141
 O     15  12   9     2.273256421539   124.51448520   109.01378193
 H     12   9   6     2.068886861819   109.30366149    61.10286665
 H     17  12   9     1.917226599311   110.29174801   178.79215662

---------------------
BASIS SET INFORMATION
---------------------
There are 4 groups of distinct atoms

 Group   1 Type C   : 10s4p1d contracted to 3s2p1d pattern {631/31/1}
 Group   2 Type H   : 4s1p contracted to 2s1p pattern {31/1}
 Group   3 Type N   : 10s4p1d contracted to 3s2p1d pattern {631/31/1}
 Group   4 Type O   : 10s4p1d contracted to 3s2p1d pattern {631/31/1}

Atom   0C    basis set group =>   1
Atom   1C    basis set group =>   1
Atom   2H    basis set group =>   2
Atom   3H    basis set group =>   2
Atom   4N    basis set group =>   3
Atom   5C    basis set group =>   1
Atom   6H    basis set group =>   2
Atom   7H    basis set group =>   2
Atom   8C    basis set group =>   1
Atom   9H    basis set group =>   2
Atom  10H    basis set group =>   2
Atom  11C    basis set group =>   1
Atom  12H    basis set group =>   2
Atom  13H    basis set group =>   2
Atom  14C    basis set group =>   1
Atom  15H    basis set group =>   2
Atom  16N    basis set group =>   3
Atom  17O    basis set group =>   4
Atom  18H    basis set group =>   2
Atom  19H    basis set group =>   2
Atom  20H    basis set group =>   2
Atom  21O    basis set group =>   4
Atom  22H    basis set group =>   2
Atom  23H    basis set group =>   2
---------------------------------
AUXILIARY/J BASIS SET INFORMATION
---------------------------------
There are 4 groups of distinct atoms

 Group   1 Type C   : 12s5p4d2f1g contracted to 6s4p3d1f1g pattern {711111/2111/211/2/1}
 Group   2 Type H   : 5s2p1d contracted to 3s1p1d pattern {311/2/1}
 Group   3 Type N   : 12s5p4d2f1g contracted to 6s4p3d1f1g pattern {711111/2111/211/2/1}
 Group   4 Type O   : 12s5p4d2f1g contracted to 6s4p3d1f1g pattern {711111/2111/211/2/1}

Atom   0C    basis set group =>   1
Atom   1C    basis set group =>   1
Atom   2H    basis set group =>   2
Atom   3H    basis set group =>   2
Atom   4N    basis set group =>   3
Atom   5C    basis set group =>   1
Atom   6H    basis set group =>   2
Atom   7H    basis set group =>   2
Atom   8C    basis set group =>   1
Atom   9H    basis set group =>   2
Atom  10H    basis set group =>   2
Atom  11C    basis set group =>   1
Atom  12H    basis set group =>   2
Atom  13H    basis set group =>   2
Atom  14C    basis set group =>   1
Atom  15H    basis set group =>   2
Atom  16N    basis set group =>   3
Atom  17O    basis set group =>   4
Atom  18H    basis set group =>   2
Atom  19H    basis set group =>   2
Atom  20H    basis set group =>   2
Atom  21O    basis set group =>   4
Atom  22H    basis set group =>   2
Atom  23H    basis set group =>   2
------------------------------------------------------------------------------
                             ORCA STARTUP CALCULATIONS
                           -- RI-GTO INTEGRALS CHOSEN --
------------------------------------------------------------------------------
------------------------------------------------------------------------------
                   ___                                                        
                  /   \      - P O W E R E D   B Y -                         
                 /     \                                                     
                 |  |  |   _    _      __       _____    __    __             
                 |  |  |  | |  | |    /  \     |  _  \  |  |  /  |          
                  \  \/   | |  | |   /    \    | | | |  |  | /  /          
                 / \  \   | |__| |  /  /\  \   | |_| |  |  |/  /          
                |  |  |   |  __  | /  /__\  \  |    /   |      \           
                |  |  |   | |  | | |   __   |  |    \   |  |\   \          
                \     /   | |  | | |  |  |  |  | |\  \  |  | \   \       
                 \___/    |_|  |_| |__|  |__|  |_| \__\ |__|  \__/        
                                                                              
                      - O R C A' S   B I G   F R I E N D -                    
                                      &                                       
                       - I N T E G R A L  F E E D E R -                       
                                                                              
 v1 FN, 2020, v2 2021, v3 2022-2024                                           
------------------------------------------------------------------------------


----------------------
SHARK INTEGRAL PACKAGE
----------------------

Number of atoms                             ...     24
Number of basis functions                   ...    210
Number of shells                            ...    102
Maximum angular momentum                    ...      2
Integral batch strategy                     ... SHARK/LIBINT Hybrid
RI-J (if used) integral strategy            ... SPLIT-RIJ (Revised 2003 algorithm where possible)
Printlevel                                  ...      1
Contraction scheme used                     ... SEGMENTED contraction
Prescreening option                         ... SCHWARTZ
   Thresh                                   ... 1.000e-10
   Tcut                                     ... 1.000e-11
   Tpresel                                  ... 1.000e-11 
Coulomb Range Separation                    ... NOT USED
Exchange Range Separation                   ... NOT USED
Multipole approximations                    ... NOT USED
Finite Nucleus Model                        ... NOT USED
CABS basis                                  ... NOT available
Auxiliary Coulomb fitting basis             ... AVAILABLE
   # of basis functions in Aux-J            ...    644
   # of shells in Aux-J                     ...    220
   Maximum angular momentum in Aux-J        ...      4
Auxiliary J/K fitting basis                 ... NOT available
Auxiliary Correlation fitting basis         ... NOT available
Auxiliary 'external' fitting basis          ... NOT available

Checking pre-screening integrals            ... done (  0.0 sec) Dimension = 102
   => SHARK Basis and OBASIS are compatible. Storing Pre-screening
Shell pair information
Shell pair cut-off parameter TPreSel        ...   1.0e-11
Total number of shell pairs                 ...      5253
Shell pairs after pre-screening             ...      4302
Total number of primitive shell pairs       ...     24562
Primitive shell pairs kept                  ...     13039
          la=0 lb=0:   1428 shell pairs
          la=1 lb=0:   1616 shell pairs
          la=1 lb=1:    483 shell pairs
          la=2 lb=0:    466 shell pairs
          la=2 lb=1:    265 shell pairs
          la=2 lb=2:     44 shell pairs

Checking whether 4 symmetric matrices of dimension 210 fit in memory
:Max Core in MB      =   4096.00
 MB in use           =      9.11
 MB left             =   4086.89
 MB needed           =      0.68
 Data fit in memory  = YES
Calculating RI/J V-Matrix + Cholesky decomp.... done (  0.0 sec)
Calculating Nuclear repulsion               ... done (  0.0 sec) ENN=    552.814330909703 Eh

Diagonalization of the overlap matrix:
Smallest eigenvalue                        ... 2.682e-03
Time for diagonalization                   ...    0.002 sec
Threshold for overlap eigenvalues          ... 1.000e-07
Number of eigenvalues below threshold      ... 0
Time for construction of square roots      ...    0.001 sec
Total time needed                          ...    0.003 sec

-------------------
DFT GRID GENERATION
-------------------

General Integration Accuracy     IntAcc      ... 4.388
Radial Grid Type                 RadialGrid  ... OptM3 with GC (2021)
Angular Grid (max. ang.)         AngularGrid ... 4 (Lebedev-302)
Angular grid pruning method      GridPruning ... 4 (adaptive)
Weight generation scheme         WeightScheme... mBecke (2022)
Basis function cutoff            BFCut       ... 1.0000e-10
Integration weight cutoff        WCut        ... 1.0000e-14
Partially contracted basis set               ... off
Rotationally invariant grid construction     ... off
Angular grids for H and He will be reduced by one unit

Total number of grid points                  ...   104905
Total number of batches                      ...     1650
Average number of points per batch           ...       63
Average number of grid points per atom       ...     4371
Grids setup in   0.4 sec
Initializing property integral containers    ... done (  0.0 sec)

SHARK setup successfully completed in   0.5 seconds

Maximum memory used throughout the entire STARTUP-calculation: 43.9 MB
-------------------------------------------------------------------------------
                                 ORCA GUESS
                   Start orbitals & Density for SCF / CASSCF
-------------------------------------------------------------------------------

------------
SCF SETTINGS
------------
Hamiltonian:
 Density Functional     Method          .... DFT(GTOs)
 Exchange Functional    Exchange        .... B97(D)
 Correlation Functional Correlation     .... B97(D)
 Gradients option       PostSCFGGA      .... off
 RI-approximation to the Coulomb term is turned on
   Number of AuxJ basis functions       .... 644


General Settings:
 Integral files         IntName         .... 2
 Hartree-Fock type      HFTyp           .... RHF
 Total Charge           Charge          ....    0
 Multiplicity           Mult            ....    1
 Number of Electrons    NEL             ....   80
 Basis Dimension        Dim             ....  210
 Nuclear Repulsion      ENuc            ....    552.8143309097 Eh

Convergence Acceleration:
 AO-DIIS                CNVDIIS         .... on
   Start iteration      DIISMaxIt       ....    12
   Startup error        DIISStart       ....  0.200000
   # of expansion vecs  DIISMaxEq       ....     5
   Bias factor          DIISBfac        ....   1.050
   Max. coefficient     DIISMaxC        ....  10.000
 MO-DIIS                CNVKDIIS        .... off
 Trust-Rad. Augm. Hess. CNVTRAH         .... auto
   Auto Start mean grad. ratio tolernc. ....  1.125000
   Auto Start start iteration           ....    50
   Auto Start num. interpolation iter.  ....    10
   Max. Number of Micro iterations      ....    24
   Max. Number of Macro iterations      .... Maxiter - #DIIS iter
   Number of Davidson start vectors     ....     2
   Converg. threshold    (grad. norm)   ....   5.000e-05
   Grad. Scal. Fac. for Micro threshold ....   0.100
   Minimum threshold for Micro iter.    ....   1.000e-02
   NR start threshold (gradient norm)   ....   1.000e-04
   Initial trust radius                 ....   0.400
   Minimum AH scaling param. (alpha)    ....   1.000
   Maximum AH scaling param. (alpha)    .... 1000.000
   Quad. conv. algorithm                .... NR
   White noise on init. David. guess    .... on
   Maximum white noise                  ....   0.010
   Pseudo random numbers                .... off
   Inactive MOs                         .... canonical
   Orbital update algorithm             .... Taylor
   Preconditioner                       .... Diag
   Full preconditioner red. dimension   ....   250
 SOSCF                 CNVSOSCF           .... on
   Start iteration     SOSCFMaxIt         ....   150
   Startup grad/error  SOSCFStart         ....  0.003300
   Hessian update      SOSCFHessUp        .... L-BFGS
   Autom. constraints  SOSCFAutoConstrain .... off
 Level Shifting         CNVShift        .... on
   Level shift para.    LevelShift      ....    0.2500
   Turn off err/grad.   ShiftErr        ....    0.0010
 Zerner damping         CNVZerner       .... off
 Static damping         CNVDamp         .... on
   Fraction old density DampFac         ....    0.7000
   Max. Damping (<1)    DampMax         ....    0.9800
   Min. Damping (>=0)   DampMin         ....    0.0000
   Turn off err/grad.   DampErr         ....    0.1000

SCF Procedure:
 Maximum # iterations   MaxIter         ....   125
 SCF integral mode      SCFMode         .... Direct
   Integral package                     .... SHARK and LIBINT hybrid scheme
 Reset frequency        DirectResetFreq ....    20
 Integral Threshold     Thresh          ....  1.000e-10 Eh
 Primitive CutOff       TCut            ....  1.000e-11 Eh

Convergence Tolerance:
 Convergence Check Mode ConvCheckMode   .... Total+1el-Energy
 Convergence forced     ConvForced      .... 0
 Energy Change          TolE            ....  1.000e-06 Eh
 1-El. energy change                    ....  1.000e-03 Eh
 Orbital Gradient       TolG            ....  5.000e-05
 Orbital Rotation angle TolX            ....  5.000e-05
 DIIS Error             TolErr          ....  1.000e-06

------------------------------
INITIAL GUESS: MODEL POTENTIAL
------------------------------
Loading Hartree-Fock densities                     ... done
Calculating cut-offs                               ... done
Initializing the effective Hamiltonian             ... done
Setting up the integral package (SHARK)            ... done
Starting the Coulomb interaction                   ... done (   0.1 sec)
Making the grid                                    ... done (   0.1 sec)
Mapping shells                                     ... done
Starting the XC term evaluation                    ... done (   0.1 sec)
  promolecular density results
     # of electrons  =     79.991756542
     EX              =    -63.612188931
     EC              =     -3.477668737
     EX+EC           =    -67.089857668
Transforming the Hamiltonian                       ... done (   0.0 sec)
Diagonalizing the Hamiltonian                      ... done (   0.0 sec)
Back transforming the eigenvectors                 ... done (   0.0 sec)
Now organizing SCF variables                       ... done
                      ------------------
                      INITIAL GUESS DONE (   0.3 sec)
                      ------------------
             **** ENERGY FILE WAS UPDATED (2.en.tmp) ****
Finished Guess after   0.3 sec
Maximum memory used throughout the entire GUESS-calculation: 14.4 MB

-------------------------------------------------------------------------------------------
                                      ORCA LEAN-SCF
                              memory conserving SCF solver
-------------------------------------------------------------------------------------------

----------------------------------------D-I-I-S--------------------------------------------
Iteration    Energy (Eh)           Delta-E    RMSDP     MaxDP     DIISErr   Damp  Time(sec)
-------------------------------------------------------------------------------------------
               ***  Starting incremental Fock matrix formation  ***
    1    -496.2766802004092597     0.00e+00  3.52e-03  1.02e-01  2.59e-01  0.700   0.6
    2    -496.4796802177646668    -2.03e-01  2.32e-03  5.32e-02  1.03e-01  0.700   0.6
                               ***Turning on AO-DIIS***
    3    -496.5429367660875641    -6.33e-02  8.86e-04  1.76e-02  3.32e-02  0.700   0.6
    4    -496.5835707150976077    -4.06e-02  1.17e-03  1.94e-02  1.12e-02  0.000   0.5
    5    -496.6777763588639800    -9.42e-02  3.96e-04  8.79e-03  1.17e-02  0.000   0.5
    6    -496.6787429631482382    -9.67e-04  1.49e-04  2.98e-03  3.50e-03  0.000   0.5
                              *** Initializing SOSCF ***
---------------------------------------S-O-S-C-F--------------------------------------
Iteration    Energy (Eh)           Delta-E    RMSDP     MaxDP     MaxGrad    Time(sec)
--------------------------------------------------------------------------------------
    7    -496.6788233038338376    -8.03e-05  5.50e-05  1.16e-03  1.78e-03     0.5
               *** Restarting incremental Fock matrix formation ***
    8    -496.6788346522838538    -1.13e-05  3.64e-05  7.11e-04  1.03e-04     0.6
    9    -496.6788346450167637     7.27e-09  1.64e-05  4.74e-04  3.21e-04     0.5
                 **** Energy Check signals convergence ****

               *****************************************************
               *                     SUCCESS                       *
               *           SCF CONVERGED AFTER   9 CYCLES          *
               *****************************************************

             **** ENERGY FILE WAS UPDATED (2.en.tmp) ****

----------------
TOTAL SCF ENERGY
----------------

Total Energy       :       -496.67883552485011 Eh          -13515.31822 eV

Components:
Nuclear Repulsion  :        552.81433090970279 Eh           15042.84271 eV
Electronic Energy  :      -1049.49316643455268 Eh          -28558.16093 eV
One Electron Energy:      -1772.24456452347772 Eh          -48225.22632 eV
Two Electron Energy:        722.75139808892493 Eh           19667.06540 eV

Virial components:
Potential Energy   :       -990.77688610154792 Eh          -26960.40971 eV
Kinetic Energy     :        494.09805057669780 Eh           13445.09149 eV
Virial Ratio       :          2.00522322430769

DFT components:
N(Alpha)           :       39.999927305889 electrons
N(Beta)            :       39.999927305889 electrons
N(Total)           :       79.999854611777 electrons
E(X)               :      -65.198194199683 Eh       
E(C)               :       -3.469710142834 Eh       
E(XC)              :      -68.667904342517 Eh       

---------------
SCF CONVERGENCE
---------------

  Last Energy change         ...   -7.2671e-09  Tolerance :   1.0000e-06
  Last MAX-Density change    ...    4.7360e-04  Tolerance :   1.0000e-05
  Last RMS-Density change    ...    1.6350e-05  Tolerance :   1.0000e-06
  Last DIIS Error            ...    1.7775e-03  Tolerance :   1.0000e-06
  Last Orbital Gradient      ...    3.2104e-04  Tolerance :   5.0000e-05
  Last Orbital Rotation      ...    5.6360e-04  Tolerance :   5.0000e-05


----------------
ORBITAL ENERGIES
----------------

  NO   OCC          E(Eh)            E(eV) 
   0   2.0000     -18.814575      -511.9706 
   1   2.0000     -18.752796      -510.2895 
   2   2.0000     -13.988264      -380.6400 
   3   2.0000     -13.975255      -380.2860 
   4   2.0000     -10.026810      -272.8434 
   5   2.0000      -9.947097      -270.6743 
   6   2.0000      -9.919217      -269.9156 
   7   2.0000      -9.908813      -269.6325 
   8   2.0000      -9.895329      -269.2656 
   9   2.0000      -9.894690      -269.2482 
  10   2.0000      -1.020686       -27.7743 
  11   2.0000      -0.931647       -25.3514 
  12   2.0000      -0.817411       -22.2429 
  13   2.0000      -0.797586       -21.7034 
  14   2.0000      -0.717756       -19.5311 
  15   2.0000      -0.666743       -18.1430 
  16   2.0000      -0.618108       -16.8196 
  17   2.0000      -0.559440       -15.2231 
  18   2.0000      -0.537811       -14.6346 
  19   2.0000      -0.510545       -13.8926 
  20   2.0000      -0.457474       -12.4485 
  21   2.0000      -0.449340       -12.2272 
  22   2.0000      -0.439082       -11.9480 
  23   2.0000      -0.419764       -11.4224 
  24   2.0000      -0.394854       -10.7445 
  25   2.0000      -0.391671       -10.6579 
  26   2.0000      -0.387741       -10.5510 
  27   2.0000      -0.377877       -10.2826 
  28   2.0000      -0.356055        -9.6888 
  29   2.0000      -0.337529        -9.1846 
  30   2.0000      -0.335391        -9.1264 
  31   2.0000      -0.321889        -8.7590 
  32   2.0000      -0.300804        -8.1853 
  33   2.0000      -0.297677        -8.1002 
  34   2.0000      -0.285368        -7.7652 
  35   2.0000      -0.277846        -7.5606 
  36   2.0000      -0.272679        -7.4200 
  37   2.0000      -0.223837        -6.0909 
  38   2.0000      -0.197519        -5.3748 
  39   2.0000      -0.176247        -4.7959 
  40   0.0000      -0.015553        -0.4232 
  41   0.0000       0.050686         1.3792 
  42   0.0000       0.063480         1.7274 
  43   0.0000       0.071166         1.9365 
  44   0.0000       0.089192         2.4270 
  45   0.0000       0.099774         2.7150 
  46   0.0000       0.108858         2.9622 
  47   0.0000       0.121292         3.3005 
  48   0.0000       0.140127         3.8131 
  49   0.0000       0.142853         3.8872 
  50   0.0000       0.155804         4.2396 
*Only the first 10 virtual orbitals were printed.

                    ********************************
                    * MULLIKEN POPULATION ANALYSIS *
                    ********************************

-----------------------
MULLIKEN ATOMIC CHARGES
-----------------------
   0 C :   -0.084305
   1 C :   -0.196114
   2 H :    0.231128
   3 H :    0.230391
   4 N :   -0.574244
   5 C :   -0.182777
   6 H :    0.093193
   7 H :    0.085578
   8 C :   -0.198777
   9 H :    0.091983
  10 H :    0.126195
  11 C :   -0.044329
  12 H :    0.117036
  13 H :    0.098378
  14 C :    0.484197
  15 H :    0.317717
  16 N :   -0.550643
  17 O :   -0.455293
  18 H :    0.108962
  19 H :    0.103866
  20 H :    0.245860
  21 O :   -0.418903
  22 H :    0.126062
  23 H :    0.244839
Sum of atomic charges:   -0.0000000

--------------------------------
MULLIKEN REDUCED ORBITAL CHARGES
--------------------------------
  0 C s       :     3.197115  s :     3.197115
      pz      :     1.061957  p :     2.834755
      px      :     0.894983
      py      :     0.877815
      dz2     :     0.007663  d :     0.052435
      dxz     :     0.006124
      dyz     :     0.011471
      dx2y2   :     0.014485
      dxy     :     0.012692

  1 C s       :     3.225358  s :     3.225358
      pz      :     1.019438  p :     2.934420
      px      :     0.942701
      py      :     0.972281
      dz2     :     0.005592  d :     0.036336
      dxz     :     0.005386
      dyz     :     0.010573
      dx2y2   :     0.007946
      dxy     :     0.006840

  2 H s       :     0.744918  s :     0.744918
      pz      :     0.009848  p :     0.023954
      px      :     0.008133
      py      :     0.005973

  3 H s       :     0.745656  s :     0.745656
      pz      :     0.008658  p :     0.023952
      px      :     0.008044
      py      :     0.007251

  4 N s       :     3.588513  s :     3.588513
      pz      :     1.132159  p :     3.956964
      px      :     1.727023
      py      :     1.097781
      dz2     :     0.002615  d :     0.028767
      dxz     :     0.004743
      dyz     :     0.010522
      dx2y2   :     0.003388
      dxy     :     0.007500

  5 C s       :     3.221038  s :     3.221038
      pz      :     1.032902  p :     2.925031
      px      :     0.915961
      py      :     0.976168
      dz2     :     0.005678  d :     0.036709
      dxz     :     0.005316
      dyz     :     0.010033
      dx2y2   :     0.008178
      dxy     :     0.007504

  6 H s       :     0.895225  s :     0.895225
      pz      :     0.005185  p :     0.011582
      px      :     0.003083
      py      :     0.003314

  7 H s       :     0.902990  s :     0.902990
      pz      :     0.004760  p :     0.011432
      px      :     0.002771
      py      :     0.003901

  8 C s       :     3.234986  s :     3.234986
      pz      :     0.949629  p :     2.927330
      px      :     0.959067
      py      :     1.018634
      dz2     :     0.005696  d :     0.036461
      dxz     :     0.007642
      dyz     :     0.008355
      dx2y2   :     0.007996
      dxy     :     0.006772

  9 H s       :     0.896416  s :     0.896416
      pz      :     0.004979  p :     0.011601
      px      :     0.003126
      py      :     0.003497

 10 H s       :     0.861780  s :     0.861780
      pz      :     0.005658  p :     0.012025
      px      :     0.002639
      py      :     0.003728

 11 C s       :     3.196023  s :     3.196023
      pz      :     0.903200  p :     2.790823
      px      :     0.918099
      py      :     0.969524
      dz2     :     0.011818  d :     0.057482
      dxz     :     0.011551
      dyz     :     0.012752
      dx2y2   :     0.013265
      dxy     :     0.008096

 12 H s       :     0.871398  s :     0.871398
      pz      :     0.004529  p :     0.011566
      px      :     0.002678
      py      :     0.004359

 13 H s       :     0.890081  s :     0.890081
      pz      :     0.002893  p :     0.011541
      px      :     0.003035
      py      :     0.005614

 14 C s       :     2.988215  s :     2.988215
      pz      :     0.764321  p :     2.403161
      px      :     0.908437
      py      :     0.730403
      dz2     :     0.018045  d :     0.124427
      dxz     :     0.016973
      dyz     :     0.024409
      dx2y2   :     0.040552
      dxy     :     0.024448

 15 H s       :     0.644377  s :     0.644377
      pz      :     0.009077  p :     0.037906
      px      :     0.021041
      py      :     0.007788

 16 N s       :     3.585635  s :     3.585635
      pz      :     1.114992  p :     3.936583
      px      :     1.701469
      py      :     1.120121
      dz2     :     0.005360  d :     0.028425
      dxz     :     0.007681
      dyz     :     0.004967
      dx2y2   :     0.003303
      dxy     :     0.007114

 17 O s       :     3.824385  s :     3.824385
      pz      :     1.635755  p :     4.608206
      px      :     1.405025
      py      :     1.567425
      dz2     :     0.004503  d :     0.022702
      dxz     :     0.001733
      dyz     :     0.005302
      dx2y2   :     0.008579
      dxy     :     0.002585

 18 H s       :     0.880250  s :     0.880250
      pz      :     0.004668  p :     0.010788
      px      :     0.002611
      py      :     0.003509

 19 H s       :     0.885357  s :     0.885357
      pz      :     0.005164  p :     0.010777
      px      :     0.002807
      py      :     0.002806

 20 H s       :     0.730208  s :     0.730208
      pz      :     0.004827  p :     0.023932
      px      :     0.008660
      py      :     0.010445

 21 O s       :     3.855041  s :     3.855041
      pz      :     1.491517  p :     4.535800
      px      :     1.546433
      py      :     1.497849
      dz2     :     0.004028  d :     0.028062
      dxz     :     0.005808
      dyz     :     0.004070
      dx2y2   :     0.007068
      dxy     :     0.007088

 22 H s       :     0.862794  s :     0.862794
      pz      :     0.002309  p :     0.011144
      px      :     0.003202
      py      :     0.005633

 23 H s       :     0.731237  s :     0.731237
      pz      :     0.010208  p :     0.023924
      px      :     0.008687
      py      :     0.005029



                     *******************************
                     * LOEWDIN POPULATION ANALYSIS *
                     *******************************

----------------------
LOEWDIN ATOMIC CHARGES
----------------------
   0 C :   -0.073228
   1 C :   -0.145100
   2 H :    0.118949
   3 H :    0.118679
   4 N :   -0.268843
   5 C :   -0.127236
   6 H :    0.060308
   7 H :    0.058153
   8 C :   -0.117503
   9 H :    0.065243
  10 H :    0.076655
  11 C :   -0.052037
  12 H :    0.074025
  13 H :    0.068491
  14 C :    0.101033
  15 H :    0.181632
  16 N :   -0.242351
  17 O :   -0.141770
  18 H :    0.067095
  19 H :    0.064614
  20 H :    0.127972
  21 O :   -0.224273
  22 H :    0.081214
  23 H :    0.128278

-------------------------------
LOEWDIN REDUCED ORBITAL CHARGES
-------------------------------
  0 C s       :     2.890968  s :     2.890968
      pz      :     1.087132  p :     3.066937
      px      :     1.004803
      py      :     0.975003
      dz2     :     0.017372  d :     0.115323
      dxz     :     0.011340
      dyz     :     0.023076
      dx2y2   :     0.035940
      dxy     :     0.027595

  1 C s       :     2.911654  s :     2.911654
      pz      :     1.072566  p :     3.151687
      px      :     1.032224
      py      :     1.046897
      dz2     :     0.013473  d :     0.081759
      dxz     :     0.010541
      dyz     :     0.021430
      dx2y2   :     0.020155
      dxy     :     0.016159

  2 H s       :     0.802432  s :     0.802432
      pz      :     0.034467  p :     0.078619
      px      :     0.026010
      py      :     0.018142

  3 H s       :     0.802743  s :     0.802743
      pz      :     0.029380  p :     0.078578
      px      :     0.025145
      py      :     0.024053

  4 N s       :     3.197823  s :     3.197823
      pz      :     1.161648  p :     4.012788
      px      :     1.693280
      py      :     1.157860
      dz2     :     0.008164  d :     0.058232
      dxz     :     0.006101
      dyz     :     0.023094
      dx2y2   :     0.006751
      dxy     :     0.014123

  5 C s       :     2.895771  s :     2.895771
      pz      :     1.084150  p :     3.149278
      px      :     1.011957
      py      :     1.053171
      dz2     :     0.013501  d :     0.082187
      dxz     :     0.010867
      dyz     :     0.019841
      dx2y2   :     0.020464
      dxy     :     0.017515

  6 H s       :     0.900154  s :     0.900154
      pz      :     0.019350  p :     0.039538
      px      :     0.009451
      py      :     0.010737

  7 H s       :     0.903009  s :     0.903009
      pz      :     0.017291  p :     0.038838
      px      :     0.008214
      py      :     0.013334

  8 C s       :     2.903612  s :     2.903612
      pz      :     1.028820  p :     3.132470
      px      :     1.029376
      py      :     1.074274
      dz2     :     0.013574  d :     0.081421
      dxz     :     0.017336
      dyz     :     0.017534
      dx2y2   :     0.019205
      dxy     :     0.013771

  9 H s       :     0.895578  s :     0.895578
      pz      :     0.018280  p :     0.039179
      px      :     0.009622
      py      :     0.011277

 10 H s       :     0.881824  s :     0.881824
      pz      :     0.020922  p :     0.041521
      px      :     0.007587
      py      :     0.013013

 11 C s       :     2.880042  s :     2.880042
      pz      :     0.999326  p :     3.040995
      px      :     1.015156
      py      :     1.026514
      dz2     :     0.026116  d :     0.131000
      dxz     :     0.026843
      dyz     :     0.029173
      dx2y2   :     0.031647
      dxy     :     0.017221

 12 H s       :     0.885931  s :     0.885931
      pz      :     0.016642  p :     0.040044
      px      :     0.007985
      py      :     0.015417

 13 H s       :     0.892017  s :     0.892017
      pz      :     0.008523  p :     0.039492
      px      :     0.009751
      py      :     0.021218

 14 C s       :     2.858204  s :     2.858204
      pz      :     0.826773  p :     2.742999
      px      :     1.035382
      py      :     0.880843
      dz2     :     0.041097  d :     0.297764
      dxz     :     0.037369
      dyz     :     0.062180
      dx2y2   :     0.099121
      dxy     :     0.057997

 15 H s       :     0.702628  s :     0.702628
      pz      :     0.025649  p :     0.115739
      px      :     0.068118
      py      :     0.021973

 16 N s       :     3.194279  s :     3.194279
      pz      :     1.155232  p :     3.990203
      px      :     1.674920
      py      :     1.160051
      dz2     :     0.013247  d :     0.057869
      dxz     :     0.012020
      dyz     :     0.014878
      dx2y2   :     0.006759
      dxy     :     0.010966

 17 O s       :     3.470424  s :     3.470424
      pz      :     1.628253  p :     4.620454
      px      :     1.413227
      py      :     1.578974
      dz2     :     0.007920  d :     0.050892
      dxz     :     0.004882
      dyz     :     0.013239
      dx2y2   :     0.018112
      dxy     :     0.006739

 18 H s       :     0.895073  s :     0.895073
      pz      :     0.017485  p :     0.037833
      px      :     0.007502
      py      :     0.012845

 19 H s       :     0.897715  s :     0.897715
      pz      :     0.019546  p :     0.037671
      px      :     0.008473
      py      :     0.009652

 20 H s       :     0.792891  s :     0.792891
      pz      :     0.013264  p :     0.079137
      px      :     0.027586
      py      :     0.038287

 21 O s       :     3.554400  s :     3.554400
      pz      :     1.489081  p :     4.611846
      px      :     1.597006
      py      :     1.525759
      dz2     :     0.007674  d :     0.058027
      dxz     :     0.010454
      dyz     :     0.008515
      dx2y2   :     0.013026
      dxy     :     0.018360

 22 H s       :     0.878703  s :     0.878703
      pz      :     0.007902  p :     0.040083
      px      :     0.010358
      py      :     0.021824

 23 H s       :     0.792855  s :     0.792855
      pz      :     0.036117  p :     0.078867
      px      :     0.028788
      py      :     0.013963



                      *****************************
                      * MAYER POPULATION ANALYSIS *
                      *****************************

  NA   - Mulliken gross atomic population
  ZA   - Total nuclear charge
  QA   - Mulliken gross atomic charge
  VA   - Mayer's total valence
  BVA  - Mayer's bonded valence
  FA   - Mayer's free valence

  ATOM       NA         ZA         QA         VA         BVA        FA
  0 C      6.0843     6.0000    -0.0843     3.9120     3.9120    -0.0000
  1 C      6.1961     6.0000    -0.1961     3.8777     3.8777    -0.0000
  2 H      0.7689     1.0000     0.2311     0.9238     0.9238    -0.0000
  3 H      0.7696     1.0000     0.2304     0.9240     0.9240    -0.0000
  4 N      7.5742     7.0000    -0.5742     2.8875     2.8875    -0.0000
  5 C      6.1828     6.0000    -0.1828     3.8759     3.8759    -0.0000
  6 H      0.9068     1.0000     0.0932     0.9589     0.9589    -0.0000
  7 H      0.9144     1.0000     0.0856     0.9581     0.9581     0.0000
  8 C      6.1988     6.0000    -0.1988     3.8786     3.8786     0.0000
  9 H      0.9080     1.0000     0.0920     0.9534     0.9534     0.0000
 10 H      0.8738     1.0000     0.1262     0.9653     0.9653     0.0000
 11 C      6.0443     6.0000    -0.0443     3.8651     3.8651    -0.0000
 12 H      0.8830     1.0000     0.1170     0.9578     0.9578     0.0000
 13 H      0.9016     1.0000     0.0984     0.9546     0.9546    -0.0000
 14 C      5.5158     6.0000     0.4842     3.9616     3.9616    -0.0000
 15 H      0.6823     1.0000     0.3177     0.9177     0.9177    -0.0000
 16 N      7.5506     7.0000    -0.5506     2.9196     2.9196    -0.0000
 17 O      8.4553     8.0000    -0.4553     2.0294     2.0294    -0.0000
 18 H      0.8910     1.0000     0.1090     0.9507     0.9507    -0.0000
 19 H      0.8961     1.0000     0.1039     0.9514     0.9514    -0.0000
 20 H      0.7541     1.0000     0.2459     0.9289     0.9289     0.0000
 21 O      8.4189     8.0000    -0.4189     2.1170     2.1170     0.0000
 22 H      0.8739     1.0000     0.1261     0.9526     0.9526     0.0000
 23 H      0.7552     1.0000     0.2448     0.9217     0.9217    -0.0000

  Mayer bond orders larger than 0.100000
B(  0-C ,  1-C ) :   0.9836 B(  0-C ,  4-N ) :   1.0277 B(  0-C , 18-H ) :   0.9504 
B(  0-C , 19-H ) :   0.9505 B(  1-C ,  5-C ) :   0.9995 B(  1-C ,  6-H ) :   0.9452 
B(  1-C ,  7-H ) :   0.9484 B(  2-H ,  4-N ) :   0.9152 B(  3-H ,  4-N ) :   0.9155 
B(  5-C ,  8-C ) :   0.9977 B(  5-C ,  9-H ) :   0.9458 B(  5-C , 10-H ) :   0.9331 
B(  8-C , 11-C ) :   0.9792 B(  8-C , 12-H ) :   0.9409 B(  8-C , 13-H ) :   0.9423 
B( 11-C , 14-C ) :   0.8994 B( 11-C , 16-N ) :   1.0524 B( 11-C , 22-H ) :   0.9180 
B( 14-C , 17-O ) :   1.0797 B( 14-C , 21-O ) :   1.9326 B( 15-H , 17-O ) :   0.8516 
B( 16-N , 20-H ) :   0.9004 B( 16-N , 23-H ) :   0.9075 

-------
TIMINGS
-------

Total SCF time: 0 days 0 hours 0 min 5 sec 

Total time                  ....       5.385 sec
Sum of individual times     ....       4.920 sec  ( 91.4%)

SCF preparation             ....       0.028 sec  (  0.5%)
Fock matrix formation       ....       4.828 sec  ( 89.7%)
  Startup                   ....       0.001 sec  (  0.0% of F)
  Split-RI-J                ....       1.843 sec  ( 38.2% of F)
  XC integration            ....       3.436 sec  ( 71.2% of F)
    Basis function eval.    ....       1.186 sec  ( 34.5% of XC)
    Density eval.           ....       0.759 sec  ( 22.1% of XC)
    XC-Functional eval.     ....       0.613 sec  ( 17.8% of XC)
    XC-Potential eval.      ....       0.785 sec  ( 22.8% of XC)
Diagonalization             ....       0.000 sec  (  0.0%)
Density matrix formation    ....       0.004 sec  (  0.1%)
Total Energy calculation    ....       0.001 sec  (  0.0%)
Population analysis         ....       0.003 sec  (  0.1%)
Orbital Transformation      ....       0.008 sec  (  0.1%)
Orbital Orthonormalization  ....       0.000 sec  (  0.0%)
DIIS solution               ....       0.039 sec  (  0.7%)
SOSCF solution              ....       0.009 sec  (  0.2%)
Finished LeanSCF after   5.4 sec

Maximum memory used throughout the entire LEANSCF-calculation: 22.8 MB



-------------------------------------------------------------------------------
                          DFT DISPERSION CORRECTION                            
-------------------------------------------------------------------------------
Active option DFTDOPT                   ...         2   
Final C6-coefficient scaling factor     ...     1.250
Final VDW-radii scaling factor          ...     1.100
Damping factor alpha                    ...    20.000
-------------------------   ----------------
Dispersion correction           -0.034598739
-------------------------   ----------------


-------------------------   --------------------
FINAL SINGLE POINT ENERGY      -496.713434263536
-------------------------   --------------------


------------------------------------------------------------------------------
                              ORCA PROPERTY CALCULATIONS
------------------------------------------------------------------------------

GBWName                                 ... 2.gbw
Number of atoms                         ...     24
Number of basis functions               ...    210
Max core memory                         ...   4096 MB

Electric properties:
Dipole moment                           ... YES
Quadrupole moment                       ...  NO
Static polarizability (Dipole/Dipole)   ...  NO
Static polarizability (Dipole/Quad.)    ...  NO
Static polarizability (Quad./Quad.)     ...  NO
Static polarizability (Velocity)        ...  NO
Static hyperpolarizability              ...  NO

Atomic electric properties:
Dipole moment                           ...  NO
Quadrupole moment                       ...  NO
Static polarizability                   ...  NO

Choice of electric origin               ... Center of mass
Position of electric origin             ...   -20.095128    11.237537     0.946477

General magnetic properties:
Magnetizability                         ...  NO

EPR properties:
g-Tensor (aka g-matrix)                 ...  NO
Zero-Field splitting spin-orbit         ...  NO
Zero-field splitting spin-spin          ...  NO
Hyperfine couplings                     ...  NO (   0 nuclei)
Quadrupole couplings                    ...  NO (   0 nuclei)
Contact density                         ...  NO (   0 nuclei)

NMR properties:
Chemical shifts                         ...  NO (   0 nuclei)
Spin-rotation constants                 ...  NO (   0 nuclei)
Spin-spin couplings                     ...  NO (   0 nuclei,    0 pairs)

Choice of magnetic origin               ... GIAO
Position of magnetic origin             ...     0.000000     0.000000     0.000000

Properties with geometric perturbations:
SCF Hessian                             ...  NO
IR spectrum                             ...  NO
VCD spectrum                            ...  NO
X-ray spectroscopy properties:
SCF XES/XAS/RIXS spectra                ...  NO

SCF SOC stabilization energy            ...  NO
Diagonal Born-Oppenheimer correction    ...  NO

-------------
DIPOLE MOMENT
-------------

Method             : SCF
Type of density    : Electron Density
Multiplicity       :   1
Irrep              :   0
Energy             :  -496.6788355248501148 Eh
Basis              : AO
                                X                 Y                 Z
Electronic contribution:     13.655056740      -0.238129527      -1.639269365
Nuclear contribution   :    -13.046513763       0.773023519       1.912992456
                        -----------------------------------------
Total Dipole Moment    :      0.608542977       0.534893992       0.273723091
                        -----------------------------------------
Magnitude (a.u.)       :      0.855196158
Magnitude (Debye)      :      2.173735883



--------------------
Rotational spectrum 
--------------------
 
Rotational constants in cm-1:             0.096193             0.016389             0.015434 
Rotational constants in MHz :          2883.790384           491.330846           462.694070 

Dipole components along the rotational axes: 
x,y,z [a.u.] :    -0.469779     0.710720    -0.074467 
x,y,z [Debye]:    -1.194084     1.806506    -0.189280 

 

Dipole moment calculation done in   0.0 sec 

Maximum memory used throughout the entire PROP-calculation: 13.0 MB

--------------------------------
SUGGESTED CITATIONS FOR THIS RUN
--------------------------------

Below you find a list of papers that are relevant to this ORCA run
We neither can nor want to force you to cite these papers, but we appreciate if you do
You receive ORCA, which is the product of decades of hard work by many enthusiastic individuals, for free
The only thing we kindly ask in return is that you cite our papers,
We deeply appreciate it, if you show your appreciation for ORCA by not just citing the generic ORCA reference.

Please note that relegating all ORCA citations to the supporting information does *not* help us.
SI sections are not indexed - citations you put there will not count into any citation statistics
But we need these citations in order to attract the funding resources that allow us to do what we are doing

Therefore, if you are a happy ORCA user, please consider citing a few of the papers listed below in the main body of your paper

In addition to the list printed below, the program has created the file 2.bibtex that contains the list in bibtex format
You can import this file easily into all common literature databanks and citation aid programs


List of essential papers. We consider these as the minimum necessary citations

  1. Neese, F.
     Software update: the ORCA program system, version 6.0
     WIRES Comput. Molec. Sci. 2025 15(1), e70019
     doi.org/10.1002/wcms.7019

List of papers to cite with high priority. The work reported in these papers was absolutely
necessary for this run to complete.
Our perspective: the developers of density functionals and basis sets usually get cited in chemistry papers
Good! But without the algorithms to do something with them, the functionals or basis sets would not do anything.
Hence, in our opinion, the algorithm design and method developments papers are equally worthy of getting cited

  1. Neese, F.
     An improvement of the resolution of the identity approximation for the formation of the Coulomb matrix
     J. Comp. Chem. 2003 24(14), 1740-1747
     doi.org/10.1002/jcc.10318
  2. Grimme, S.
     Semiempirical GGA-type density functional constructed with a long-range dispersion correction
     J.Comput.Chem. 2006 27(15), 1787-1799
     doi.org/10.1002/jcc.20495
  3. Neese, F.
     The SHARK Integral Generation and Digestion System
     J. Comp. Chem. 2022 44(3), 381
     doi.org/10.1002/jcc.26942

List of suggested additional citations. These are papers that are important in the 'surrounding' of 
of this run, or papers that preceded the highly important papers. If you like your results we are grateful for a citation.

  1. Neese, F.
     The ORCA program system
     WIRES Comput. Molec. Sci. 2012 2(1), 73-78
     doi.org/10.1002/wcms.81
  2. Neese, F.
     Software update: the ORCA program system, version 4.0
     WIRES Comput. Molec. Sci. 2018 8(1), 1-6
     doi.org/10.1002/wcms.1327
  3. Neese, F.; Wennmohs, F.; Becker, U.; Riplinger, C.
     The ORCA quantum chemistry program package
     J. Chem. Phys. 2020 152(22), 224108
     doi.org/10.1063/5.0004608
  4. Neese, F.
     Software update: The ORCA program system—Version 5.0
     WIRES Comput. Molec. Sci. 2022 12(1), e1606
     doi.org/10.1002/wcms.1606

List of optional additional citations

  1. Neese, F.
     Approximate second-order SCF convergence for spin unrestricted wavefunctions
     Chem. Phys. Lett. 2000 325(1-3), 93-98
     doi.org/10.1016/s0009-2614(00)00662-x

Timings for individual modules:

Sum of individual times          ...        6.277 sec (=   0.105 min)
Startup calculation              ...        0.508 sec (=   0.008 min)   8.1 %
SCF iterations                   ...        5.736 sec (=   0.096 min)  91.4 %
Property calculations            ...        0.033 sec (=   0.001 min)   0.5 %
                             ****ORCA TERMINATED NORMALLY****
TOTAL RUN TIME: 0 days 0 hours 0 minutes 6 seconds 318 msec
