
                                 *****************
                                 * O   R   C   A *
                                 *****************

                                            #,                                       
                                            ###                                      
                                            ####                                     
                                            #####                                    
                                            ######                                   
                                           ########,                                 
                                     ,,################,,,,,                         
                               ,,#################################,,                 
                          ,,##########################################,,             
                       ,#########################################, ''#####,          
                    ,#############################################,,   '####,        
                  ,##################################################,,,,####,       
                ,###########''''           ''''###############################       
              ,#####''   ,,,,##########,,,,          '''####'''          '####       
            ,##' ,,,,###########################,,,                        '##       
           ' ,,###''''                  '''############,,,                           
         ,,##''                                '''############,,,,        ,,,,,,###''
      ,#''                                            '''#######################'''  
     '                                                          ''''####''''         
             ,#######,   #######,   ,#######,      ##                                
            ,#'     '#,  ##    ##  ,#'     '#,    #''#        ,####,    ,#,          
            ##       ##  ##   ,#'  ##            #'  '#       #'       ,# #          
            ##       ##  #######   ##           ,######,      #####,      #          
            '#,     ,#'  ##    ##  '#,     ,#' ,#      #,     #,   #      #          
             '#######'   ##     ##  '#######'  #'      '#     '####' #    #          



                #########################################################
                #                        -***-                          #
                #          Department of theory and spectroscopy        #
                #                                                       #
                #                      Frank Neese                      #
                #                                                       #
                #     Directorship, Architecture, Infrastructure        #
                #                    SHARK, DRIVERS                     #
                #        Core code/Algorithms in most modules           #
                #                                                       #
                #        Max Planck Institute fuer Kohlenforschung      #
                #                Kaiser Wilhelm Platz 1                 #
                #                 D-45470 Muelheim/Ruhr                 #
                #                      Germany                          #
                #                                                       #
                #                  All rights reserved                  #
                #                        -***-                          #
                #########################################################


                         Program Version 6.1.0  -  RELEASE   -
                                (GIT: $679e74b$)
                          ($2025-06-10 18:02:51 +0200$)


 With contributions from (in alphabetic order):
[Max-Planck-Institut fuer Kohlenforschung]                               
  Daniel Aravena         : Magnetic Suceptibility                        
  Michael Atanasov       : Ab Initio Ligand Field Theory (pilot matlab implementation)
  Alexander A. Auer      : GIAO ZORA, VPT2 properties, NMR spectrum      
  Ute Becker             : All parallelization in ORCA, NUMFREQ, NUMCALC 
  Giovanni Bistoni       : ED, misc. LED, open-shell LED, HFLD           
  Dmytro Bykov           : pre 5.0 version of the SCF Hessian            
  Marcos Casanova-Páez   : Triplet and SCS-CIS(D). UHF-(DLPNO)-IP/EA/STEOM-CCSD. UHF-CVS-IP/STEOM-CCSD   
  Vijay G. Chilkuri      : MRCI spin determinant printing, contributions to CSF-ICE 
  Pauline Colinet        : FMM embedding                                 
  Dipayan Datta          : RHF DLPNO-CCSD density                        
  Achintya Kumar Dutta   : EOM-CC, STEOM-CC                              
  Nicolas Foglia         : Exact transition moments, OPA infrastructure, MCD improvements    
  Dmitry Ganyushin       : Spin-Orbit,Spin-Spin,Magnetic field MRCI      
  Miquel Garcia-Rates    : C-PCM and meta-GGA Hessian, CCSD/C-PCM, Gaussian charge scheme 
  Tiago L. C. Gouveia    : GS-ROHF, GS-ROCIS                             
  Yang Guo               : DLPNO-NEVPT2, F12-NEVPT2, CIM, IAO-localization        
  Andreas Hansen         : Spin unrestricted coupled pair/coupled cluster methods 
  Ingolf Harden          : AUTO-CI MPn and infrastructure                
  Benjamin Helmich-Paris : MC-RPA, TRAH-(SCF,CASSCF), AVAS, COSX integrals, SCF dyn. polar., MC-PDFT, srDFT 
  Lee Huntington         : MR-EOM, pCC                                   
  Robert Izsak           : Overlap fitted RIJCOSX, COSX-SCS-MP3, EOM     
  Riya Kayal             : Wick's Theorem for AUTO-CI, AUTO-CI UHF-CCSDT 
  Emily Kempfer          : AUTO-CI RHF CISDT and CCSDT, approximate NEVPT4
  Christian Kollmar      : KDIIS, OOCD, Brueckner-CCSD(T), CCSD density, CASPT2, CASPT2-K, improved NEVPT2 
  Axel Koslowski         : Symmetry handling                             
  Simone Kossmann        : meta-GGA functionals, TD-DFT gradient, OOMP2, (MP2 Hessian; deprecated post 5.0) 
  Lucas Lang             : DCDCAS, Hyperfine gauge corrections, ICE-SOC+SSC
  Marvin Lechner         : AUTO-CI (C++ implementation), FIC-MRCC        
  Spencer Leger          : CASSCF response                               
  Dagmar Lenk            : GEPOL surface, SMD, ORCA-2-JSON               
  Dimitrios Liakos       : Extrapolation schemes; Compound Job, Property file
  Dimitrios Manganas     : Further ROCIS development; embedding schemes. LFT, Crystal Embedding 
  Dimitrios Pantazis     : SARC Basis sets                               
  Anastasios Papadopoulos: AUTO-CI, single reference methods and gradients 
  Taras Petrenko         : pre 6.0 DFT Hessian and TD-DFT gradient,  ECA, NRVS 
  Petra Pikulova         : Analytic Raman intensities                    
  Peter Pinski           : DLPNO-MP2, DLPNO-MP2 Gradient                 
  Shashank Vittal Rao    : ES-AILFT, MagRelax                            
  Christoph Reimann      : Effective Core Potentials                     
  Marius Retegan         : Local ZFS, SOC                                
  Christoph Riplinger    : Optimizer, TS searches, QM/MM, DLPNO-CCSD(T), (RO)-DLPNO pert. Triples 
  Michael Roemelt        : Original ROCIS implementation, recursive CI coupling coefficients
  Masaaki Saitow         : Open-shell DLPNO-CCSD energy and density      
  Barbara Sandhoefer     : DKH picture change effects                    
  Yorick L. A. Schmerwitz: GMF and freeze-and-release deltaSCF, NEB S-IDPP initial path                    
  Kantharuban Sivalingam : CASSCF convergence/infrastructure, NEVPT2, NEVPT3, NEVPT4(SD), FIC-MRCI and CEPA variants
  Bernardo de Souza      : ESD, SOC TD-DFT                               
  Georgi L. Stoychev     : AutoAux, RI-MP2 NMR, DLPNO-MP2 response, X2C  
  Van Anh Tran           : RI-MP2 g-tensors                              
  Willem Van den Heuvel  : Paramagnetic NMR                              
  Zikuan Wang            : NOTCH, Electric field optimization            
  Frank Wennmohs         : Technical directorship and infrastructure     
  Hang Xu                : AUTO-CI-Response properties                   
                                                                         
[FACCTs GmbH]                                                            
  Markus Bursch, Nicolas Foglia, Miquel Garcia-Rates, Ingolf Harden, Hagen Neugebauer, Anastasios Papadopoulos, 
  Christoph Riplinger, Bernardo de Souza, Georgi L. Stoychev                                                    
                                                                 
  APM, various basis sets, CI-OPT, improved COSX, DLPNO-Multilevel,           
  DOCKER, DRACO, updates on ESD, Fragmentator, GOAT, IRC, LR-CPCM, L-BFGS, MBIS, meta-GGA TD-DFT gradient, ML-optimized integration grids, 
  MM, NACMEs, nearIR, NEB, NEB-TS, NL-DFT gradient (VV10), 2- and 3-layer-ONIOM, interface openCOSMO-RS, QMMM,   
  Crystal-QMMM, RESP, rigid body optimization, SF, symmetry and pop. for TD-DFT, various functionals, SOLVATOR                                   
                                                                         
[Other institutions]                                                     
  V. Asgeirsson          : NEB                                           
  Christoph Bannwarth    : sTDA-DFT, sTD-DFT, PBEh-3c, B97-3c, D3        
  Giovanni Bistoni       : ETS/NOCV, ADLD/ADEX, COVALED                  
  Martin Brehm           : Molecular dynamics                            
  Ronald Cardenas        : ETS/NOCV                                      
  Martina Colucci        : COVALED                                       
  Sebastian Ehlert       : rSCAN, r2SCAN, r2SCAN-3c, D4, dhf basis sets  
  Marvin Friede          : D4 for Fr, Ra, Ac-Lr                          
  Lars Goerigk           : TD-DFT with DH, B97 family of functionals     
  Stefan Grimme          : VdW corrections, initial TS optimization, DFT functionals, gCP, sTDA/sTD-DF 
  Waldemar Hujo          : DFT-NL                                        
  H. Jonsson             : NEB                                           
  Holger Kruse           : gCP                                           
  Marcel Mueller         : wB97X-3c, vDZP basis set                      
  Hagen Neugebauer       : wr2SCAN, Native XTB                           
  Gianluca Regni         : ADLD/ADEX                                     
  Tobias Risthaus        : pre 6.0 range-separated hybrid DFT and stability analysis
  Lukas Wittmann         : regularized MP2, r2SCAN double-hybrids, wr2SCAN        
                                                                         
We gratefully acknowledge several colleagues who have allowed us to      
interface, adapt or use parts of their codes:                            
  Ed Valeev, F. Pavosevic, A. Kumar             : LibInt (2-el integral package), F12 methods 
  Garnet Chan, S. Sharma, J. Yang, R. Olivares  : DMRG                   
  Ulf Ekstrom                                   : XCFun DFT Library      
  Mihaly Kallay                                 : mrcc  (arbitrary order and MRCC methods)
  Frank Weinhold                                : gennbo (NPA and NBO analysis)           
  Simon Mueller                                 : openCOSMO-RS                            
  Christopher J. Cramer and Donald G. Truhlar   : smd solvation model                     
  S Lehtola, MJT Oliveira, MAL Marques          : LibXC Library                           
  Liviu Ungur et al                             : ANISO software                          


 Your calculation uses the libint2 library for the computation of 2-el integrals
 For citations please refer to: http://libint.valeyev.net

 Your ORCA version has been built with support for libXC version: 7.0.0
 For citations please refer to: https://libxc.gitlab.io

 This ORCA versions uses:
   CBLAS   interface :  Fast vector & matrix operations
   LAPACKE interface :  Fast linear algebra routines
   SCALAPACK package :  Parallel linear algebra routines
   Shared memory     :  Shared parallel matrices
   BLAS/LAPACK       :  OpenBLAS 0.3.29  USE64BITINT DYNAMIC_ARCH NO_AFFINITY Haswell SINGLE_THREADED
        Core in use  :  Haswell
   Copyright (c) 2011-2014, The OpenBLAS Project


  ***********************************
  * Starting time: Sun Aug 31 13:50:18 2025
  * Host name:     chemlab03
  * Process ID:    92851
  * Working dir.:  /home/vivek/mm-project/vivek/xtb-goat/MP2-opt/d/4
  ***********************************



***************************************
The coordinates will be read from file: /home/vivek/mm-project/vivek/xtb-goat/xtb-goat/d/D_CONF/4.xyz
***************************************


================================================================================

----- Orbital basis set information -----
Your calculation utilizes the basis: 6-31G**
   H-He, Li-Ne : W. J. Hehre, R. Ditchfield and J.A. Pople, J. Chem. Phys. 56, 2257 (1972).
                 Note: He and Ne are unpublished basis sets taken from the Gaussian program.
                 Note: Li and B from J. D. Dill and J. A. Pople, J. Chem. Phys. 62, 2921 (1975).
   Na - Ar     : M. M. Francl, W. J. Pietro, W. J. Hehre, J. S. Binkley, M. S. Gordon, 
                 D. J. DeFrees and J. A. Pople, J. Chem. Phys. 77, 3654 (1982).
   K - Zn      : V. A. Rassolov, J. A. Pople, M. A. Ratner, and T. L. Windus, J. Chem. Phys. 109, 1223 (1998).

================================================================================
                                        WARNINGS
                       Please study these warnings very carefully!
================================================================================


WARNING: The frozen-core approximation for MP2-gradient calculations is turned on by default.

WARNING: Geometry Optimization
  ===> : Switching off AutoStart
         For restart on a previous wavefunction, please use MOREAD

WARNING: Post HF methods need fully converged wavefunctions
  ===> : Setting SCFConvForced true
         You can overwrite this default with %scf ConvForced false 


================================================================================
                                       INPUT FILE
================================================================================
NAME = 4.inp
|  1> ! MP2 6-31G** opt
|  2> 
|  3> * xyzfile 0 1 /home/vivek/mm-project/vivek/xtb-goat/xtb-goat/d/D_CONF/4.xyz
|  4> 
|  5>                          ****END OF INPUT****
================================================================================

                       *****************************
                       * Geometry Optimization Run *
                       *****************************

Geometry optimization settings:
Update method            Update   .... BFGS
Choice of coordinates    CoordSys .... (2022) Redundant Internals
Initial Hessian          InHess   .... Almloef's Model
Max. no of cycles        MaxIter  .... 50

Convergence Tolerances:
Energy Change            TolE     ....  5.0000e-06 Eh
Max. Gradient            TolMAXG  ....  3.0000e-04 Eh/bohr
RMS Gradient             TolRMSG  ....  1.0000e-04 Eh/bohr
Max. Displacement        TolMAXD  ....  4.0000e-03 bohr
RMS Displacement         TolRMSD  ....  2.0000e-03 bohr
Strict Convergence                .... False

------------------------------------------------------------------------------
                        ORCA OPTIMIZATION COORDINATE SETUP
------------------------------------------------------------------------------

The optimization will be done in redundant internal coordinates (2022)
Making redundant internal coordinates   ...  (2022 redundants) done
Evaluating the initial hessian          ...  (Almloef) done
Evaluating the coordinates              ...  done
Calculating the B-matrix                .... done
Calculating the G-matrix                .... done
The number of degrees of freedom        ....   64

    -----------------------------------------------------------------
                    Redundant Internal Coordinates


    -----------------------------------------------------------------
         Definition                    Initial Value    Approx d2E/dq
    -----------------------------------------------------------------
      1. B(C   1,C   0)                  1.5098         0.402299   
      2. B(O   4,C   0)                  1.3365         0.681246   
      3. B(C   5,C   1)                  1.5416         0.357988   
      4. B(H   6,C   1)                  1.0903         0.359687   
      5. B(H   7,C   1)                  1.0882         0.362476   
      6. B(C   8,C   5)                  1.5313         0.371812   
      7. B(C   8,O   2)                  1.2010         1.120497   
      8. B(O   9,C   0)                  1.2017         1.117632   
      9. B(N  10,C   5)                  1.4439         0.459126   
     10. B(O  11,C   8)                  1.3362         0.681874   
     11. B(O  11,H   3)                  0.9708         0.499714   
     12. B(H  12,N  10)                  1.0169         0.421928   
     13. B(H  12,O   9)                  2.2097         0.010000   
     14. B(H  13,O   4)                  0.9710         0.499284   
     15. B(H  14,C   5)                  1.0994         0.347872   
     16. B(H  15,N  10)                  1.0151         0.424649   
     17. A(C   1,C   0,O   9)          125.5211         0.443584   
     18. A(C   1,C   0,O   4)          111.9779         0.405999   
     19. A(O   4,C   0,O   9)          122.4912         0.485193   
     20. A(C   5,C   1,H   7)          110.4496         0.322407   
     21. A(C   0,C   1,H   6)          108.9891         0.328235   
     22. A(H   6,C   1,H   7)          110.6893         0.291088   
     23. A(C   5,C   1,H   6)          107.6521         0.321999   
     24. A(C   0,C   1,C   5)          109.7609         0.365312   
     25. A(C   0,C   1,H   7)          109.2709         0.328654   
     26. A(C   0,O   4,H  13)          110.7563         0.373550   
     27. A(C   8,C   5,N  10)          113.3901         0.373789   
     28. A(C   1,C   5,N  10)          110.6053         0.371357   
     29. A(N  10,C   5,H  14)          108.4439         0.331628   
     30. A(C   8,C   5,H  14)          106.6168         0.322236   
     31. A(C   1,C   5,H  14)          108.3173         0.320245   
     32. A(C   1,C   5,C   8)          109.2725         0.360427   
     33. A(C   5,C   8,O  11)          112.2891         0.400460   
     34. A(O   2,C   8,O  11)          123.1642         0.485505   
     35. A(O   2,C   8,C   5)          124.5362         0.437517   
     36. A(H  12,N  10,H  15)          107.0715         0.301133   
     37. A(C   5,N  10,H  15)          109.9472         0.339873   
     38. A(C   5,N  10,H  12)          109.7353         0.339509   
     39. A(H   3,O  11,C   8)          110.7269         0.373664   
     40. D(H   6,C   1,C   0,O   9)     56.2568         0.012005   
     41. D(C   5,C   1,C   0,O   9)    -61.4131         0.012005   
     42. D(H   6,C   1,C   0,O   4)   -124.8586         0.012005   
     43. D(C   5,C   1,C   0,O   4)    117.4714         0.012005   
     44. D(H   7,C   1,C   0,O   4)     -3.7861         0.012005   
     45. D(H  13,O   4,C   0,O   9)     -0.2908         0.034579   
     46. D(H  13,O   4,C   0,C   1)   -179.2145         0.034579   
     47. D(N  10,C   5,C   1,H   7)   -168.8827         0.010290   
     48. D(N  10,C   5,C   1,H   6)    -47.9285         0.010290   
     49. D(N  10,C   5,C   1,C   0)     70.5712         0.010290   
     50. D(C   8,C   5,C   1,H   7)     65.6130         0.010290   
     51. D(C   8,C   5,C   1,H   6)   -173.4328         0.010290   
     52. D(C   8,C   5,C   1,C   0)    -54.9331         0.010290   
     53. D(O   2,C   8,C   5,N  10)     -1.2150         0.010345   
     54. D(O   2,C   8,C   5,C   1)    122.6639         0.010345   
     55. D(O  11,C   8,C   5,N  10)    177.6388         0.010345   
     56. D(O  11,C   8,C   5,C   1)    -58.4824         0.010345   
     57. D(O   2,C   8,C   5,H  14)   -120.4771         0.010345   
     58. D(H  15,N  10,C   5,C   1)   -165.7643         0.017993   
     59. D(H  12,N  10,C   5,H  14)   -166.8905         0.017993   
     60. D(H  12,N  10,C   5,C   8)     74.9000         0.017993   
     61. D(H  15,N  10,C   5,C   8)    -42.6155         0.017993   
     62. D(H  12,N  10,C   5,C   1)    -48.2488         0.017993   
     63. D(H   3,O  11,C   8,C   5)   -179.6859         0.034648   
     64. D(H   3,O  11,C   8,O   2)     -0.8139         0.034648   
    -----------------------------------------------------------------

Number of atoms                         .... 16
Number of degrees of freedom            .... 64


         *************************************************************
         *                GEOMETRY OPTIMIZATION CYCLE   1            *
         *************************************************************
---------------------------------
CARTESIAN COORDINATES (ANGSTROEM)
---------------------------------
  C     -4.174469    1.174778    1.285479
  C     -3.872997    1.174080   -0.193953
  O     -2.393195    4.133374    0.858207
  H     -4.385099    4.896165   -0.101319
  O     -5.411787    1.608987    1.543584
  C     -2.712892    2.145206   -0.489931
  H     -3.551689    0.175153   -0.490073
  H     -4.765296    1.469301   -0.742448
  C     -3.060314    3.530728    0.061856
  O     -3.409856    0.850511    2.153981
  N     -1.468273    1.620557    0.020387
  O     -4.189240    4.016574   -0.462470
  H     -1.594764    1.308932    0.980027
  H     -5.582374    1.613857    2.499514
  H     -2.623326    2.254404   -1.580226
  H     -0.764239    2.351716    0.034843

----------------------------
CARTESIAN COORDINATES (A.U.)
----------------------------
  NO LB      ZA    FRAG     MASS         X           Y           Z
   0 C     6.0000    0    12.011   -7.888604    2.220009    2.429203
   1 C     6.0000    0    12.011   -7.318904    2.218690   -0.366517
   2 O     8.0000    0    15.999   -4.522483    7.810945    1.621776
   3 H     1.0000    0     1.008   -8.286636    9.252411   -0.191466
   4 O     8.0000    0    15.999  -10.226795    3.040544    2.916952
   5 C     6.0000    0    12.011   -5.126622    4.053852   -0.925835
   6 H     1.0000    0     1.008   -6.711719    0.330991   -0.926103
   7 H     1.0000    0     1.008   -9.005104    2.776576   -1.403024
   8 C     6.0000    0    12.011   -5.783155    6.672109    0.116891
   9 O     8.0000    0    15.999   -6.443693    1.607233    4.070433
  10 N     7.0000    0    14.007   -2.774634    3.062410    0.038527
  11 O     8.0000    0    15.999   -7.916517    7.590225   -0.873941
  12 H     1.0000    0     1.008   -3.013666    2.473523    1.851983
  13 H     1.0000    0     1.008  -10.549157    3.049748    4.723397
  14 H     1.0000    0     1.008   -4.957368    4.260205   -2.986194
  15 H     1.0000    0     1.008   -1.444203    4.444098    0.065844

--------------------------------
INTERNAL COORDINATES (ANGSTROEM)
--------------------------------
 C      0   0   0     0.000000000000     0.00000000     0.00000000
 C      1   0   0     1.509835245361     0.00000000     0.00000000
 O      2   1   0     3.471926871671    77.74663802     0.00000000
 H      3   2   1     2.338850581350    77.91655748   258.69251648
 O      1   2   3     1.336454301787   111.97790322    98.79639003
 C      2   1   3     1.541600959584   109.76093175    18.67501700
 H      2   1   3     1.090312452795   108.98912321   136.34500538
 H      2   1   3     1.088209445301   109.27086541   257.41749590
 C      3   2   1     1.201001321736    30.07257713   223.47079288
 O      1   2   3     1.201698333953   125.52114041   279.91183786
 N      6   2   1     1.443868636128   110.60529879    70.57119705
 O      4   3   2     0.970809192972    71.65750673   338.72151732
 H     11   6   2     1.016867381425   109.73531515   311.75120423
 H      5   1   2     0.971043426640   110.75628303   180.78549382
 H      6   2   1     1.099404481001   108.31729019   189.28978048
 H     11   6   2     1.015117850654   109.94723354   194.23574766

---------------------------
INTERNAL COORDINATES (A.U.)
---------------------------
 C      0   0   0     0.000000000000     0.00000000     0.00000000
 C      1   0   0     2.853175121073     0.00000000     0.00000000
 O      2   1   0     6.560990944460    77.74663802     0.00000000
 H      3   2   1     4.419787066913    77.91655748   258.69251648
 O      1   2   3     2.525532620878   111.97790322    98.79639003
 C      2   1   3     2.913203621404   109.76093175    18.67501700
 H      2   1   3     2.060391936187   108.98912321   136.34500538
 H      2   1   3     2.056417827966   109.27086541   257.41749590
 C      3   2   1     2.269563584558    30.07257713   223.47079288
 O      1   2   3     2.270880746761   125.52114041   279.91183786
 N      6   2   1     2.728516295640   110.60529879    70.57119705
 O      4   3   2     1.834563503010    71.65750673   338.72151732
 H     11   6   2     1.921600865411   109.73531515   311.75120423
 H      5   1   2     1.835006140494   110.75628303   180.78549382
 H      6   2   1     2.077573379497   108.31729019   189.28978048
 H     11   6   2     1.918294731391   109.94723354   194.23574766

---------------------
BASIS SET INFORMATION
---------------------
There are 4 groups of distinct atoms

 Group   1 Type C   : 10s4p1d contracted to 3s2p1d pattern {631/31/1}
 Group   2 Type O   : 10s4p1d contracted to 3s2p1d pattern {631/31/1}
 Group   3 Type H   : 4s1p contracted to 2s1p pattern {31/1}
 Group   4 Type N   : 10s4p1d contracted to 3s2p1d pattern {631/31/1}

Atom   0C    basis set group =>   1
Atom   1C    basis set group =>   1
Atom   2O    basis set group =>   2
Atom   3H    basis set group =>   3
Atom   4O    basis set group =>   2
Atom   5C    basis set group =>   1
Atom   6H    basis set group =>   3
Atom   7H    basis set group =>   3
Atom   8C    basis set group =>   1
Atom   9O    basis set group =>   2
Atom  10N    basis set group =>   4
Atom  11O    basis set group =>   2
Atom  12H    basis set group =>   3
Atom  13H    basis set group =>   3
Atom  14H    basis set group =>   3
Atom  15H    basis set group =>   3
------------------------------------------------------------------------------
                             ORCA STARTUP CALCULATIONS
------------------------------------------------------------------------------
------------------------------------------------------------------------------
                   ___                                                        
                  /   \      - P O W E R E D   B Y -                         
                 /     \                                                     
                 |  |  |   _    _      __       _____    __    __             
                 |  |  |  | |  | |    /  \     |  _  \  |  |  /  |          
                  \  \/   | |  | |   /    \    | | | |  |  | /  /          
                 / \  \   | |__| |  /  /\  \   | |_| |  |  |/  /          
                |  |  |   |  __  | /  /__\  \  |    /   |      \           
                |  |  |   | |  | | |   __   |  |    \   |  |\   \          
                \     /   | |  | | |  |  |  |  | |\  \  |  | \   \       
                 \___/    |_|  |_| |__|  |__|  |_| \__\ |__|  \__/        
                                                                              
                      - O R C A' S   B I G   F R I E N D -                    
                                      &                                       
                       - I N T E G R A L  F E E D E R -                       
                                                                              
 v1 FN, 2020, v2 2021, v3 2022-2024                                           
------------------------------------------------------------------------------


----------------------
SHARK INTEGRAL PACKAGE
----------------------

Number of atoms                             ...     16
Number of basis functions                   ...    161
Number of shells                            ...     75
Maximum angular momentum                    ...      2
Integral batch strategy                     ... SHARK/LIBINT Hybrid
RI-J (if used) integral strategy            ... SPLIT-RIJ (Revised 2003 algorithm where possible)
Printlevel                                  ...      1
Contraction scheme used                     ... SEGMENTED contraction
Prescreening option                         ... SCHWARTZ
   Thresh                                   ... 2.500e-11
   Tcut                                     ... 2.500e-12
   Tpresel                                  ... 2.500e-12 
Coulomb Range Separation                    ... NOT USED
Exchange Range Separation                   ... NOT USED
Multipole approximations                    ... NOT USED
Finite Nucleus Model                        ... NOT USED
CABS basis                                  ... NOT available
Auxiliary Coulomb fitting basis             ... NOT available
Auxiliary J/K fitting basis                 ... NOT available
Auxiliary Correlation fitting basis         ... NOT available
Auxiliary 'external' fitting basis          ... NOT available

Checking pre-screening integrals            ... done (  0.0 sec) Dimension = 75
   => SHARK Basis and OBASIS are compatible. Storing Pre-screening
Shell pair information
Shell pair cut-off parameter TPreSel        ...   2.5e-12
Total number of shell pairs                 ...      2850
Shell pairs after pre-screening             ...      2659
Total number of primitive shell pairs       ...     14745
Primitive shell pairs kept                  ...      9050
          la=0 lb=0:    783 shell pairs
          la=1 lb=0:    948 shell pairs
          la=1 lb=1:    306 shell pairs
          la=2 lb=0:    355 shell pairs
          la=2 lb=1:    222 shell pairs
          la=2 lb=2:     45 shell pairs

Checking whether 4 symmetric matrices of dimension 161 fit in memory
:Max Core in MB      =   4096.00
 MB in use           =      4.90
 MB left             =   4091.10
 MB needed           =      0.40
 Data fit in memory  = YES
Calculating Nuclear repulsion               ... done (  0.0 sec) ENN=    484.296202712098 Eh

Diagonalization of the overlap matrix:
Smallest eigenvalue                        ... 2.977e-03
Time for diagonalization                   ...    0.001 sec
Threshold for overlap eigenvalues          ... 1.000e-07
Number of eigenvalues below threshold      ... 0
Time for construction of square roots      ...    0.000 sec
Total time needed                          ...    0.002 sec

-------------------
DFT GRID GENERATION
-------------------

General Integration Accuracy     IntAcc      ... 4.388
Radial Grid Type                 RadialGrid  ... OptM3 with GC (2021)
Angular Grid (max. ang.)         AngularGrid ... 4 (Lebedev-302)
Angular grid pruning method      GridPruning ... 4 (adaptive)
Weight generation scheme         WeightScheme... mBecke (2022)
Basis function cutoff            BFCut       ... 1.0000e-11
Integration weight cutoff        WCut        ... 1.0000e-14
Partially contracted basis set               ... off
Rotationally invariant grid construction     ... off
Angular grids for H and He will be reduced by one unit

Total number of grid points                  ...    76915
Total number of batches                      ...     1211
Average number of points per batch           ...       63
Average number of grid points per atom       ...     4807
Grids setup in   0.3 sec
Initializing property integral containers    ... done (  0.0 sec)

SHARK setup successfully completed in   0.3 seconds

Maximum memory used throughout the entire STARTUP-calculation: 30.3 MB
-------------------------------------------------------------------------------
                                 ORCA GUESS
                   Start orbitals & Density for SCF / CASSCF
-------------------------------------------------------------------------------

------------
SCF SETTINGS
------------
Hamiltonian:
 Ab initio Hamiltonian  Method          .... Hartree-Fock(GTOs)


General Settings:
 Integral files         IntName         .... 4
 Hartree-Fock type      HFTyp           .... RHF
 Total Charge           Charge          ....    0
 Multiplicity           Mult            ....    1
 Number of Electrons    NEL             ....   70
 Basis Dimension        Dim             ....  161
 Nuclear Repulsion      ENuc            ....    484.2962027121 Eh

Convergence Acceleration:
 AO-DIIS                CNVDIIS         .... on
   Start iteration      DIISMaxIt       ....    12
   Startup error        DIISStart       ....  0.200000
   # of expansion vecs  DIISMaxEq       ....     5
   Bias factor          DIISBfac        ....   1.050
   Max. coefficient     DIISMaxC        ....  10.000
 MO-DIIS                CNVKDIIS        .... off
 Trust-Rad. Augm. Hess. CNVTRAH         .... auto
   Auto Start mean grad. ratio tolernc. ....  1.125000
   Auto Start start iteration           ....    50
   Auto Start num. interpolation iter.  ....    10
   Max. Number of Micro iterations      ....    24
   Max. Number of Macro iterations      .... Maxiter - #DIIS iter
   Number of Davidson start vectors     ....     2
   Converg. threshold    (grad. norm)   ....   1.000e-05
   Grad. Scal. Fac. for Micro threshold ....   0.100
   Minimum threshold for Micro iter.    ....   1.000e-02
   NR start threshold (gradient norm)   ....   1.000e-04
   Initial trust radius                 ....   0.400
   Minimum AH scaling param. (alpha)    ....   1.000
   Maximum AH scaling param. (alpha)    .... 1000.000
   Quad. conv. algorithm                .... NR
   White noise on init. David. guess    .... on
   Maximum white noise                  ....   0.010
   Pseudo random numbers                .... off
   Inactive MOs                         .... canonical
   Orbital update algorithm             .... Taylor
   Preconditioner                       .... Diag
   Full preconditioner red. dimension   ....   250
 SOSCF                 CNVSOSCF           .... on
   Start iteration     SOSCFMaxIt         ....   150
   Startup grad/error  SOSCFStart         ....  0.003300
   Hessian update      SOSCFHessUp        .... L-BFGS
   Autom. constraints  SOSCFAutoConstrain .... off
 Level Shifting         CNVShift        .... on
   Level shift para.    LevelShift      ....    0.2500
   Turn off err/grad.   ShiftErr        ....    0.0010
 Zerner damping         CNVZerner       .... off
 Static damping         CNVDamp         .... on
   Fraction old density DampFac         ....    0.7000
   Max. Damping (<1)    DampMax         ....    0.9800
   Min. Damping (>=0)   DampMin         ....    0.0000
   Turn off err/grad.   DampErr         ....    0.1000

SCF Procedure:
 Maximum # iterations   MaxIter         ....   125
 SCF integral mode      SCFMode         .... Direct
   Integral package                     .... SHARK and LIBINT hybrid scheme
 Reset frequency        DirectResetFreq ....    20
 Integral Threshold     Thresh          ....  2.500e-11 Eh
 Primitive CutOff       TCut            ....  2.500e-12 Eh

Convergence Tolerance:
 Convergence Check Mode ConvCheckMode   .... Total+1el-Energy
 Convergence forced     ConvForced      .... 1
 Energy Change          TolE            ....  1.000e-08 Eh
 1-El. energy change                    ....  1.000e-05 Eh
 Orbital Gradient       TolG            ....  1.000e-05
 Orbital Rotation angle TolX            ....  1.000e-05
 DIIS Error             TolErr          ....  5.000e-07

------------------------------
INITIAL GUESS: MODEL POTENTIAL
------------------------------
Loading Hartree-Fock densities                     ... done
Calculating cut-offs                               ... done
Initializing the effective Hamiltonian             ... done
Setting up the integral package (SHARK)            ... done
Starting the Coulomb interaction                   ... done (   0.0 sec)
Making the grid                                    ... done (   0.1 sec)
Mapping shells                                     ... done
Starting the XC term evaluation                    ... done (   0.0 sec)
Transforming the Hamiltonian                       ... done (   0.0 sec)
Diagonalizing the Hamiltonian                      ... done (   0.0 sec)
Back transforming the eigenvectors                 ... done (   0.0 sec)
Now organizing SCF variables                       ... done
                      ------------------
                      INITIAL GUESS DONE (   0.2 sec)
                      ------------------
             **** ENERGY FILE WAS UPDATED (4.en.tmp) ****
Finished Guess after   0.2 sec
Maximum memory used throughout the entire GUESS-calculation: 9.7 MB

-------------------------------------------------------------------------------------------
                                      ORCA LEAN-SCF
                              memory conserving SCF solver
-------------------------------------------------------------------------------------------

----------------------------------------D-I-I-S--------------------------------------------
Iteration    Energy (Eh)           Delta-E    RMSDP     MaxDP     DIISErr   Damp  Time(sec)
-------------------------------------------------------------------------------------------
               ***  Starting incremental Fock matrix formation  ***
    1    -509.1249331156651010     0.00e+00  2.74e-03  6.44e-02  2.50e-01  0.700   1.3
    2    -509.2610415513824478    -1.36e-01  1.99e-03  4.62e-02  1.53e-01  0.700   1.2
                               ***Turning on AO-DIIS***
    3    -509.3389299004451800    -7.79e-02  1.06e-03  2.06e-02  8.67e-02  0.700   1.2
    4    -509.3880025259322224    -4.91e-02  2.45e-03  4.66e-02  6.14e-02  0.000   1.2
    5    -509.4980274811502454    -1.10e-01  3.38e-04  6.66e-03  6.61e-03  0.000   1.2
                              *** Initializing SOSCF ***
---------------------------------------S-O-S-C-F--------------------------------------
Iteration    Energy (Eh)           Delta-E    RMSDP     MaxDP     MaxGrad    Time(sec)
--------------------------------------------------------------------------------------
    6    -509.4986327361121425    -6.05e-04  1.66e-04  2.18e-03  3.29e-03     1.1
               *** Restarting incremental Fock matrix formation ***
    7    -509.4987812667799858    -1.49e-04  1.09e-04  2.47e-03  1.90e-03     1.3
    8    -509.4988328320943651    -5.16e-05  1.33e-04  1.82e-03  5.38e-04     1.1
    9    -509.4988511525585295    -1.83e-05  2.60e-05  3.81e-04  2.98e-04     1.1
   10    -509.4988533512536719    -2.20e-06  6.42e-06  9.02e-05  5.31e-05     1.1
   11    -509.4988534951000361    -1.44e-07  3.67e-06  6.47e-05  1.45e-05     1.0
   12    -509.4988535201535456    -2.51e-08  6.96e-07  1.81e-05  6.70e-06     0.9
   13    -509.4988535225308510    -2.38e-09  1.95e-07  4.60e-06  1.59e-06     0.8
                 **** Energy Check signals convergence ****

               *****************************************************
               *                     SUCCESS                       *
               *           SCF CONVERGED AFTER  13 CYCLES          *
               *****************************************************

             **** ENERGY FILE WAS UPDATED (4.en.tmp) ****

----------------
TOTAL SCF ENERGY
----------------

Total Energy       :       -509.49885352327914 Eh          -13864.16865 eV

Components:
Nuclear Repulsion  :        484.29620271209757 Eh           13178.36965 eV
Electronic Energy  :       -993.79505623537671 Eh          -27042.53830 eV
One Electron Energy:      -1660.11897941330631 Eh          -45174.13404 eV
Two Electron Energy:        666.32392317792960 Eh           18131.59574 eV

Virial components:
Potential Energy   :      -1018.24539480212161 Eh          -27707.86583 eV
Kinetic Energy     :        508.74654127884241 Eh           13843.69719 eV
Virial Ratio       :          2.00147875647969

---------------
SCF CONVERGENCE
---------------

  Last Energy change         ...    2.3773e-09  Tolerance :   1.0000e-08
  Last MAX-Density change    ...    4.6023e-06  Tolerance :   1.0000e-07
  Last RMS-Density change    ...    1.9466e-07  Tolerance :   5.0000e-09
  Last DIIS Error            ...    3.2891e-03  Tolerance :   5.0000e-07
  Last Orbital Gradient      ...    1.5899e-06  Tolerance :   1.0000e-05
  Last Orbital Rotation      ...    1.7068e-06  Tolerance :   1.0000e-05


----------------
ORBITAL ENERGIES
----------------

  NO   OCC          E(Eh)            E(eV) 
   0   2.0000     -20.626790      -561.2835 
   1   2.0000     -20.625291      -561.2427 
   2   2.0000     -20.564872      -559.5986 
   3   2.0000     -20.562481      -559.5336 
   4   2.0000     -15.542723      -422.9390 
   5   2.0000     -11.399712      -310.2019 
   6   2.0000     -11.390104      -309.9405 
   7   2.0000     -11.291106      -307.2466 
   8   2.0000     -11.259280      -306.3806 
   9   2.0000      -1.480828       -40.2954 
  10   2.0000      -1.476026       -40.1647 
  11   2.0000      -1.374153       -37.3926 
  12   2.0000      -1.370706       -37.2988 
  13   2.0000      -1.201756       -32.7015 
  14   2.0000      -1.057085       -28.7647 
  15   2.0000      -0.946114       -25.7451 
  16   2.0000      -0.851172       -23.1616 
  17   2.0000      -0.801683       -21.8149 
  18   2.0000      -0.723189       -19.6790 
  19   2.0000      -0.716550       -19.4983 
  20   2.0000      -0.705232       -19.1903 
  21   2.0000      -0.687863       -18.7177 
  22   2.0000      -0.674838       -18.3633 
  23   2.0000      -0.643749       -17.5173 
  24   2.0000      -0.626885       -17.0584 
  25   2.0000      -0.603409       -16.4196 
  26   2.0000      -0.595924       -16.2159 
  27   2.0000      -0.564504       -15.3609 
  28   2.0000      -0.555247       -15.1090 
  29   2.0000      -0.527549       -14.3553 
  30   2.0000      -0.490020       -13.3341 
  31   2.0000      -0.484715       -13.1898 
  32   2.0000      -0.459107       -12.4929 
  33   2.0000      -0.455052       -12.3826 
  34   2.0000      -0.399854       -10.8806 
  35   0.0000       0.158574         4.3150 
  36   0.0000       0.184827         5.0294 
  37   0.0000       0.213695         5.8149 
  38   0.0000       0.224484         6.1085 
  39   0.0000       0.250420         6.8143 
  40   0.0000       0.285242         7.7618 
  41   0.0000       0.295106         8.0302 
  42   0.0000       0.316721         8.6184 
  43   0.0000       0.346575         9.4308 
  44   0.0000       0.376610        10.2481 
  45   0.0000       0.417000        11.3472 
*Only the first 10 virtual orbitals were printed.

                    ********************************
                    * MULLIKEN POPULATION ANALYSIS *
                    ********************************

-----------------------
MULLIKEN ATOMIC CHARGES
-----------------------
   0 C :    0.781269
   1 C :   -0.307238
   2 O :   -0.572801
   3 H :    0.375869
   4 O :   -0.629187
   5 C :   -0.036786
   6 H :    0.192212
   7 H :    0.185310
   8 C :    0.774856
   9 O :   -0.576894
  10 N :   -0.697007
  11 O :   -0.632995
  12 H :    0.313252
  13 H :    0.373764
  14 H :    0.171527
  15 H :    0.284850
Sum of atomic charges:   -0.0000000

--------------------------------
MULLIKEN REDUCED ORBITAL CHARGES
--------------------------------
  0 C s       :     2.960387  s :     2.960387
      pz      :     0.862254  p :     2.109388
      px      :     0.616718
      py      :     0.630416
      dz2     :     0.045414  d :     0.148955
      dxz     :     0.032877
      dyz     :     0.016357
      dx2y2   :     0.027521
      dxy     :     0.026785

  1 C s       :     3.260510  s :     3.260510
      pz      :     0.893268  p :     3.001843
      px      :     1.038662
      py      :     1.069913
      dz2     :     0.014885  d :     0.044885
      dxz     :     0.008230
      dyz     :     0.003673
      dx2y2   :     0.008327
      dxy     :     0.009769

  2 O s       :     3.876015  s :     3.876015
      pz      :     1.419834  p :     4.663620
      px      :     1.592067
      py      :     1.651719
      dz2     :     0.010582  d :     0.033166
      dxz     :     0.006442
      dyz     :     0.005521
      dx2y2   :     0.003925
      dxy     :     0.006695

  3 H s       :     0.582521  s :     0.582521
      pz      :     0.010333  p :     0.041610
      px      :     0.007706
      py      :     0.023571

  4 O s       :     3.836270  s :     3.836270
      pz      :     1.466755  p :     4.767295
      px      :     1.497372
      py      :     1.803168
      dz2     :     0.011174  d :     0.025623
      dxz     :     0.001918
      dyz     :     0.000599
      dx2y2   :     0.006187
      dxy     :     0.005744

  5 C s       :     3.212972  s :     3.212972
      pz      :     1.073798  p :     2.752387
      px      :     0.821555
      py      :     0.857034
      dz2     :     0.018403  d :     0.071427
      dxz     :     0.010944
      dyz     :     0.007670
      dx2y2   :     0.015762
      dxy     :     0.018648

  6 H s       :     0.794788  s :     0.794788
      pz      :     0.002253  p :     0.013001
      px      :     0.002493
      py      :     0.008254

  7 H s       :     0.801932  s :     0.801932
      pz      :     0.003454  p :     0.012758
      px      :     0.007082
      py      :     0.002222

  8 C s       :     2.949492  s :     2.949492
      pz      :     0.673255  p :     2.129154
      px      :     0.631146
      py      :     0.824753
      dz2     :     0.027130  d :     0.146499
      dxz     :     0.028005
      dyz     :     0.024556
      dx2y2   :     0.039274
      dxy     :     0.027534

  9 O s       :     3.877362  s :     3.877362
      pz      :     1.582728  p :     4.666807
      px      :     1.600373
      py      :     1.483707
      dz2     :     0.005895  d :     0.032725
      dxz     :     0.009356
      dyz     :     0.007589
      dx2y2   :     0.004765
      dxy     :     0.005120

 10 N s       :     3.600947  s :     3.600947
      pz      :     1.393042  p :     4.062116
      px      :     1.142929
      py      :     1.526145
      dz2     :     0.013189  d :     0.033944
      dxz     :     0.003170
      dyz     :     0.001497
      dx2y2   :     0.003674
      dxy     :     0.012414

 11 O s       :     3.836039  s :     3.836039
      pz      :     1.761962  p :     4.771752
      px      :     1.545322
      py      :     1.464468
      dz2     :     0.003164  d :     0.025204
      dxz     :     0.006095
      dyz     :     0.005066
      dx2y2   :     0.008580
      dxy     :     0.002299

 12 H s       :     0.659793  s :     0.659793
      pz      :     0.015528  p :     0.026954
      px      :     0.003832
      py      :     0.007594

 13 H s       :     0.584810  s :     0.584810
      pz      :     0.026127  p :     0.041426
      px      :     0.006932
      py      :     0.008367

 14 H s       :     0.816259  s :     0.816259
      pz      :     0.009306  p :     0.012214
      px      :     0.001248
      py      :     0.001659

 15 H s       :     0.688967  s :     0.688967
      pz      :     0.004992  p :     0.026183
      px      :     0.010436
      py      :     0.010755



                     *******************************
                     * LOEWDIN POPULATION ANALYSIS *
                     *******************************

----------------------
LOEWDIN ATOMIC CHARGES
----------------------
   0 C :    0.241034
   1 C :   -0.124876
   2 O :   -0.295515
   3 H :    0.203582
   4 O :   -0.202248
   5 C :   -0.014553
   6 H :    0.103268
   7 H :    0.094572
   8 C :    0.217264
   9 O :   -0.302050
  10 N :   -0.280596
  11 O :   -0.207916
  12 H :    0.142242
  13 H :    0.202625
  14 H :    0.087183
  15 H :    0.135985

-------------------------------
LOEWDIN REDUCED ORBITAL CHARGES
-------------------------------
  0 C s       :     2.839510  s :     2.839510
      pz      :     1.033908  p :     2.599038
      px      :     0.871638
      py      :     0.693492
      dz2     :     0.098384  d :     0.320419
      dxz     :     0.070674
      dyz     :     0.031848
      dx2y2   :     0.060933
      dxy     :     0.058579

  1 C s       :     2.897260  s :     2.897260
      pz      :     1.008471  p :     3.142780
      px      :     1.059904
      py      :     1.074405
      dz2     :     0.029749  d :     0.084836
      dxz     :     0.016020
      dyz     :     0.007386
      dx2y2   :     0.014119
      dxy     :     0.017561

  2 O s       :     3.547114  s :     3.547114
      pz      :     1.446692  p :     4.690462
      px      :     1.593608
      py      :     1.650162
      dz2     :     0.011974  d :     0.057938
      dxz     :     0.014263
      dyz     :     0.012930
      dx2y2   :     0.007442
      dxy     :     0.011329

  3 H s       :     0.675926  s :     0.675926
      pz      :     0.031935  p :     0.120492
      px      :     0.023379
      py      :     0.065177

  4 O s       :     3.458988  s :     3.458988
      pz      :     1.435898  p :     4.694975
      px      :     1.500786
      py      :     1.758292
      dz2     :     0.018580  d :     0.048285
      dxz     :     0.008255
      dyz     :     0.001060
      dx2y2   :     0.010991
      dxy     :     0.009399

  5 C s       :     2.868614  s :     2.868614
      pz      :     1.056389  p :     3.003335
      px      :     0.961641
      py      :     0.985305
      dz2     :     0.034542  d :     0.142604
      dxz     :     0.021307
      dyz     :     0.015189
      dx2y2   :     0.032762
      dxy     :     0.038804

  6 H s       :     0.854648  s :     0.854648
      pz      :     0.007885  p :     0.042084
      px      :     0.008865
      py      :     0.025334

  7 H s       :     0.863059  s :     0.863059
      pz      :     0.012042  p :     0.042369
      px      :     0.021829
      py      :     0.008498

  8 C s       :     2.849986  s :     2.849986
      pz      :     0.820884  p :     2.614559
      px      :     0.836057
      py      :     0.957617
      dz2     :     0.052706  d :     0.318191
      dxz     :     0.067371
      dyz     :     0.053044
      dx2y2   :     0.088025
      dxy     :     0.057046

  9 O s       :     3.546548  s :     3.546548
      pz      :     1.620703  p :     4.697941
      px      :     1.612076
      py      :     1.465162
      dz2     :     0.012142  d :     0.057561
      dxz     :     0.020360
      dyz     :     0.010002
      dx2y2   :     0.007444
      dxy     :     0.007613

 10 N s       :     3.181010  s :     3.181010
      pz      :     1.365533  p :     4.039474
      px      :     1.182513
      py      :     1.491428
      dz2     :     0.019859  d :     0.060113
      dxz     :     0.007367
      dyz     :     0.003406
      dx2y2   :     0.008059
      dxy     :     0.021422

 11 O s       :     3.455938  s :     3.455938
      pz      :     1.727583  p :     4.703858
      px      :     1.542726
      py      :     1.433548
      dz2     :     0.005486  d :     0.048121
      dxz     :     0.010382
      dyz     :     0.007510
      dx2y2   :     0.015210
      dxy     :     0.009533

 12 H s       :     0.771896  s :     0.771896
      pz      :     0.049086  p :     0.085863
      px      :     0.012685
      py      :     0.024092

 13 H s       :     0.677373  s :     0.677373
      pz      :     0.072521  p :     0.120002
      px      :     0.021397
      py      :     0.026084

 14 H s       :     0.873457  s :     0.873457
      pz      :     0.027844  p :     0.039360
      px      :     0.005409
      py      :     0.006107

 15 H s       :     0.781833  s :     0.781833
      pz      :     0.016083  p :     0.082182
      px      :     0.031356
      py      :     0.034742



                      *****************************
                      * MAYER POPULATION ANALYSIS *
                      *****************************

  NA   - Mulliken gross atomic population
  ZA   - Total nuclear charge
  QA   - Mulliken gross atomic charge
  VA   - Mayer's total valence
  BVA  - Mayer's bonded valence
  FA   - Mayer's free valence

  ATOM       NA         ZA         QA         VA         BVA        FA
  0 C      5.2187     6.0000     0.7813     3.7058     3.7058    -0.0000
  1 C      6.3072     6.0000    -0.3072     3.7301     3.7301    -0.0000
  2 O      8.5728     8.0000    -0.5728     1.9111     1.9111    -0.0000
  3 H      0.6241     1.0000     0.3759     0.8690     0.8690    -0.0000
  4 O      8.6292     8.0000    -0.6292     1.8494     1.8494    -0.0000
  5 C      6.0368     6.0000    -0.0368     3.7868     3.7868    -0.0000
  6 H      0.8078     1.0000     0.1922     0.9398     0.9398     0.0000
  7 H      0.8147     1.0000     0.1853     0.9406     0.9406     0.0000
  8 C      5.2251     6.0000     0.7749     3.6884     3.6884    -0.0000
  9 O      8.5769     8.0000    -0.5769     1.8844     1.8844     0.0000
 10 N      7.6970     7.0000    -0.6970     2.7509     2.7509    -0.0000
 11 O      8.6330     8.0000    -0.6330     1.8181     1.8181    -0.0000
 12 H      0.6867     1.0000     0.3133     0.8994     0.8994     0.0000
 13 H      0.6262     1.0000     0.3738     0.8701     0.8701     0.0000
 14 H      0.8285     1.0000     0.1715     0.9357     0.9357    -0.0000
 15 H      0.7152     1.0000     0.2848     0.9062     0.9062    -0.0000

  Mayer bond orders larger than 0.100000
B(  0-C ,  1-C ) :   0.9261 B(  0-C ,  4-O ) :   0.9893 B(  0-C ,  9-O ) :   1.8030 
B(  1-C ,  5-C ) :   0.9590 B(  1-C ,  6-H ) :   0.9519 B(  1-C ,  7-H ) :   0.9523 
B(  2-O ,  8-C ) :   1.8391 B(  3-H , 11-O ) :   0.8376 B(  4-O , 13-H ) :   0.8389 
B(  5-C ,  8-C ) :   0.9091 B(  5-C , 10-N ) :   1.0018 B(  5-C , 14-H ) :   0.9549 
B(  8-C , 11-O ) :   0.9646 B( 10-N , 12-H ) :   0.8717 B( 10-N , 15-H ) :   0.9023 


-------
TIMINGS
-------

Total SCF time: 0 days 0 hours 0 min 15 sec 

Total time                  ....      15.235 sec
Sum of individual times     ....      14.507 sec  ( 95.2%)

SCF preparation             ....       0.016 sec  (  0.1%)
Fock matrix formation       ....      14.451 sec  ( 94.9%)
  Startup                   ....       0.001 sec  (  0.0% of F)
  Coulomb+Exchange Fock     ....      15.166 sec  (104.9% of F)
Diagonalization             ....       0.000 sec  (  0.0%)
Density matrix formation    ....       0.003 sec  (  0.0%)
Total Energy calculation    ....       0.001 sec  (  0.0%)
Population analysis         ....       0.002 sec  (  0.0%)
Orbital Transformation      ....       0.004 sec  (  0.0%)
Orbital Orthonormalization  ....       0.000 sec  (  0.0%)
DIIS solution               ....       0.018 sec  (  0.1%)
SOSCF solution              ....       0.011 sec  (  0.1%)
Finished LeanSCF after  15.2 sec

Maximum memory used throughout the entire LEANSCF-calculation: 13.3 MB

------------------------------------------------------------------------------
                                ORCA  MP2 
------------------------------------------------------------------------------

Freezing NCore=18 chemical core electrons
MP2 will be done in the AO integral direct mode
The Q1-step will be done using symmetric double matrices
Dimension of the basis                    ...  161
Memory devoted for MP2                    ... 4096 MB   
Memory needed for all in one shot         ...  417 MB
Number of MOs that can be treated together...  254      
MP2 density construction                  ... relaxed
The MP2 gradient is requested => amplitudes will be stored on disk
Total number of MOs              ...   26
Number of MOs treated per batch  ...   26 
Number of batches necessary      ...    1 
OPERATORS   0/  0 PASS   0
-----------------------------------------------
 MP2 CORRELATION ENERGY   :     -1.403031864 Eh
-----------------------------------------------


---------------------
MP2 DENSITY FORMATION
---------------------

Completing the external part of the density      ... done
Storing the unrelaxed density                    ... done

Calculating G(D)                                 ... done
Completing the Lagrangian                        ... done
Solving the Z-vector equations                   ... 
-------------------
SHARK CP-SCF DRIVER
-------------------

Dimension of the orbital basis          ...    161
Dimension of the CPSCF-problem          ...   4410
Number of operators                     ...      1
Max. number of iterations               ...    128
Convergence Tolerance                   ... 1.0e-04
Number of perturbations                 ...      1
Perturbation type                       ... REAL

----------------------------
POPLE LINEAR EQUATION SOLVER
----------------------------

  ITERATION   0:   ||err||_max =   1.6316e-01 (   1.6 sec)
  ITERATION   1:   ||err||_max =   4.0354e-02 (   1.6 sec)
  ITERATION   2:   ||err||_max =   1.8041e-02 (   1.7 sec)
  ITERATION   3:   ||err||_max =   4.3872e-03 (   1.6 sec)
  ITERATION   4:   ||err||_max =   1.3439e-03 (   1.7 sec)
  ITERATION   5:   ||err||_max =   3.6474e-04 (   1.6 sec)
  ITERATION   6:   ||err||_max =   1.2219e-04 (   1.6 sec)
  ITERATION   7:   ||err||_max =   4.6571e-05 (   1.6 sec)
                                                 ... done
Finalizing the relaxed density                   ... done
Transforming P to the AO basis                   ... done
Storing the relaxed density                      ... done

------------------------------------
ENERGY WEIGHTED DENSITY FINALIZATION
------------------------------------

Gathering the parts of the W-matrix              ...                                                      done
Forming the Z-density                            ... done
Transforming Z to the AO basis                   ... done
Calculating G(Z)                                 ... done
Finalizing the W-matrix                          ...                                                      done
Transforming W to the AO basis and storing       ... done

                *********************************************
                * UNRELAXED MP2 DENSITY POPULATION ANALYSIS *
                *********************************************

------------------------------------------------------------------------------
                           ORCA POPULATION ANALYSIS
------------------------------------------------------------------------------
Input electron density              ... 4.pmp2ur
BaseName (.gbw .S,...)              ... 4

                    ********************************
                    * MULLIKEN POPULATION ANALYSIS *
                    ********************************

-----------------------
MULLIKEN ATOMIC CHARGES
-----------------------
   0 C :    0.748330
   1 C :   -0.307839
   2 O :   -0.549776
   3 H :    0.372677
   4 O :   -0.615420
   5 C :   -0.042509
   6 H :    0.192534
   7 H :    0.185643
   8 C :    0.741578
   9 O :   -0.553941
  10 N :   -0.689079
  11 O :   -0.619307
  12 H :    0.311008
  13 H :    0.370578
  14 H :    0.172145
  15 H :    0.283377
Sum of atomic charges:   -0.0000000

--------------------------------
MULLIKEN REDUCED ORBITAL CHARGES
--------------------------------
  0 C s       :     2.961858  s :     2.961858
      pz      :     0.860440  p :     2.130442
      px      :     0.623989
      py      :     0.646014
      dz2     :     0.047600  d :     0.159370
      dxz     :     0.035161
      dyz     :     0.018747
      dx2y2   :     0.029269
      dxy     :     0.028594
  1 C s       :     3.257237  s :     3.257237
      pz      :     0.890951  p :     2.989034
      px      :     1.033639
      py      :     1.064444
      dz2     :     0.017685  d :     0.061568
      dxz     :     0.011682
      dyz     :     0.007389
      dx2y2   :     0.011854
      dxy     :     0.012959
  2 O s       :     3.871357  s :     3.871357
      pz      :     1.406990  p :     4.623752
      px      :     1.578824
      py      :     1.637937
      dz2     :     0.014747  d :     0.054668
      dxz     :     0.010601
      dyz     :     0.009799
      dx2y2   :     0.008558
      dxy     :     0.010963
  3 H s       :     0.584581  s :     0.584581
      pz      :     0.010891  p :     0.042742
      px      :     0.008271
      py      :     0.023580
  4 O s       :     3.832069  s :     3.832069
      pz      :     1.458041  p :     4.734850
      px      :     1.487225
      py      :     1.789583
      dz2     :     0.015568  d :     0.048501
      dxz     :     0.006596
      dyz     :     0.005202
      dx2y2   :     0.010741
      dxy     :     0.010394
  5 C s       :     3.209963  s :     3.209963
      pz      :     1.069540  p :     2.745702
      px      :     0.820593
      py      :     0.855569
      dz2     :     0.021390  d :     0.086844
      dxz     :     0.014131
      dyz     :     0.010933
      dx2y2   :     0.018789
      dxy     :     0.021600
  6 H s       :     0.791892  s :     0.791892
      pz      :     0.003229  p :     0.015574
      px      :     0.003452
      py      :     0.008893
  7 H s       :     0.798978  s :     0.798978
      pz      :     0.004374  p :     0.015380
      px      :     0.007797
      py      :     0.003209
  8 C s       :     2.951211  s :     2.951211
      pz      :     0.682979  p :     2.150129
      px      :     0.640198
      py      :     0.826953
      dz2     :     0.028998  d :     0.157081
      dxz     :     0.029904
      dyz     :     0.026896
      dx2y2   :     0.041560
      dxy     :     0.029723
  9 O s       :     3.872798  s :     3.872798
      pz      :     1.571001  p :     4.626745
      px      :     1.587793
      py      :     1.467951
      dz2     :     0.010547  d :     0.054398
      dxz     :     0.013491
      dyz     :     0.011840
      dx2y2   :     0.009093
      dxy     :     0.009427
 10 N s       :     3.596386  s :     3.596386
      pz      :     1.384339  p :     4.036684
      px      :     1.136757
      py      :     1.515588
      dz2     :     0.017485  d :     0.056008
      dxz     :     0.007596
      dyz     :     0.006114
      dx2y2   :     0.008134
      dxy     :     0.016678
 11 O s       :     3.831842  s :     3.831842
      pz      :     1.749382  p :     4.739212
      px      :     1.534579
      py      :     1.455251
      dz2     :     0.007788  d :     0.048254
      dxz     :     0.010642
      dyz     :     0.009637
      dx2y2   :     0.013220
      dxy     :     0.006967
 12 H s       :     0.660093  s :     0.660093
      pz      :     0.015830  p :     0.028899
      px      :     0.004709
      py      :     0.008360
 13 H s       :     0.586863  s :     0.586863
      pz      :     0.026056  p :     0.042559
      px      :     0.007504
      py      :     0.008999
 14 H s       :     0.812974  s :     0.812974
      pz      :     0.009921  p :     0.014880
      px      :     0.002262
      py      :     0.002698
 15 H s       :     0.688453  s :     0.688453
      pz      :     0.005847  p :     0.028169
      px      :     0.010960
      py      :     0.011362


                     *******************************
                     * LOEWDIN POPULATION ANALYSIS *
                     *******************************

----------------------
LOEWDIN ATOMIC CHARGES
----------------------
   0 C :    0.216888
   1 C :   -0.125280
   2 O :   -0.276984
   3 H :    0.201241
   4 O :   -0.193394
   5 C :   -0.018484
   6 H :    0.103219
   7 H :    0.094593
   8 C :    0.193204
   9 O :   -0.283359
  10 N :   -0.276144
  11 O :   -0.199298
  12 H :    0.141036
  13 H :    0.200306
  14 H :    0.087300
  15 H :    0.135157

-------------------------------
LOEWDIN REDUCED ORBITAL CHARGES
-------------------------------
  0 C s       :     2.840296  s :     2.840296
      pz      :     1.029610  p :     2.611088
      px      :     0.874486
      py      :     0.706992
      dz2     :     0.100371  d :     0.331728
      dxz     :     0.073590
      dyz     :     0.034362
      dx2y2   :     0.062917
      dxy     :     0.060488
  1 C s       :     2.896920  s :     2.896920
      pz      :     1.003329  p :     3.124179
      px      :     1.053224
      py      :     1.067626
      dz2     :     0.033262  d :     0.104181
      dxz     :     0.019958
      dyz     :     0.011425
      dx2y2   :     0.018129
      dxy     :     0.021406
  2 O s       :     3.544079  s :     3.544079
      pz      :     1.433807  p :     4.650892
      px      :     1.580553
      py      :     1.636531
      dz2     :     0.016635  d :     0.082013
      dxz     :     0.019188
      dyz     :     0.017828
      dx2y2   :     0.012176
      dxy     :     0.016186
  3 H s       :     0.675837  s :     0.675837
      pz      :     0.032712  p :     0.122923
      px      :     0.024063
      py      :     0.066147
  4 O s       :     3.457026  s :     3.457026
      pz      :     1.427272  p :     4.663709
      px      :     1.491191
      py      :     1.745246
      dz2     :     0.023678  d :     0.072659
      dxz     :     0.012908
      dyz     :     0.005537
      dx2y2   :     0.016087
      dxy     :     0.014449
  5 C s       :     2.869015  s :     2.869015
      pz      :     1.050799  p :     2.989078
      px      :     0.957423
      py      :     0.980856
      dz2     :     0.038262  d :     0.160391
      dxz     :     0.024799
      dyz     :     0.018827
      dx2y2   :     0.036181
      dxy     :     0.042323
  6 H s       :     0.850262  s :     0.850262
      pz      :     0.009199  p :     0.046519
      px      :     0.010178
      py      :     0.027142
  7 H s       :     0.858523  s :     0.858523
      pz      :     0.013517  p :     0.046884
      px      :     0.023550
      py      :     0.009816
  8 C s       :     2.850727  s :     2.850727
      pz      :     0.828178  p :     2.626385
      px      :     0.841105
      py      :     0.957101
      dz2     :     0.054373  d :     0.329684
      dxz     :     0.069947
      dyz     :     0.055933
      dx2y2   :     0.089840
      dxy     :     0.059590
  9 O s       :     3.543490  s :     3.543490
      pz      :     1.608506  p :     4.658053
      px      :     1.599433
      py      :     1.450114
      dz2     :     0.017047  d :     0.081816
      dxz     :     0.025701
      dyz     :     0.014717
      dx2y2   :     0.012089
      dxy     :     0.012261
 10 N s       :     3.179258  s :     3.179258
      pz      :     1.356711  p :     4.012709
      px      :     1.175192
      py      :     1.480805
      dz2     :     0.024844  d :     0.084177
      dxz     :     0.011973
      dyz     :     0.008201
      dx2y2   :     0.012751
      dxy     :     0.026408
 11 O s       :     3.454034  s :     3.454034
      pz      :     1.715551  p :     4.672578
      px      :     1.532524
      py      :     1.424503
      dz2     :     0.010228  d :     0.072686
      dxz     :     0.015353
      dyz     :     0.012318
      dx2y2   :     0.020371
      dxy     :     0.014416
 12 H s       :     0.769548  s :     0.769548
      pz      :     0.050666  p :     0.089416
      px      :     0.013775
      py      :     0.024975
 13 H s       :     0.677264  s :     0.677264
      pz      :     0.073622  p :     0.122430
      px      :     0.022097
      py      :     0.026711
 14 H s       :     0.868617  s :     0.868617
      pz      :     0.029819  p :     0.044083
      px      :     0.006791
      py      :     0.007474
 15 H s       :     0.779012  s :     0.779012
      pz      :     0.017031  p :     0.085831
      px      :     0.032640
      py      :     0.036161


                      *****************************
                      * MAYER POPULATION ANALYSIS *
                      *****************************

  NA   - Mulliken gross atomic population
  ZA   - Total nuclear charge
  QA   - Mulliken gross atomic charge
  VA   - Mayer's total valence
  BVA  - Mayer's bonded valence
  FA   - Mayer's free valence

  ATOM       NA         ZA         QA         VA         BVA        FA
  0 C      5.2517     6.0000     0.7483     3.7683     3.4800     0.2883
  1 C      6.3078     6.0000    -0.3078     3.8203     3.5511     0.2691
  2 O      8.5498     8.0000    -0.5498     2.1743     1.7761     0.3982
  3 H      0.6273     1.0000     0.3727     0.8758     0.8319     0.0439
  4 O      8.6154     8.0000    -0.6154     2.1073     1.7503     0.3569
  5 C      6.0425     6.0000    -0.0425     3.8614     3.5819     0.2795
  6 H      0.8075     1.0000     0.1925     0.9473     0.9013     0.0461
  7 H      0.8144     1.0000     0.1856     0.9484     0.9026     0.0458
  8 C      5.2584     6.0000     0.7416     3.7522     3.4594     0.2928
  9 O      8.5539     8.0000    -0.5539     2.1497     1.7516     0.3981
 10 N      7.6891     7.0000    -0.6891     2.9448     2.6196     0.3253
 11 O      8.6193     8.0000    -0.6193     2.0769     1.7209     0.3560
 12 H      0.6890     1.0000     0.3110     0.9067     0.8621     0.0446
 13 H      0.6294     1.0000     0.3706     0.8769     0.8329     0.0441
 14 H      0.8279     1.0000     0.1721     0.9437     0.8958     0.0480
 15 H      0.7166     1.0000     0.2834     0.9133     0.8679     0.0453

  Mayer bond orders larger than 0.100000
B(  0-C ,  1-C ) :   0.8775 B(  0-C ,  4-O ) :   0.9348 B(  0-C ,  9-O ) :   1.6838 
B(  1-C ,  5-C ) :   0.9051 B(  1-C ,  6-H ) :   0.9157 B(  1-C ,  7-H ) :   0.9161 
B(  2-O ,  8-C ) :   1.7178 B(  3-H , 11-O ) :   0.8030 B(  4-O , 13-H ) :   0.8042 
B(  5-C ,  8-C ) :   0.8591 B(  5-C , 10-N ) :   0.9451 B(  5-C , 14-H ) :   0.9177 
B(  8-C , 11-O ) :   0.9112 B( 10-N , 12-H ) :   0.8366 B( 10-N , 15-H ) :   0.8659 



                *******************************************
                * RELAXED MP2 DENSITY POPULATION ANALYSIS *
                *******************************************

------------------------------------------------------------------------------
                           ORCA POPULATION ANALYSIS
------------------------------------------------------------------------------
Input electron density              ... 4.pmp2re
BaseName (.gbw .S,...)              ... 4

                    ********************************
                    * MULLIKEN POPULATION ANALYSIS *
                    ********************************

-----------------------
MULLIKEN ATOMIC CHARGES
-----------------------
   0 C :    0.566944
   1 C :   -0.294077
   2 O :   -0.422912
   3 H :    0.346223
   4 O :   -0.515797
   5 C :   -0.052136
   6 H :    0.175371
   7 H :    0.166454
   8 C :    0.553512
   9 O :   -0.425394
  10 N :   -0.625650
  11 O :   -0.520344
  12 H :    0.283888
  13 H :    0.344466
  14 H :    0.154925
  15 H :    0.264527
Sum of atomic charges:   -0.0000000

--------------------------------
MULLIKEN REDUCED ORBITAL CHARGES
--------------------------------
  0 C s       :     2.977873  s :     2.977873
      pz      :     0.872596  p :     2.305395
      px      :     0.682708
      py      :     0.750090
      dz2     :     0.044761  d :     0.149788
      dxz     :     0.032855
      dyz     :     0.017042
      dx2y2   :     0.027876
      dxy     :     0.027255
  1 C s       :     3.235837  s :     3.235837
      pz      :     0.925613  p :     3.002596
      px      :     1.025121
      py      :     1.051861
      dz2     :     0.014759  d :     0.055644
      dxz     :     0.010921
      dyz     :     0.007592
      dx2y2   :     0.011187
      dxy     :     0.011186
  2 O s       :     3.845441  s :     3.845441
      pz      :     1.379022  p :     4.525694
      px      :     1.545823
      py      :     1.600849
      dz2     :     0.013283  d :     0.051777
      dxz     :     0.010129
      dyz     :     0.009550
      dx2y2   :     0.008806
      dxy     :     0.010010
  3 H s       :     0.612881  s :     0.612881
      pz      :     0.010919  p :     0.040896
      px      :     0.008568
      py      :     0.021409
  4 O s       :     3.814370  s :     3.814370
      pz      :     1.429020  p :     4.654423
      px      :     1.476590
      py      :     1.748813
      dz2     :     0.014410  d :     0.047005
      dxz     :     0.007066
      dyz     :     0.005270
      dx2y2   :     0.010165
      dxy     :     0.010094
  5 C s       :     3.188873  s :     3.188873
      pz      :     1.055642  p :     2.783452
      px      :     0.837400
      py      :     0.890410
      dz2     :     0.019722  d :     0.079810
      dxz     :     0.013215
      dyz     :     0.010062
      dx2y2   :     0.017062
      dxy     :     0.019748
  6 H s       :     0.809844  s :     0.809844
      pz      :     0.003355  p :     0.014785
      px      :     0.003542
      py      :     0.007889
  7 H s       :     0.818955  s :     0.818955
      pz      :     0.004257  p :     0.014591
      px      :     0.006991
      py      :     0.003343
  8 C s       :     2.972759  s :     2.972759
      pz      :     0.754500  p :     2.326228
      px      :     0.708011
      py      :     0.863718
      dz2     :     0.026066  d :     0.147501
      dxz     :     0.028781
      dyz     :     0.025604
      dx2y2   :     0.039641
      dxy     :     0.027408
  9 O s       :     3.849402  s :     3.849402
      pz      :     1.553149  p :     4.524395
      px      :     1.556960
      py      :     1.414287
      dz2     :     0.010885  d :     0.051597
      dxz     :     0.012137
      dyz     :     0.010805
      dx2y2   :     0.008760
      dxy     :     0.009009
 10 N s       :     3.576605  s :     3.576605
      pz      :     1.360840  p :     3.995986
      px      :     1.136789
      py      :     1.498358
      dz2     :     0.016455  d :     0.053059
      dxz     :     0.007213
      dyz     :     0.006178
      dx2y2   :     0.007863
      dxy     :     0.015350
 11 O s       :     3.815004  s :     3.815004
      pz      :     1.716970  p :     4.658517
      px      :     1.516647
      py      :     1.424899
      dz2     :     0.007974  d :     0.046824
      dxz     :     0.010131
      dyz     :     0.009219
      dx2y2   :     0.012433
      dxy     :     0.007067
 12 H s       :     0.688463  s :     0.688463
      pz      :     0.014100  p :     0.027650
      px      :     0.005080
      py      :     0.008469
 13 H s       :     0.614847  s :     0.614847
      pz      :     0.023498  p :     0.040687
      px      :     0.007853
      py      :     0.009336
 14 H s       :     0.831018  s :     0.831018
      pz      :     0.008669  p :     0.014056
      px      :     0.002421
      py      :     0.002967
 15 H s       :     0.708438  s :     0.708438
      pz      :     0.006193  p :     0.027035
      px      :     0.010149
      py      :     0.010693


                     *******************************
                     * LOEWDIN POPULATION ANALYSIS *
                     *******************************

----------------------
LOEWDIN ATOMIC CHARGES
----------------------
   0 C :    0.138829
   1 C :   -0.141065
   2 O :   -0.208106
   3 H :    0.190916
   4 O :   -0.157033
   5 C :   -0.036925
   6 H :    0.101745
   7 H :    0.094269
   8 C :    0.115503
   9 O :   -0.212932
  10 N :   -0.264923
  11 O :   -0.164216
  12 H :    0.134657
  13 H :    0.190202
  14 H :    0.087032
  15 H :    0.132047

-------------------------------
LOEWDIN REDUCED ORBITAL CHARGES
-------------------------------
  0 C s       :     2.842561  s :     2.842561
      pz      :     1.018573  p :     2.693977
      px      :     0.889734
      py      :     0.785670
      dz2     :     0.098901  d :     0.324633
      dxz     :     0.072634
      dyz     :     0.031856
      dx2y2   :     0.061886
      dxy     :     0.059355
  1 C s       :     2.900071  s :     2.900071
      pz      :     1.021026  p :     3.142608
      px      :     1.055105
      py      :     1.066477
      dz2     :     0.029791  d :     0.098386
      dxz     :     0.019138
      dyz     :     0.011964
      dx2y2   :     0.017771
      dxy     :     0.019722
  2 O s       :     3.546337  s :     3.546337
      pz      :     1.412035  p :     4.580249
      px      :     1.558131
      py      :     1.610084
      dz2     :     0.016634  d :     0.081520
      dxz     :     0.018870
      dyz     :     0.017671
      dx2y2   :     0.012649
      dxy     :     0.015696
  3 H s       :     0.688349  s :     0.688349
      pz      :     0.032545  p :     0.120735
      px      :     0.024263
      py      :     0.063928
  4 O s       :     3.462975  s :     3.462975
      pz      :     1.416868  p :     4.620657
      px      :     1.490537
      py      :     1.713251
      dz2     :     0.023290  d :     0.073402
      dxz     :     0.013136
      dyz     :     0.005597
      dx2y2   :     0.016354
      dxy     :     0.015025
  5 C s       :     2.872679  s :     2.872679
      pz      :     1.054088  p :     3.010355
      px      :     0.959663
      py      :     0.996604
      dz2     :     0.037036  d :     0.153891
      dxz     :     0.024065
      dyz     :     0.018006
      dx2y2   :     0.034235
      dxy     :     0.040550
  6 H s       :     0.852188  s :     0.852188
      pz      :     0.009507  p :     0.046067
      px      :     0.010254
      py      :     0.026307
  7 H s       :     0.859214  s :     0.859214
      pz      :     0.013700  p :     0.046517
      px      :     0.022931
      py      :     0.009886
  8 C s       :     2.854592  s :     2.854592
      pz      :     0.872616  p :     2.706845
      px      :     0.869039
      py      :     0.965190
      dz2     :     0.050602  d :     0.323060
      dxz     :     0.069901
      dyz     :     0.055641
      dx2y2   :     0.088884
      dxy     :     0.058032
  9 O s       :     3.545754  s :     3.545754
      pz      :     1.596779  p :     4.585818
      px      :     1.580906
      py      :     1.408132
      dz2     :     0.017617  d :     0.081360
      dxz     :     0.024527
      dyz     :     0.014545
      dx2y2   :     0.012239
      dxy     :     0.012433
 10 N s       :     3.180602  s :     3.180602
      pz      :     1.351032  p :     4.002281
      px      :     1.177332
      py      :     1.473917
      dz2     :     0.024286  d :     0.082040
      dxz     :     0.011622
      dyz     :     0.008240
      dx2y2   :     0.012467
      dxy     :     0.025424
 11 O s       :     3.459954  s :     3.459954
      pz      :     1.693519  p :     4.630670
      px      :     1.525622
      py      :     1.411529
      dz2     :     0.010691  d :     0.073593
      dxz     :     0.015546
      dyz     :     0.012324
      dx2y2   :     0.020470
      dxy     :     0.014563
 12 H s       :     0.777384  s :     0.777384
      pz      :     0.049079  p :     0.087959
      px      :     0.014105
      py      :     0.024775
 13 H s       :     0.689620  s :     0.689620
      pz      :     0.071180  p :     0.120179
      px      :     0.022431
      py      :     0.026568
 14 H s       :     0.869190  s :     0.869190
      pz      :     0.028737  p :     0.043778
      px      :     0.007048
      py      :     0.007992
 15 H s       :     0.783344  s :     0.783344
      pz      :     0.017069  p :     0.084610
      px      :     0.031758
      py      :     0.035783


                      *****************************
                      * MAYER POPULATION ANALYSIS *
                      *****************************

  NA   - Mulliken gross atomic population
  ZA   - Total nuclear charge
[...]
      dxy     :     0.034137
  9 O s       :     3.866443  s :     3.866443
      pz      :     1.552787  p :     4.527498
      px      :     1.545886
      py      :     1.428825
      dz2     :     0.010718  d :     0.050943
      dxz     :     0.011251
      dyz     :     0.011167
      dx2y2   :     0.009796
      dxy     :     0.008010
 10 N s       :     3.593339  s :     3.593339
      pz      :     1.214939  p :     3.965226
      px      :     1.097978
      py      :     1.652310
      dz2     :     0.016178  d :     0.054416
      dxz     :     0.006899
      dyz     :     0.007937
      dx2y2   :     0.006918
      dxy     :     0.016484
 11 O s       :     3.829636  s :     3.829636
      pz      :     1.770172  p :     4.660583
      px      :     1.505932
      py      :     1.384479
      dz2     :     0.007612  d :     0.047484
      dxz     :     0.009679
      dyz     :     0.006901
      dx2y2   :     0.014994
      dxy     :     0.008297
 12 H s       :     0.699648  s :     0.699648
      pz      :     0.014396  p :     0.027174
      px      :     0.004989
      py      :     0.007790
 13 H s       :     0.614151  s :     0.614151
      pz      :     0.023334  p :     0.040796
      px      :     0.008476
      py      :     0.008986
 14 H s       :     0.830463  s :     0.830463
      pz      :     0.008655  p :     0.014297
      px      :     0.002562
      py      :     0.003080
 15 H s       :     0.706973  s :     0.706973
      pz      :     0.006031  p :     0.026957
      px      :     0.011239
      py      :     0.009687


                     *******************************
                     * LOEWDIN POPULATION ANALYSIS *
                     *******************************

----------------------
LOEWDIN ATOMIC CHARGES
----------------------
   0 C :    0.167480
   1 C :   -0.149470
   2 O :   -0.219421
   3 H :    0.189305
   4 O :   -0.167730
   5 C :   -0.043617
   6 H :    0.103761
   7 H :    0.102147
   8 C :    0.145372
   9 O :   -0.229389
  10 N :   -0.262276
  11 O :   -0.184158
  12 H :    0.132546
  13 H :    0.190525
  14 H :    0.091717
  15 H :    0.133208

-------------------------------
LOEWDIN REDUCED ORBITAL CHARGES
-------------------------------
  0 C s       :     2.849039  s :     2.849039
      pz      :     1.010486  p :     2.675458
      px      :     0.847008
      py      :     0.817963
      dz2     :     0.090257  d :     0.308023
      dxz     :     0.056395
      dyz     :     0.044994
      dx2y2   :     0.052876
      dxy     :     0.063501
  1 C s       :     2.897328  s :     2.897328
      pz      :     1.029603  p :     3.151917
      px      :     1.045489
      py      :     1.076826
      dz2     :     0.028931  d :     0.100226
      dxz     :     0.020760
      dyz     :     0.011623
      dx2y2   :     0.020048
      dxy     :     0.018864
  2 O s       :     3.558735  s :     3.558735
      pz      :     1.390968  p :     4.581661
      px      :     1.560517
      py      :     1.630177
      dz2     :     0.011945  d :     0.079025
      dxz     :     0.016254
      dyz     :     0.012045
      dx2y2   :     0.016451
      dxy     :     0.022329
  3 H s       :     0.690120  s :     0.690120
      pz      :     0.031167  p :     0.120575
      px      :     0.021308
      py      :     0.068100
  4 O s       :     3.478879  s :     3.478879
      pz      :     1.409284  p :     4.616859
      px      :     1.535762
      py      :     1.671814
      dz2     :     0.022474  d :     0.071991
      dxz     :     0.010881
      dyz     :     0.007687
      dx2y2   :     0.012993
      dxy     :     0.017957
  5 C s       :     2.870375  s :     2.870375
      pz      :     1.052469  p :     3.021590
      px      :     0.973139
      py      :     0.995983
      dz2     :     0.035813  d :     0.151651
      dxz     :     0.021508
      dyz     :     0.015573
      dx2y2   :     0.040679
      dxy     :     0.038079
  6 H s       :     0.849914  s :     0.849914
      pz      :     0.010025  p :     0.046325
      px      :     0.008632
      py      :     0.027668
  7 H s       :     0.851289  s :     0.851289
      pz      :     0.014306  p :     0.046564
      px      :     0.021276
      py      :     0.010982
  8 C s       :     2.861358  s :     2.861358
      pz      :     0.801661  p :     2.687295
      px      :     0.897270
      py      :     0.988365
      dz2     :     0.029901  d :     0.305975
      dxz     :     0.055386
      dyz     :     0.030738
      dx2y2   :     0.114827
      dxy     :     0.075122
  9 O s       :     3.561984  s :     3.561984
      pz      :     1.593073  p :     4.588765
      px      :     1.553921
      py      :     1.441772
      dz2     :     0.016389  d :     0.078639
      dxz     :     0.018749
      dyz     :     0.019009
      dx2y2   :     0.011755
      dxy     :     0.012737
 10 N s       :     3.198024  s :     3.198024
      pz      :     1.220185  p :     3.981488
      px      :     1.136285
      py      :     1.625018
      dz2     :     0.025732  d :     0.082764
      dxz     :     0.012387
      dyz     :     0.009201
      dx2y2   :     0.010603
      dxy     :     0.024843
 11 O s       :     3.481804  s :     3.481804
      pz      :     1.733926  p :     4.630631
      px      :     1.524165
      py      :     1.372540
      dz2     :     0.010802  d :     0.071723
      dxz     :     0.012380
      dyz     :     0.008391
      dx2y2   :     0.025312
      dxy     :     0.014837
 12 H s       :     0.781830  s :     0.781830
      pz      :     0.049120  p :     0.085625
      px      :     0.013091
      py      :     0.023414
 13 H s       :     0.689257  s :     0.689257
      pz      :     0.070804  p :     0.120218
      px      :     0.023733
      py      :     0.025681
 14 H s       :     0.864132  s :     0.864132
      pz      :     0.028322  p :     0.044151
      px      :     0.007748
      py      :     0.008081
 15 H s       :     0.782612  s :     0.782612
      pz      :     0.016208  p :     0.084180
      px      :     0.036159
      py      :     0.031813


                      *****************************
                      * MAYER POPULATION ANALYSIS *
                      *****************************

  NA   - Mulliken gross atomic population
  ZA   - Total nuclear charge
  QA   - Mulliken gross atomic charge
  VA   - Mayer's total valence
  BVA  - Mayer's bonded valence
  FA   - Mayer's free valence

  ATOM       NA         ZA         QA         VA         BVA        FA
  0 C      5.4029     6.0000     0.5971     3.9689     3.6949     0.2739
  1 C      6.2960     6.0000    -0.2960     3.8563     3.5927     0.2636
  2 O      8.4364     8.0000    -0.4364     2.3304     1.9414     0.3891
  3 H      0.6551     1.0000     0.3449     0.9006     0.8571     0.0434
  4 O      8.5240     8.0000    -0.5240     2.2141     1.8638     0.3503
  5 C      6.0737     6.0000    -0.0737     3.9172     3.6432     0.2740
  6 H      0.8235     1.0000     0.1765     0.9535     0.9072     0.0463
  7 H      0.8258     1.0000     0.1742     0.9551     0.9087     0.0465
  8 C      5.4066     6.0000     0.5934     3.9506     3.6713     0.2793
  9 O      8.4449     8.0000    -0.4449     2.3075     1.9170     0.3905
 10 N      7.6130     7.0000    -0.6130     3.0249     2.7033     0.3215
 11 O      8.5377     8.0000    -0.5377     2.1831     1.8304     0.3527
 12 H      0.7268     1.0000     0.2732     0.9262     0.8811     0.0452
 13 H      0.6549     1.0000     0.3451     0.8996     0.8562     0.0433
 14 H      0.8448     1.0000     0.1552     0.9496     0.9017     0.0479
 15 H      0.7339     1.0000     0.2661     0.9217     0.8764     0.0453

  Mayer bond orders larger than 0.100000
B(  0-C ,  1-C ) :   0.9101 B(  0-C ,  4-O ) :   1.0072 B(  0-C ,  9-O ) :   1.7702 
B(  1-C ,  5-C ) :   0.9068 B(  1-C ,  6-H ) :   0.9024 B(  1-C ,  7-H ) :   0.9014 
B(  2-O ,  8-C ) :   1.8230 B(  3-H , 11-O ) :   0.8120 B(  4-O , 13-H ) :   0.8117 
B(  5-C ,  8-C ) :   0.8647 B(  5-C , 10-N ) :   0.9792 B(  5-C , 14-H ) :   0.9086 
B(  8-C , 11-O ) :   0.9660 B( 10-N , 12-H ) :   0.8564 B( 10-N , 15-H ) :   0.8672 



----------------------------------
MP2 DERIVATIVE INTEGRAL GENERATION
----------------------------------

Input SCF Electron Density              ... 4.scfp
Input Correlated Electron Density       ... 4.pmp2re
Input Energy Weighted Density           ... 4.wmp2.tmp
Input Wavefunction Amplitudes           ... 4.mp2tsaa.tmp

Nuclear repulsion gradient              ... done (  0.0 sec)
HCore & Overlap gradient  (SHARK)       ... done (  0.1 sec)
Analytic two-electron gradient terms    ... 
  Batch handling in the gradient evaluation:
  General contraction                   ... not used
  Memory available                      ... 4084.5 MB
  Memory per occupied orbital in Q2     ...    5.1 MB
  Memory per occupied orbital in Q3     ...    0.0 MB
  Total memory requirement per |i>      ...    5.2 MB
  Number of orbitals treated per batch  ...     26
  Number of batches to be done          ...      1
done ( 12.5 sec)

---------------------------------------
MP2 TOTAL ENERGY:     -510.909695248 Eh
---------------------------------------

The final MP2 gradient
  0:   0.00001712   0.00005439   0.00002331
  1:   0.00004923  -0.00006302  -0.00005201
  2:   0.00000260  -0.00000454  -0.00000327
  3:   0.00000680   0.00000130   0.00000028
  4:  -0.00002905  -0.00001621   0.00001109
  5:   0.00005031  -0.00000269   0.00002076
  6:  -0.00001302   0.00000519   0.00000246
  7:  -0.00001395   0.00001762   0.00002458
  8:  -0.00002825   0.00001298  -0.00000287
  9:  -0.00001263  -0.00001713  -0.00001691
 10:   0.00001204   0.00001751   0.00001103
 11:  -0.00000015   0.00000028   0.00000161
 12:  -0.00001863  -0.00000071  -0.00000281
 13:  -0.00000115  -0.00000298  -0.00000183
 14:  -0.00002060   0.00000837  -0.00000365
 15:  -0.00000068  -0.00001036  -0.00001176

-----------------------------------
NORM OF THE MP2 GRADIENT:  0.000148
-----------------------------------

Maximum memory used throughout the entire MP2-calculation: 456.0 MB

-------------------------   --------------------
FINAL SINGLE POINT ENERGY      -510.909695247888
-------------------------   --------------------

                                *** OPTIMIZATION RUN DONE ***


------------------------------------------------------------------------------
                              ORCA PROPERTY CALCULATIONS
------------------------------------------------------------------------------

GBWName                                 ... 4.gbw
Number of atoms                         ...     16
Number of basis functions               ...    161
Max core memory                         ...   4096 MB

Electric properties:
Dipole moment                           ... YES
Quadrupole moment                       ...  NO
Static polarizability (Dipole/Dipole)   ...  NO
Static polarizability (Dipole/Quad.)    ...  NO
Static polarizability (Quad./Quad.)     ...  NO
Static polarizability (Velocity)        ...  NO
Static hyperpolarizability              ...  NO

Atomic electric properties:
Dipole moment                           ...  NO
Quadrupole moment                       ...  NO
Static polarizability                   ...  NO

Choice of electric origin               ... Center of mass
Position of electric origin             ...    -6.475823     4.411468     1.017003

General magnetic properties:
Magnetizability                         ...  NO

EPR properties:
g-Tensor (aka g-matrix)                 ...  NO
Zero-Field splitting spin-orbit         ...  NO
Zero-field splitting spin-spin          ...  NO
Hyperfine couplings                     ...  NO (   0 nuclei)
Quadrupole couplings                    ...  NO (   0 nuclei)
Contact density                         ...  NO (   0 nuclei)

NMR properties:
Chemical shifts                         ...  NO (   0 nuclei)
Spin-rotation constants                 ...  NO (   0 nuclei)
Spin-spin couplings                     ...  NO (   0 nuclei,    0 pairs)

Choice of magnetic origin               ... GIAO
Position of magnetic origin             ...     0.000000     0.000000     0.000000

Properties with geometric perturbations:
SCF Hessian                             ...  NO
IR spectrum                             ...  NO
VCD spectrum                            ...  NO
X-ray spectroscopy properties:
SCF XES/XAS/RIXS spectra                ...  NO

SCF SOC stabilization energy            ...  NO
Diagonal Born-Oppenheimer correction    ...  NO

-------------
DIPOLE MOMENT
-------------

Method             : SCF
Type of density    : Electron Density
Multiplicity       :   1
Irrep              :   0
Energy             :  -509.5004634823157517 Eh
Basis              : AO
                                X                 Y                 Z
Electronic contribution:     -1.606408634       2.481313555       2.321540114
Nuclear contribution   :      0.670226584      -2.677133853      -2.785188866
                        -----------------------------------------
Total Dipole Moment    :     -0.936182049      -0.195820298      -0.463648752
                        -----------------------------------------
Magnitude (a.u.)       :      1.062898200
Magnitude (Debye)      :      2.701672520



--------------------
Rotational spectrum 
--------------------
 
Rotational constants in cm-1:             0.084668             0.040724             0.036106 
Rotational constants in MHz :          2538.281266          1220.872551          1082.437930 

Dipole components along the rotational axes: 
x,y,z [a.u.] :     0.529066    -0.500735     0.774020 
x,y,z [Debye]:     1.344778    -1.272767     1.967402 

 

-------------
DIPOLE MOMENT
-------------

Method             : MP2
Type of density    : Electron Density
Multiplicity       :   1
Level              : Unrelaxed density
Irrep              :   0
Energy             :     0.0000000000000000 Eh
Basis              : AO
                                X                 Y                 Z
Electronic contribution:     -1.574215449       2.516716752       2.368797861
Nuclear contribution   :      0.670226584      -2.677133853      -2.785188866
                        -----------------------------------------
Total Dipole Moment    :     -0.903988865      -0.160417102      -0.416391005
                        -----------------------------------------
Magnitude (a.u.)       :      1.008122505
Magnitude (Debye)      :      2.562443766



--------------------
Rotational spectrum 
--------------------
 
Rotational constants in cm-1:             0.084668             0.040724             0.036106 
Rotational constants in MHz :          2538.281266          1220.872551          1082.437930 

Dipole components along the rotational axes: 
x,y,z [a.u.] :     0.502826    -0.506036     0.712323 
x,y,z [Debye]:     1.278083    -1.286241     1.810582 

 

-------------
DIPOLE MOMENT
-------------

Method             : MP2
Type of density    : Electron Density
Multiplicity       :   1
Level              : Relaxed density
Irrep              :   0
Energy             :     0.0000000000000000 Eh
Basis              : AO
                                X                 Y                 Z
Electronic contribution:     -1.477608685       2.664210011       2.546605958
Nuclear contribution   :      0.670226584      -2.677133853      -2.785188866
                        -----------------------------------------
Total Dipole Moment    :     -0.807382101      -0.012923843      -0.238582908
                        -----------------------------------------
Magnitude (a.u.)       :      0.841994470
Magnitude (Debye)      :      2.140179859



--------------------
Rotational spectrum 
--------------------
 
Rotational constants in cm-1:             0.084668             0.040724             0.036106 
Rotational constants in MHz :          2538.281266          1220.872551          1082.437930 

Dipole components along the rotational axes: 
x,y,z [a.u.] :     0.409057    -0.553500     0.485041 
x,y,z [Debye]:     1.039739    -1.406886     1.232876 

 

Dipole moment calculation done in   0.0 sec 

Maximum memory used throughout the entire PROP-calculation: 8.8 MB

--------------------------------
SUGGESTED CITATIONS FOR THIS RUN
--------------------------------

Below you find a list of papers that are relevant to this ORCA run
We neither can nor want to force you to cite these papers, but we appreciate if you do
You receive ORCA, which is the product of decades of hard work by many enthusiastic individuals, for free
The only thing we kindly ask in return is that you cite our papers,
We deeply appreciate it, if you show your appreciation for ORCA by not just citing the generic ORCA reference.

Please note that relegating all ORCA citations to the supporting information does *not* help us.
SI sections are not indexed - citations you put there will not count into any citation statistics
But we need these citations in order to attract the funding resources that allow us to do what we are doing

Therefore, if you are a happy ORCA user, please consider citing a few of the papers listed below in the main body of your paper

In addition to the list printed below, the program has created the file 4.bibtex that contains the list in bibtex format
You can import this file easily into all common literature databanks and citation aid programs


List of essential papers. We consider these as the minimum necessary citations

  1. Neese, F.
     Software update: the ORCA program system, version 6.0
     WIRES Comput. Molec. Sci. 2025 15(1), e70019
     doi.org/10.1002/wcms.7019

List of papers to cite with high priority. The work reported in these papers was absolutely
necessary for this run to complete.
Our perspective: the developers of density functionals and basis sets usually get cited in chemistry papers
Good! But without the algorithms to do something with them, the functionals or basis sets would not do anything.
Hence, in our opinion, the algorithm design and method developments papers are equally worthy of getting cited

  1. Neese, F.
     The SHARK Integral Generation and Digestion System
     J. Comp. Chem. 2022 44(3), 381
     doi.org/10.1002/jcc.26942

List of suggested additional citations. These are papers that are important in the 'surrounding' of 
of this run, or papers that preceded the highly important papers. If you like your results we are grateful for a citation.

  1. Neese, F.
     The ORCA program system
     WIRES Comput. Molec. Sci. 2012 2(1), 73-78
     doi.org/10.1002/wcms.81
  2. Neese, F.
     Software update: the ORCA program system, version 4.0
     WIRES Comput. Molec. Sci. 2018 8(1), 1-6
     doi.org/10.1002/wcms.1327
  3. Neese, F.; Wennmohs, F.; Becker, U.; Riplinger, C.
     The ORCA quantum chemistry program package
     J. Chem. Phys. 2020 152(22), 224108
     doi.org/10.1063/5.0004608
  4. Neese, F.
     Software update: The ORCA program system—Version 5.0
     WIRES Comput. Molec. Sci. 2022 12(1), e1606
     doi.org/10.1002/wcms.1606

List of optional additional citations

  1. Neese, F.
     Approximate second-order SCF convergence for spin unrestricted wavefunctions
     Chem. Phys. Lett. 2000 325(1-3), 93-98
     doi.org/10.1016/s0009-2614(00)00662-x

Timings for individual modules:

Sum of individual times          ...     1204.006 sec (=  20.067 min)
Startup calculation              ...        8.495 sec (=   0.142 min)   0.7 %
SCF iterations                   ...      287.338 sec (=   4.789 min)  23.9 %
Property calculations            ...        0.042 sec (=   0.001 min)   0.0 %
MP2 module                       ...      908.093 sec (=  15.135 min)  75.4 %
Geometry relaxation              ...        0.039 sec (=   0.001 min)   0.0 %
                             ****ORCA TERMINATED NORMALLY****
TOTAL RUN TIME: 0 days 0 hours 20 minutes 4 seconds 509 msec
