
                                 *****************
                                 * O   R   C   A *
                                 *****************

                                            #,                                       
                                            ###                                      
                                            ####                                     
                                            #####                                    
                                            ######                                   
                                           ########,                                 
                                     ,,################,,,,,                         
                               ,,#################################,,                 
                          ,,##########################################,,             
                       ,#########################################, ''#####,          
                    ,#############################################,,   '####,        
                  ,##################################################,,,,####,       
                ,###########''''           ''''###############################       
              ,#####''   ,,,,##########,,,,          '''####'''          '####       
            ,##' ,,,,###########################,,,                        '##       
           ' ,,###''''                  '''############,,,                           
         ,,##''                                '''############,,,,        ,,,,,,###''
      ,#''                                            '''#######################'''  
     '                                                          ''''####''''         
             ,#######,   #######,   ,#######,      ##                                
            ,#'     '#,  ##    ##  ,#'     '#,    #''#        ,####,    ,#,          
            ##       ##  ##   ,#'  ##            #'  '#       #'       ,# #          
            ##       ##  #######   ##           ,######,      #####,      #          
            '#,     ,#'  ##    ##  '#,     ,#' ,#      #,     #,   #      #          
             '#######'   ##     ##  '#######'  #'      '#     '####' #    #          



                #########################################################
                #                        -***-                          #
                #          Department of theory and spectroscopy        #
                #                                                       #
                #                      Frank Neese                      #
                #                                                       #
                #     Directorship, Architecture, Infrastructure        #
                #                    SHARK, DRIVERS                     #
                #        Core code/Algorithms in most modules           #
                #                                                       #
                #        Max Planck Institute fuer Kohlenforschung      #
                #                Kaiser Wilhelm Platz 1                 #
                #                 D-45470 Muelheim/Ruhr                 #
                #                      Germany                          #
                #                                                       #
                #                  All rights reserved                  #
                #                        -***-                          #
                #########################################################


                         Program Version 6.1.0  -  RELEASE   -
                                (GIT: $679e74b$)
                          ($2025-06-10 18:02:51 +0200$)


 With contributions from (in alphabetic order):
[Max-Planck-Institut fuer Kohlenforschung]                               
  Daniel Aravena         : Magnetic Suceptibility                        
  Michael Atanasov       : Ab Initio Ligand Field Theory (pilot matlab implementation)
  Alexander A. Auer      : GIAO ZORA, VPT2 properties, NMR spectrum      
  Ute Becker             : All parallelization in ORCA, NUMFREQ, NUMCALC 
  Giovanni Bistoni       : ED, misc. LED, open-shell LED, HFLD           
  Dmytro Bykov           : pre 5.0 version of the SCF Hessian            
  Marcos Casanova-Páez   : Triplet and SCS-CIS(D). UHF-(DLPNO)-IP/EA/STEOM-CCSD. UHF-CVS-IP/STEOM-CCSD   
  Vijay G. Chilkuri      : MRCI spin determinant printing, contributions to CSF-ICE 
  Pauline Colinet        : FMM embedding                                 
  Dipayan Datta          : RHF DLPNO-CCSD density                        
  Achintya Kumar Dutta   : EOM-CC, STEOM-CC                              
  Nicolas Foglia         : Exact transition moments, OPA infrastructure, MCD improvements    
  Dmitry Ganyushin       : Spin-Orbit,Spin-Spin,Magnetic field MRCI      
  Miquel Garcia-Rates    : C-PCM and meta-GGA Hessian, CCSD/C-PCM, Gaussian charge scheme 
  Tiago L. C. Gouveia    : GS-ROHF, GS-ROCIS                             
  Yang Guo               : DLPNO-NEVPT2, F12-NEVPT2, CIM, IAO-localization        
  Andreas Hansen         : Spin unrestricted coupled pair/coupled cluster methods 
  Ingolf Harden          : AUTO-CI MPn and infrastructure                
  Benjamin Helmich-Paris : MC-RPA, TRAH-(SCF,CASSCF), AVAS, COSX integrals, SCF dyn. polar., MC-PDFT, srDFT 
  Lee Huntington         : MR-EOM, pCC                                   
  Robert Izsak           : Overlap fitted RIJCOSX, COSX-SCS-MP3, EOM     
  Riya Kayal             : Wick's Theorem for AUTO-CI, AUTO-CI UHF-CCSDT 
  Emily Kempfer          : AUTO-CI RHF CISDT and CCSDT, approximate NEVPT4
  Christian Kollmar      : KDIIS, OOCD, Brueckner-CCSD(T), CCSD density, CASPT2, CASPT2-K, improved NEVPT2 
  Axel Koslowski         : Symmetry handling                             
  Simone Kossmann        : meta-GGA functionals, TD-DFT gradient, OOMP2, (MP2 Hessian; deprecated post 5.0) 
  Lucas Lang             : DCDCAS, Hyperfine gauge corrections, ICE-SOC+SSC
  Marvin Lechner         : AUTO-CI (C++ implementation), FIC-MRCC        
  Spencer Leger          : CASSCF response                               
  Dagmar Lenk            : GEPOL surface, SMD, ORCA-2-JSON               
  Dimitrios Liakos       : Extrapolation schemes; Compound Job, Property file
  Dimitrios Manganas     : Further ROCIS development; embedding schemes. LFT, Crystal Embedding 
  Dimitrios Pantazis     : SARC Basis sets                               
  Anastasios Papadopoulos: AUTO-CI, single reference methods and gradients 
  Taras Petrenko         : pre 6.0 DFT Hessian and TD-DFT gradient,  ECA, NRVS 
  Petra Pikulova         : Analytic Raman intensities                    
  Peter Pinski           : DLPNO-MP2, DLPNO-MP2 Gradient                 
  Shashank Vittal Rao    : ES-AILFT, MagRelax                            
  Christoph Reimann      : Effective Core Potentials                     
  Marius Retegan         : Local ZFS, SOC                                
  Christoph Riplinger    : Optimizer, TS searches, QM/MM, DLPNO-CCSD(T), (RO)-DLPNO pert. Triples 
  Michael Roemelt        : Original ROCIS implementation, recursive CI coupling coefficients
  Masaaki Saitow         : Open-shell DLPNO-CCSD energy and density      
  Barbara Sandhoefer     : DKH picture change effects                    
  Yorick L. A. Schmerwitz: GMF and freeze-and-release deltaSCF, NEB S-IDPP initial path                    
  Kantharuban Sivalingam : CASSCF convergence/infrastructure, NEVPT2, NEVPT3, NEVPT4(SD), FIC-MRCI and CEPA variants
  Bernardo de Souza      : ESD, SOC TD-DFT                               
  Georgi L. Stoychev     : AutoAux, RI-MP2 NMR, DLPNO-MP2 response, X2C  
  Van Anh Tran           : RI-MP2 g-tensors                              
  Willem Van den Heuvel  : Paramagnetic NMR                              
  Zikuan Wang            : NOTCH, Electric field optimization            
  Frank Wennmohs         : Technical directorship and infrastructure     
  Hang Xu                : AUTO-CI-Response properties                   
                                                                         
[FACCTs GmbH]                                                            
  Markus Bursch, Nicolas Foglia, Miquel Garcia-Rates, Ingolf Harden, Hagen Neugebauer, Anastasios Papadopoulos, 
  Christoph Riplinger, Bernardo de Souza, Georgi L. Stoychev                                                    
                                                                 
  APM, various basis sets, CI-OPT, improved COSX, DLPNO-Multilevel,           
  DOCKER, DRACO, updates on ESD, Fragmentator, GOAT, IRC, LR-CPCM, L-BFGS, MBIS, meta-GGA TD-DFT gradient, ML-optimized integration grids, 
  MM, NACMEs, nearIR, NEB, NEB-TS, NL-DFT gradient (VV10), 2- and 3-layer-ONIOM, interface openCOSMO-RS, QMMM,   
  Crystal-QMMM, RESP, rigid body optimization, SF, symmetry and pop. for TD-DFT, various functionals, SOLVATOR                                   
                                                                         
[Other institutions]                                                     
  V. Asgeirsson          : NEB                                           
  Christoph Bannwarth    : sTDA-DFT, sTD-DFT, PBEh-3c, B97-3c, D3        
  Giovanni Bistoni       : ETS/NOCV, ADLD/ADEX, COVALED                  
  Martin Brehm           : Molecular dynamics                            
  Ronald Cardenas        : ETS/NOCV                                      
  Martina Colucci        : COVALED                                       
  Sebastian Ehlert       : rSCAN, r2SCAN, r2SCAN-3c, D4, dhf basis sets  
  Marvin Friede          : D4 for Fr, Ra, Ac-Lr                          
  Lars Goerigk           : TD-DFT with DH, B97 family of functionals     
  Stefan Grimme          : VdW corrections, initial TS optimization, DFT functionals, gCP, sTDA/sTD-DF 
  Waldemar Hujo          : DFT-NL                                        
  H. Jonsson             : NEB                                           
  Holger Kruse           : gCP                                           
  Marcel Mueller         : wB97X-3c, vDZP basis set                      
  Hagen Neugebauer       : wr2SCAN, Native XTB                           
  Gianluca Regni         : ADLD/ADEX                                     
  Tobias Risthaus        : pre 6.0 range-separated hybrid DFT and stability analysis
  Lukas Wittmann         : regularized MP2, r2SCAN double-hybrids, wr2SCAN        
                                                                         
We gratefully acknowledge several colleagues who have allowed us to      
interface, adapt or use parts of their codes:                            
  Ed Valeev, F. Pavosevic, A. Kumar             : LibInt (2-el integral package), F12 methods 
  Garnet Chan, S. Sharma, J. Yang, R. Olivares  : DMRG                   
  Ulf Ekstrom                                   : XCFun DFT Library      
  Mihaly Kallay                                 : mrcc  (arbitrary order and MRCC methods)
  Frank Weinhold                                : gennbo (NPA and NBO analysis)           
  Simon Mueller                                 : openCOSMO-RS                            
  Christopher J. Cramer and Donald G. Truhlar   : smd solvation model                     
  S Lehtola, MJT Oliveira, MAL Marques          : LibXC Library                           
  Liviu Ungur et al                             : ANISO software                          


 Your calculation uses the libint2 library for the computation of 2-el integrals
 For citations please refer to: http://libint.valeyev.net

 Your ORCA version has been built with support for libXC version: 7.0.0
 For citations please refer to: https://libxc.gitlab.io

 This ORCA versions uses:
   CBLAS   interface :  Fast vector & matrix operations
   LAPACKE interface :  Fast linear algebra routines
   SCALAPACK package :  Parallel linear algebra routines
   Shared memory     :  Shared parallel matrices
   BLAS/LAPACK       :  OpenBLAS 0.3.29  USE64BITINT DYNAMIC_ARCH NO_AFFINITY Haswell SINGLE_THREADED
        Core in use  :  Haswell
   Copyright (c) 2011-2014, The OpenBLAS Project


  ***********************************
  * Starting time: Thu Aug 14 00:52:09 2025
  * Host name:     CHEMLAB02
  * Process ID:    1542716
  * Working dir.:  /home/vivek/mm-project/vivek/MP2/e/1
  ***********************************



***************************************
The coordinates will be read from file: /home/vivek/mm-project/vivek/xtb-goat/e/E_CONF/1.xyz
***************************************


================================================================================

----- Orbital basis set information -----
Your calculation utilizes the basis: 6-31G**
   H-He, Li-Ne : W. J. Hehre, R. Ditchfield and J.A. Pople, J. Chem. Phys. 56, 2257 (1972).
                 Note: He and Ne are unpublished basis sets taken from the Gaussian program.
                 Note: Li and B from J. D. Dill and J. A. Pople, J. Chem. Phys. 62, 2921 (1975).
   Na - Ar     : M. M. Francl, W. J. Pietro, W. J. Hehre, J. S. Binkley, M. S. Gordon, 
                 D. J. DeFrees and J. A. Pople, J. Chem. Phys. 77, 3654 (1982).
   K - Zn      : V. A. Rassolov, J. A. Pople, M. A. Ratner, and T. L. Windus, J. Chem. Phys. 109, 1223 (1998).

================================================================================
                                        WARNINGS
                       Please study these warnings very carefully!
================================================================================


WARNING: No MP2 level density has been requested!
         To calculate MP2 level properties use
         %mp2 Density relaxed end
         or
         %mp2 Density unrelaxed end

WARNING: Post HF methods need fully converged wavefunctions
  ===> : Setting SCFConvForced true
         You can overwrite this default with %scf ConvForced false 


================================================================================
                                       INPUT FILE
================================================================================
NAME = 1.inp
|  1> ! MP2 6-31G** 
|  2> 
|  3> * xyzfile 0 1 /home/vivek/mm-project/vivek/xtb-goat/e/E_CONF/1.xyz
|  4> 
|  5>                          ****END OF INPUT****
================================================================================

                       ****************************
                       * Single Point Calculation *
                       ****************************

---------------------------------
CARTESIAN COORDINATES (ANGSTROEM)
---------------------------------
  C     -2.758308   -0.061986    0.104918
  C     -2.529999    1.042627   -0.892742
  H     -1.624997    2.176110    1.378403
  H     -0.142186    2.796424    1.651263
  O     -3.021475   -1.225230   -0.482037
  C     -1.025543    1.206069   -1.157794
  H     -3.031523    0.787746   -1.825297
  H     -2.928233    1.975501   -0.494764
  C     -0.209512    1.458973    0.119547
  H     -0.639065    0.303287   -1.633021
  H     -0.889568    2.050876   -1.831927
  C     -0.003918    0.149334    0.886198
  O     -0.003677   -0.950168    0.396485
  N     -0.787231    2.522353    0.918728
  H     -3.074147   -1.942215    0.169591
  O      0.222339    0.363055    2.183488
  H      0.797292    1.777444   -0.187597
  O     -2.695594    0.067560    1.302548
  H      0.316368   -0.478438    2.655908

----------------------------
CARTESIAN COORDINATES (A.U.)
----------------------------
  NO LB      ZA    FRAG     MASS         X           Y           Z
   0 C     6.0000    0    12.011   -5.212447   -0.117136    0.198266
   1 C     6.0000    0    12.011   -4.781004    1.970280   -1.687038
   2 H     1.0000    0     1.008   -3.070799    4.112252    2.604804
   3 H     1.0000    0     1.008   -0.268693    5.284475    3.120435
   4 O     8.0000    0    15.999   -5.709760   -2.315349   -0.910917
   5 C     6.0000    0    12.011   -1.937995    2.279140   -2.187914
   6 H     1.0000    0     1.008   -5.728748    1.488625   -3.449312
   7 H     1.0000    0     1.008   -5.533558    3.733156   -0.934968
   8 C     6.0000    0    12.011   -0.395920    2.757059    0.225912
   9 H     1.0000    0     1.008   -1.207657    0.573129   -3.085963
  10 H     1.0000    0     1.008   -1.681040    3.875594   -3.461840
  11 C     6.0000    0    12.011   -0.007403    0.282200    1.674671
  12 O     8.0000    0    15.999   -0.006949   -1.795558    0.749248
  13 N     7.0000    0    14.007   -1.487651    4.766555    1.736144
  14 H     1.0000    0     1.008   -5.809297   -3.670254    0.320480
  15 O     8.0000    0    15.999    0.420159    0.686075    4.126194
  16 H     1.0000    0     1.008    1.506664    3.358883   -0.354507
  17 O     8.0000    0    15.999   -5.093934    0.127669    2.461458
  18 H     1.0000    0     1.008    0.597849   -0.904116    5.018939

--------------------------------
INTERNAL COORDINATES (ANGSTROEM)
--------------------------------
 C      0   0   0     0.000000000000     0.00000000     0.00000000
 C      1   0   0     1.505862214383     0.00000000     0.00000000
 H      2   1   0     2.694793461817    78.52712045     0.00000000
 H      3   2   1     1.630327712677   127.33966802   123.20997928
 O      1   2   3     1.329251712777   112.29663412   193.36400403
 C      2   1   3     1.536344214208   109.92574732    71.26055564
 H      2   1   3     1.089105083876   109.01402918   190.86841424
 H      2   1   3     1.089601306755   109.30710308   311.34390047
 C      6   2   1     1.536706816477   113.21040190   304.04878069
 H      6   2   1     1.090972593497   109.51270532    64.71147470
 H      6   2   1     1.089331809685   108.14970681   183.54906592
 C      9   6   2     1.531396902246   110.28405696    77.77748912
 O     12   9   6     1.203629015640   125.27847223    25.92914430
 N      4   3   2     1.013807851935    36.63248124    18.59892844
 H      5   1   2     0.970288421023   111.15265604   174.08589526
 O     12   9   6     1.334102816369   111.87452983   203.94376557
 H      9   6   2     1.099734417283   107.55739139   192.15697971
 O      1   2   3     1.206246993252   124.82856897    12.36442823
 H     16  12   9     0.969604519975   110.56074600   177.86723627

---------------------------
INTERNAL COORDINATES (A.U.)
---------------------------
 C      0   0   0     0.000000000000     0.00000000     0.00000000
 C      1   0   0     2.845667180604     0.00000000     0.00000000
 H      2   1   0     5.092421630315    78.52712045     0.00000000
 H      3   2   1     3.080872885502   127.33966802   123.20997928
 O      1   2   3     2.511921700194   112.29663412   193.36400403
 C      2   1   3     2.903269812287   109.92574732    71.26055564
 H      2   1   3     2.058110339586   109.01402918   190.86841424
 H      2   1   3     2.059048064930   109.30710308   311.34390047
 C      6   2   1     2.903955031271   113.21040190   304.04878069
 H      6   2   1     2.061639421323   109.51270532    64.71147470
 H      6   2   1     2.058538789273   108.14970681   183.54906592
 C      9   6   2     2.893920747580   110.28405696    77.77748912
 O     12   9   6     2.274529206400   125.27847223    25.92914430
 N      4   3   2     1.915819192576    36.63248124    18.59892844
 H      5   1   2     1.833579386648   111.15265604   174.08589526
 O     12   9   6     2.521088957430   111.87452983   203.94376557
 H      9   6   2     2.078196868713   107.55739139   192.15697971
 O      1   2   3     2.279476467112   124.82856897    12.36442823
 H     16  12   9     1.832287000965   110.56074600   177.86723627

---------------------
BASIS SET INFORMATION
---------------------
There are 4 groups of distinct atoms

 Group   1 Type C   : 10s4p1d contracted to 3s2p1d pattern {631/31/1}
 Group   2 Type H   : 4s1p contracted to 2s1p pattern {31/1}
 Group   3 Type O   : 10s4p1d contracted to 3s2p1d pattern {631/31/1}
 Group   4 Type N   : 10s4p1d contracted to 3s2p1d pattern {631/31/1}

Atom   0C    basis set group =>   1
Atom   1C    basis set group =>   1
Atom   2H    basis set group =>   2
Atom   3H    basis set group =>   2
Atom   4O    basis set group =>   3
Atom   5C    basis set group =>   1
Atom   6H    basis set group =>   2
Atom   7H    basis set group =>   2
Atom   8C    basis set group =>   1
Atom   9H    basis set group =>   2
Atom  10H    basis set group =>   2
Atom  11C    basis set group =>   1
Atom  12O    basis set group =>   3
Atom  13N    basis set group =>   4
Atom  14H    basis set group =>   2
Atom  15O    basis set group =>   3
Atom  16H    basis set group =>   2
Atom  17O    basis set group =>   3
Atom  18H    basis set group =>   2
------------------------------------------------------------------------------
                             ORCA STARTUP CALCULATIONS
------------------------------------------------------------------------------
------------------------------------------------------------------------------
                   ___                                                        
                  /   \      - P O W E R E D   B Y -                         
                 /     \                                                     
                 |  |  |   _    _      __       _____    __    __             
                 |  |  |  | |  | |    /  \     |  _  \  |  |  /  |          
                  \  \/   | |  | |   /    \    | | | |  |  | /  /          
                 / \  \   | |__| |  /  /\  \   | |_| |  |  |/  /          
                |  |  |   |  __  | /  /__\  \  |    /   |      \           
                |  |  |   | |  | | |   __   |  |    \   |  |\   \          
                \     /   | |  | | |  |  |  |  | |\  \  |  | \   \       
                 \___/    |_|  |_| |__|  |__|  |_| \__\ |__|  \__/        
                                                                              
                      - O R C A' S   B I G   F R I E N D -                    
                                      &                                       
                       - I N T E G R A L  F E E D E R -                       
                                                                              
 v1 FN, 2020, v2 2021, v3 2022-2024                                           
------------------------------------------------------------------------------


----------------------
SHARK INTEGRAL PACKAGE
----------------------

Number of atoms                             ...     19
Number of basis functions                   ...    185
Number of shells                            ...     87
Maximum angular momentum                    ...      2
Integral batch strategy                     ... SHARK/LIBINT Hybrid
RI-J (if used) integral strategy            ... SPLIT-RIJ (Revised 2003 algorithm where possible)
Printlevel                                  ...      1
Contraction scheme used                     ... SEGMENTED contraction
Prescreening option                         ... SCHWARTZ
   Thresh                                   ... 1.000e-10
   Tcut                                     ... 1.000e-11
   Tpresel                                  ... 1.000e-11 
Coulomb Range Separation                    ... NOT USED
Exchange Range Separation                   ... NOT USED
Multipole approximations                    ... NOT USED
Finite Nucleus Model                        ... NOT USED
CABS basis                                  ... NOT available
Auxiliary Coulomb fitting basis             ... NOT available
Auxiliary J/K fitting basis                 ... NOT available
Auxiliary Correlation fitting basis         ... NOT available
Auxiliary 'external' fitting basis          ... NOT available

Checking pre-screening integrals            ... done (  0.0 sec) Dimension = 87
   => SHARK Basis and OBASIS are compatible. Storing Pre-screening
Shell pair information
Shell pair cut-off parameter TPreSel        ...   1.0e-11
Total number of shell pairs                 ...      3828
Shell pairs after pre-screening             ...      3525
Total number of primitive shell pairs       ...     19347
Primitive shell pairs kept                  ...     11546
          la=0 lb=0:   1065 shell pairs
          la=1 lb=0:   1271 shell pairs
          la=1 lb=1:    404 shell pairs
          la=2 lb=0:    454 shell pairs
          la=2 lb=1:    276 shell pairs
          la=2 lb=2:     55 shell pairs

Checking whether 4 symmetric matrices of dimension 185 fit in memory
:Max Core in MB      =   4096.00
 MB in use           =      6.03
 MB left             =   4089.97
 MB needed           =      0.53
 Data fit in memory  = YES
Calculating Nuclear repulsion               ... done (  0.0 sec) ENN=    592.511699526391 Eh

Diagonalization of the overlap matrix:
Smallest eigenvalue                        ... 3.026e-03
Time for diagonalization                   ...    0.002 sec
Threshold for overlap eigenvalues          ... 1.000e-07
Number of eigenvalues below threshold      ... 0
Time for construction of square roots      ...    0.001 sec
Total time needed                          ...    0.002 sec

-------------------
DFT GRID GENERATION
-------------------

General Integration Accuracy     IntAcc      ... 4.388
Radial Grid Type                 RadialGrid  ... OptM3 with GC (2021)
Angular Grid (max. ang.)         AngularGrid ... 4 (Lebedev-302)
Angular grid pruning method      GridPruning ... 4 (adaptive)
Weight generation scheme         WeightScheme... mBecke (2022)
Basis function cutoff            BFCut       ... 1.0000e-10
Integration weight cutoff        WCut        ... 1.0000e-14
Partially contracted basis set               ... off
Rotationally invariant grid construction     ... off
Angular grids for H and He will be reduced by one unit

Total number of grid points                  ...    89006
Total number of batches                      ...     1401
Average number of points per batch           ...       63
Average number of grid points per atom       ...     4685
Grids setup in   0.4 sec
Initializing property integral containers    ... done (  0.0 sec)

SHARK setup successfully completed in   0.4 seconds

Maximum memory used throughout the entire STARTUP-calculation: 35.7 MB
-------------------------------------------------------------------------------
                                 ORCA GUESS
                   Start orbitals & Density for SCF / CASSCF
-------------------------------------------------------------------------------

------------
SCF SETTINGS
------------
Hamiltonian:
 Ab initio Hamiltonian  Method          .... Hartree-Fock(GTOs)


General Settings:
 Integral files         IntName         .... 1
 Hartree-Fock type      HFTyp           .... RHF
 Total Charge           Charge          ....    0
 Multiplicity           Mult            ....    1
 Number of Electrons    NEL             ....   78
 Basis Dimension        Dim             ....  185
 Nuclear Repulsion      ENuc            ....    592.5116995264 Eh

Convergence Acceleration:
 AO-DIIS                CNVDIIS         .... on
   Start iteration      DIISMaxIt       ....    12
   Startup error        DIISStart       ....  0.200000
   # of expansion vecs  DIISMaxEq       ....     5
   Bias factor          DIISBfac        ....   1.050
   Max. coefficient     DIISMaxC        ....  10.000
 MO-DIIS                CNVKDIIS        .... off
 Trust-Rad. Augm. Hess. CNVTRAH         .... auto
   Auto Start mean grad. ratio tolernc. ....  1.125000
   Auto Start start iteration           ....    50
   Auto Start num. interpolation iter.  ....    10
   Max. Number of Micro iterations      ....    24
   Max. Number of Macro iterations      .... Maxiter - #DIIS iter
   Number of Davidson start vectors     ....     2
   Converg. threshold    (grad. norm)   ....   5.000e-05
   Grad. Scal. Fac. for Micro threshold ....   0.100
   Minimum threshold for Micro iter.    ....   1.000e-02
   NR start threshold (gradient norm)   ....   1.000e-04
   Initial trust radius                 ....   0.400
   Minimum AH scaling param. (alpha)    ....   1.000
   Maximum AH scaling param. (alpha)    .... 1000.000
   Quad. conv. algorithm                .... NR
   White noise on init. David. guess    .... on
   Maximum white noise                  ....   0.010
   Pseudo random numbers                .... off
   Inactive MOs                         .... canonical
   Orbital update algorithm             .... Taylor
   Preconditioner                       .... Diag
   Full preconditioner red. dimension   ....   250
 SOSCF                 CNVSOSCF           .... on
   Start iteration     SOSCFMaxIt         ....   150
   Startup grad/error  SOSCFStart         ....  0.003300
   Hessian update      SOSCFHessUp        .... L-BFGS
   Autom. constraints  SOSCFAutoConstrain .... off
 Level Shifting         CNVShift        .... on
   Level shift para.    LevelShift      ....    0.2500
   Turn off err/grad.   ShiftErr        ....    0.0010
 Zerner damping         CNVZerner       .... off
 Static damping         CNVDamp         .... on
   Fraction old density DampFac         ....    0.7000
   Max. Damping (<1)    DampMax         ....    0.9800
   Min. Damping (>=0)   DampMin         ....    0.0000
   Turn off err/grad.   DampErr         ....    0.1000

SCF Procedure:
 Maximum # iterations   MaxIter         ....   125
 SCF integral mode      SCFMode         .... Direct
   Integral package                     .... SHARK and LIBINT hybrid scheme
 Reset frequency        DirectResetFreq ....    20
 Integral Threshold     Thresh          ....  1.000e-10 Eh
 Primitive CutOff       TCut            ....  1.000e-11 Eh

Convergence Tolerance:
 Convergence Check Mode ConvCheckMode   .... Total+1el-Energy
 Convergence forced     ConvForced      .... 1
 Energy Change          TolE            ....  1.000e-06 Eh
 1-El. energy change                    ....  1.000e-03 Eh
 Orbital Gradient       TolG            ....  5.000e-05
 Orbital Rotation angle TolX            ....  5.000e-05
 DIIS Error             TolErr          ....  1.000e-06

------------------------------
INITIAL GUESS: MODEL POTENTIAL
------------------------------
Loading Hartree-Fock densities                     ... done
Calculating cut-offs                               ... done
Initializing the effective Hamiltonian             ... done
Setting up the integral package (SHARK)            ... done
Starting the Coulomb interaction                   ... done (   0.1 sec)
Making the grid                                    ... done (   0.1 sec)
Mapping shells                                     ... done
Starting the XC term evaluation                    ... done (   0.0 sec)
Transforming the Hamiltonian                       ... done (   0.0 sec)
Diagonalizing the Hamiltonian                      ... done (   0.0 sec)
Back transforming the eigenvectors                 ... done (   0.0 sec)
Now organizing SCF variables                       ... done
                      ------------------
                      INITIAL GUESS DONE (   0.2 sec)
                      ------------------
             **** ENERGY FILE WAS UPDATED (1.en.tmp) ****
Finished Guess after   0.2 sec
Maximum memory used throughout the entire GUESS-calculation: 11.5 MB

-------------------------------------------------------------------------------------------
                                      ORCA LEAN-SCF
                              memory conserving SCF solver
-------------------------------------------------------------------------------------------

----------------------------------------D-I-I-S--------------------------------------------
Iteration    Energy (Eh)           Delta-E    RMSDP     MaxDP     DIISErr   Damp  Time(sec)
-------------------------------------------------------------------------------------------
               ***  Starting incremental Fock matrix formation  ***
    1    -548.1195105041352917     0.00e+00  2.52e-03  6.23e-02  2.53e-01  0.700   1.9
    2    -548.2704410628329015    -1.51e-01  1.85e-03  4.49e-02  1.56e-01  0.700   1.8
                               ***Turning on AO-DIIS***
    3    -548.3578384672908896    -8.74e-02  1.00e-03  2.05e-02  8.91e-02  0.700   1.8
    4    -548.4129705022663757    -5.51e-02  2.32e-03  4.75e-02  6.31e-02  0.000   1.7
    5    -548.5362524961245754    -1.23e-01  2.97e-04  6.27e-03  6.16e-03  0.000   1.8
    6    -548.5368422478662751    -5.90e-04  1.43e-04  2.50e-03  3.76e-03  0.000   1.7
                              *** Initializing SOSCF ***
---------------------------------------S-O-S-C-F--------------------------------------
Iteration    Energy (Eh)           Delta-E    RMSDP     MaxDP     MaxGrad    Time(sec)
--------------------------------------------------------------------------------------
    7    -548.5369773315209159    -1.35e-04  8.69e-05  2.19e-03  2.02e-03     1.6
               *** Restarting incremental Fock matrix formation ***
    8    -548.5370203262999667    -4.30e-05  4.14e-05  7.31e-04  6.10e-04     1.9
    9    -548.5370300544740303    -9.73e-06  4.49e-05  1.24e-03  3.55e-04     1.5
   10    -548.5370336987763267    -3.64e-06  7.67e-06  2.38e-04  9.24e-05     1.5
   11    -548.5370339210281827    -2.22e-07  2.72e-06  7.75e-05  4.61e-05     1.3
                 **** Energy Check signals convergence ****

               *****************************************************
               *                     SUCCESS                       *
               *           SCF CONVERGED AFTER  11 CYCLES          *
               *****************************************************

             **** ENERGY FILE WAS UPDATED (1.en.tmp) ****

----------------
TOTAL SCF ENERGY
----------------

Total Energy       :       -548.53703396590538 Eh          -14926.45154 eV

Components:
Nuclear Repulsion  :        592.51169952639077 Eh           16123.06302 eV
Electronic Energy  :      -1141.04873349229615 Eh          -31049.51457 eV
One Electron Energy:      -1928.72896715094635 Eh          -52483.38340 eV
Two Electron Energy:        787.68023365865020 Eh           21433.86883 eV

Virial components:
Potential Energy   :      -1096.35623092531569 Eh          -29833.36974 eV
Kinetic Energy     :        547.81919695941019 Eh           14906.91820 eV
Virial Ratio       :          2.00131035387310

---------------
SCF CONVERGENCE
---------------

  Last Energy change         ...    2.2225e-07  Tolerance :   1.0000e-06
  Last MAX-Density change    ...    7.7521e-05  Tolerance :   1.0000e-05
  Last RMS-Density change    ...    2.7168e-06  Tolerance :   1.0000e-06
  Last DIIS Error            ...    2.0181e-03  Tolerance :   1.0000e-06
  Last Orbital Gradient      ...    4.6063e-05  Tolerance :   5.0000e-05
  Last Orbital Rotation      ...    4.4495e-05  Tolerance :   5.0000e-05


----------------
ORBITAL ENERGIES
----------------

  NO   OCC          E(Eh)            E(eV) 
   0   2.0000     -20.615776      -560.9838 
   1   2.0000     -20.612768      -560.9019 
   2   2.0000     -20.554284      -559.3105 
   3   2.0000     -20.548799      -559.1613 
   4   2.0000     -15.544049      -422.9751 
   5   2.0000     -11.390217      -309.9436 
   6   2.0000     -11.382300      -309.7281 
   7   2.0000     -11.277156      -306.8670 
   8   2.0000     -11.244348      -305.9743 
   9   2.0000     -11.239596      -305.8450 
  10   2.0000      -1.471901       -40.0525 
  11   2.0000      -1.464584       -39.8534 
  12   2.0000      -1.364215       -37.1222 
  13   2.0000      -1.359176       -36.9851 
  14   2.0000      -1.198697       -32.6182 
  15   2.0000      -1.074837       -29.2478 
  16   2.0000      -0.977969       -26.6119 
  17   2.0000      -0.896912       -24.4062 
  18   2.0000      -0.829048       -22.5595 
  19   2.0000      -0.781052       -21.2535 
  20   2.0000      -0.716367       -19.4933 
  21   2.0000      -0.706502       -19.2249 
  22   2.0000      -0.699213       -19.0265 
  23   2.0000      -0.684767       -18.6335 
  24   2.0000      -0.671338       -18.2680 
  25   2.0000      -0.647673       -17.6241 
  26   2.0000      -0.612511       -16.6673 
  27   2.0000      -0.601745       -16.3743 
  28   2.0000      -0.585275       -15.9261 
  29   2.0000      -0.578875       -15.7520 
  30   2.0000      -0.563146       -15.3240 
  31   2.0000      -0.529288       -14.4027 
  32   2.0000      -0.509988       -13.8775 
  33   2.0000      -0.496553       -13.5119 
  34   2.0000      -0.482810       -13.1379 
  35   2.0000      -0.472121       -12.8471 
  36   2.0000      -0.464236       -12.6325 
  37   2.0000      -0.445169       -12.1137 
  38   2.0000      -0.388988       -10.5849 
  39   0.0000       0.179360         4.8806 
  40   0.0000       0.188490         5.1291 
  41   0.0000       0.217435         5.9167 
  42   0.0000       0.231880         6.3098 
  43   0.0000       0.253619         6.9013 
  44   0.0000       0.271977         7.4009 
  45   0.0000       0.293663         7.9910 
  46   0.0000       0.299274         8.1437 
  47   0.0000       0.323341         8.7986 
  48   0.0000       0.344177         9.3655 
  49   0.0000       0.351041         9.5523 
*Only the first 10 virtual orbitals were printed.

                    ********************************
                    * MULLIKEN POPULATION ANALYSIS *
                    ********************************

-----------------------
MULLIKEN ATOMIC CHARGES
-----------------------
   0 C :    0.807968
   1 C :   -0.313549
   2 H :    0.299978
   3 H :    0.283658
   4 O :   -0.624213
   5 C :   -0.224053
   6 H :    0.163249
   7 H :    0.173154
   8 C :   -0.058626
   9 H :    0.167004
  10 H :    0.145884
  11 C :    0.829374
  12 O :   -0.607197
  13 N :   -0.698856
  14 H :    0.373972
  15 O :   -0.640620
  16 H :    0.164362
  17 O :   -0.613767
  18 H :    0.372279
Sum of atomic charges:   -0.0000000

--------------------------------
MULLIKEN REDUCED ORBITAL CHARGES
--------------------------------
  0 C s       :     2.957653  s :     2.957653
      pz      :     0.761627  p :     2.084701
      px      :     0.610484
      py      :     0.712589
      dz2     :     0.033847  d :     0.149679
      dxz     :     0.028672
      dyz     :     0.058872
      dx2y2   :     0.014135
      dxy     :     0.014152

  1 C s       :     3.262204  s :     3.262204
      pz      :     1.017463  p :     3.005504
      px      :     0.995770
      py      :     0.992271
      dz2     :     0.006652  d :     0.045842
      dxz     :     0.008318
      dyz     :     0.013603
      dx2y2   :     0.010797
      dxy     :     0.006473

  2 H s       :     0.673433  s :     0.673433
      pz      :     0.006861  p :     0.026589
      px      :     0.013147
      py      :     0.006581

  3 H s       :     0.690243  s :     0.690243
      pz      :     0.010465  p :     0.026099
      px      :     0.008419
      py      :     0.007215

  4 O s       :     3.835889  s :     3.835889
      pz      :     1.657514  p :     4.762596
      px      :     1.823778
      py      :     1.281304
      dz2     :     0.003437  d :     0.025728
      dxz     :     0.003163
      dyz     :     0.013527
      dx2y2   :     0.003065
      dxy     :     0.002537

  5 C s       :     3.241985  s :     3.241985
      pz      :     0.961043  p :     2.934160
      px      :     0.876714
      py      :     1.096403
      dz2     :     0.006986  d :     0.047908
      dxz     :     0.009922
      dyz     :     0.012285
      dx2y2   :     0.012644
      dxy     :     0.006072

  6 H s       :     0.823992  s :     0.823992
      pz      :     0.007383  p :     0.012759
      px      :     0.003352
      py      :     0.002023

  7 H s       :     0.813994  s :     0.813994
      pz      :     0.002599  p :     0.012852
      px      :     0.002639
      py      :     0.007614

  8 C s       :     3.217961  s :     3.217961
      pz      :     0.907121  p :     2.770441
      px      :     1.053440
      py      :     0.809880
      dz2     :     0.011819  d :     0.070224
      dxz     :     0.011960
      dyz     :     0.019857
      dx2y2   :     0.017083
      dxy     :     0.009504

  9 H s       :     0.820175  s :     0.820175
      pz      :     0.002891  p :     0.012822
      px      :     0.002578
      py      :     0.007352

 10 H s       :     0.841534  s :     0.841534
      pz      :     0.004497  p :     0.012583
      px      :     0.001770
      py      :     0.006316

 11 C s       :     2.942268  s :     2.942268
      pz      :     0.644678  p :     2.081261
      px      :     0.611322
      py      :     0.825261
      dz2     :     0.043251  d :     0.147097
      dxz     :     0.020257
      dyz     :     0.042796
      dx2y2   :     0.018935
      dxy     :     0.021858

 12 O s       :     3.879420  s :     3.879420
      pz      :     1.753344  p :     4.695271
      px      :     1.507695
      py      :     1.434231
      dz2     :     0.003776  d :     0.032507
      dxz     :     0.002125
      dyz     :     0.008810
      dx2y2   :     0.006879
      dxy     :     0.010917

 13 N s       :     3.605055  s :     3.605055
      pz      :     1.349584  p :     4.059436
      px      :     1.220216
      py      :     1.489635
      dz2     :     0.003203  d :     0.034365
      dxz     :     0.012988
      dyz     :     0.005954
      dx2y2   :     0.005084
      dxy     :     0.007137

 14 H s       :     0.584386  s :     0.584386
      pz      :     0.015212  p :     0.041642
      px      :     0.008714
      py      :     0.017716

 15 O s       :     3.839878  s :     3.839878
      pz      :     1.351533  p :     4.775163
      px      :     1.832559
      py      :     1.591071
      dz2     :     0.008383  d :     0.025579
      dxz     :     0.003808
      dyz     :     0.006920
      dx2y2   :     0.004760
      dxy     :     0.001707

 16 H s       :     0.823295  s :     0.823295
      pz      :     0.002231  p :     0.012343
      px      :     0.007883
      py      :     0.002230

 17 O s       :     3.879721  s :     3.879721
      pz      :     1.361189  p :     4.701979
      px      :     1.513789
      py      :     1.827001
      dz2     :     0.011958  d :     0.032067
      dxz     :     0.012659
      dyz     :     0.007084
      dx2y2   :     0.000182
      dxy     :     0.000184

 18 H s       :     0.586020  s :     0.586020
      pz      :     0.011207  p :     0.041702
      px      :     0.008986
      py      :     0.021508



                     *******************************
                     * LOEWDIN POPULATION ANALYSIS *
                     *******************************

----------------------
LOEWDIN ATOMIC CHARGES
----------------------
   0 C :    0.248568
   1 C :   -0.132213
   2 H :    0.135301
   3 H :    0.133653
   4 O :   -0.190832
   5 C :   -0.094955
   6 H :    0.087251
   7 H :    0.090321
   8 C :   -0.027692
   9 H :    0.083472
  10 H :    0.077302
  11 C :    0.230109
  12 O :   -0.322797
  13 N :   -0.283293
  14 H :    0.203504
  15 O :   -0.201133
  16 H :    0.088941
  17 O :   -0.327156
  18 H :    0.201648

-------------------------------
LOEWDIN REDUCED ORBITAL CHARGES
-------------------------------
  0 C s       :     2.840144  s :     2.840144
      pz      :     1.027395  p :     2.589552
      px      :     0.655026
      py      :     0.907131
      dz2     :     0.074535  d :     0.321736
      dxz     :     0.056253
      dyz     :     0.132809
      dx2y2   :     0.029337
      dxy     :     0.028802

  1 C s       :     2.895065  s :     2.895065
      pz      :     1.051151  p :     3.150596
      px      :     1.054674
      py      :     1.044772
      dz2     :     0.012415  d :     0.086551
      dxz     :     0.015501
      dyz     :     0.025737
      dx2y2   :     0.020613
      dxy     :     0.012284

  2 H s       :     0.780275  s :     0.780275
      pz      :     0.022196  p :     0.084424
      px      :     0.039990
      py      :     0.022238

  3 H s       :     0.784094  s :     0.784094
      pz      :     0.033126  p :     0.082253
      px      :     0.025942
      py      :     0.023184

  4 O s       :     3.452940  s :     3.452940
      pz      :     1.634764  p :     4.689183
      px      :     1.770946
      py      :     1.283473
      dz2     :     0.005981  d :     0.048709
      dxz     :     0.003091
      dyz     :     0.024204
      dx2y2   :     0.010111
      dxy     :     0.005323

  5 C s       :     2.890639  s :     2.890639
      pz      :     1.034630  p :     3.113916
      px      :     0.991461
      py      :     1.087824
      dz2     :     0.014221  d :     0.090400
      dxz     :     0.020496
      dyz     :     0.020652
      dx2y2   :     0.023763
      dxy     :     0.011268

  6 H s       :     0.871573  s :     0.871573
      pz      :     0.022623  p :     0.041176
      px      :     0.011422
      py      :     0.007131

  7 H s       :     0.868052  s :     0.868052
      pz      :     0.008840  p :     0.041627
      px      :     0.009764
      py      :     0.023022

  8 C s       :     2.871371  s :     2.871371
      pz      :     1.001214  p :     3.016039
      px      :     1.051964
      py      :     0.962862
      dz2     :     0.024284  d :     0.140282
      dxz     :     0.023361
      dyz     :     0.040636
      dx2y2   :     0.033514
      dxy     :     0.018486

  9 H s       :     0.874672  s :     0.874672
      pz      :     0.010657  p :     0.041856
      px      :     0.009046
      py      :     0.022154

 10 H s       :     0.882328  s :     0.882328
      pz      :     0.014620  p :     0.040370
      px      :     0.006562
      py      :     0.019188

 11 C s       :     2.851229  s :     2.851229
      pz      :     0.886598  p :     2.599857
      px      :     0.661236
      py      :     1.052022
      dz2     :     0.097156  d :     0.318806
      dxz     :     0.041613
      dyz     :     0.097237
      dx2y2   :     0.040859
      dxy     :     0.041941

 12 O s       :     3.546150  s :     3.546150
      pz      :     1.729154  p :     4.719638
      px      :     1.476212
      py      :     1.514272
      dz2     :     0.008068  d :     0.057008
      dxz     :     0.002479
      dyz     :     0.017873
      dx2y2   :     0.016808
      dxy     :     0.011780

 13 N s       :     3.184774  s :     3.184774
      pz      :     1.339680  p :     4.037923
      px      :     1.207316
      py      :     1.490926
      dz2     :     0.005830  d :     0.060596
      dxz     :     0.020760
      dyz     :     0.011404
      dx2y2   :     0.010418
      dxy     :     0.012184

 14 H s       :     0.676269  s :     0.676269
      pz      :     0.045674  p :     0.120227
      px      :     0.026869
      py      :     0.047684

 15 O s       :     3.453471  s :     3.453471
      pz      :     1.359475  p :     4.699254
      px      :     1.779506
      py      :     1.560274
      dz2     :     0.018416  d :     0.048408
      dxz     :     0.006549
      dyz     :     0.015745
      dx2y2   :     0.006201
      dxy     :     0.001498

 16 H s       :     0.872014  s :     0.872014
      pz      :     0.008360  p :     0.039045
      px      :     0.023253
      py      :     0.007432

 17 O s       :     3.547301  s :     3.547301
      pz      :     1.462773  p :     4.723486
      px      :     1.478740
      py      :     1.781974
      dz2     :     0.028534  d :     0.056368
      dxz     :     0.013836
      dyz     :     0.013227
      dx2y2   :     0.000430
      dxy     :     0.000341

 18 H s       :     0.677647  s :     0.677647
      pz      :     0.031333  p :     0.120705
      px      :     0.027627
      py      :     0.061745



                      *****************************
                      * MAYER POPULATION ANALYSIS *
                      *****************************

  NA   - Mulliken gross atomic population
  ZA   - Total nuclear charge
  QA   - Mulliken gross atomic charge
  VA   - Mayer's total valence
  BVA  - Mayer's bonded valence
  FA   - Mayer's free valence

  ATOM       NA         ZA         QA         VA         BVA        FA
  0 C      5.1920     6.0000     0.8080     3.6895     3.6895    -0.0000
  1 C      6.3135     6.0000    -0.3135     3.7553     3.7553    -0.0000
  2 H      0.7000     1.0000     0.3000     0.9032     0.9032    -0.0000
  3 H      0.7163     1.0000     0.2837     0.9037     0.9037    -0.0000
  4 O      8.6242     8.0000    -0.6242     1.8593     1.8593    -0.0000
  5 C      6.2241     6.0000    -0.2241     3.7800     3.7800     0.0000
  6 H      0.8368     1.0000     0.1632     0.9449     0.9449    -0.0000
  7 H      0.8268     1.0000     0.1732     0.9427     0.9427    -0.0000
  8 C      6.0586     6.0000    -0.0586     3.7648     3.7648     0.0000
  9 H      0.8330     1.0000     0.1670     0.9442     0.9442     0.0000
 10 H      0.8541     1.0000     0.1459     0.9473     0.9473     0.0000
 11 C      5.1706     6.0000     0.8294     3.6620     3.6620     0.0000
 12 O      8.6072     8.0000    -0.6072     1.8526     1.8526    -0.0000
 13 N      7.6989     7.0000    -0.6989     2.7414     2.7414    -0.0000
 14 H      0.6260     1.0000     0.3740     0.8707     0.8707    -0.0000
 15 O      8.6406     8.0000    -0.6406     1.8416     1.8416     0.0000
 16 H      0.8356     1.0000     0.1644     0.9393     0.9393     0.0000
 17 O      8.6138     8.0000    -0.6138     1.8474     1.8474    -0.0000
 18 H      0.6277     1.0000     0.3723     0.8725     0.8725    -0.0000

  Mayer bond orders larger than 0.100000
B(  0-C ,  1-C ) :   0.9375 B(  0-C ,  4-O ) :   1.0067 B(  0-C , 17-O ) :   1.7490 
B(  1-C ,  5-C ) :   0.9589 B(  1-C ,  6-H ) :   0.9619 B(  1-C ,  7-H ) :   0.9591 
B(  2-H , 13-N ) :   0.8824 B(  3-H , 13-N ) :   0.9038 B(  4-O , 14-H ) :   0.8397 
B(  5-C ,  8-C ) :   0.9582 B(  5-C ,  9-H ) :   0.9555 B(  5-C , 10-H ) :   0.9704 
B(  8-C , 11-C ) :   0.9180 B(  8-C , 13-N ) :   0.9752 B(  8-C , 16-H ) :   0.9597 
B( 11-C , 12-O ) :   1.7654 B( 11-C , 15-O ) :   0.9816 B( 15-O , 18-H ) :   0.8410 


-------
TIMINGS
-------

Total SCF time: 0 days 0 hours 0 min 19 sec 

Total time                  ....      19.606 sec
Sum of individual times     ....      18.427 sec  ( 94.0%)

SCF preparation             ....       0.015 sec  (  0.1%)
Fock matrix formation       ....      18.360 sec  ( 93.6%)
  Startup                   ....       0.001 sec  (  0.0% of F)
  Coulomb+Exchange Fock     ....      19.530 sec  (106.4% of F)
Diagonalization             ....       0.000 sec  (  0.0%)
Density matrix formation    ....       0.004 sec  (  0.0%)
Total Energy calculation    ....       0.001 sec  (  0.0%)
Population analysis         ....       0.003 sec  (  0.0%)
Orbital Transformation      ....       0.005 sec  (  0.0%)
Orbital Orthonormalization  ....       0.000 sec  (  0.0%)
DIIS solution               ....       0.028 sec  (  0.1%)
SOSCF solution              ....       0.010 sec  (  0.0%)
Finished LeanSCF after  19.6 sec

Maximum memory used throughout the entire LEANSCF-calculation: 15.1 MB

------------------------------------------------------------------------------
                                ORCA  MP2 
------------------------------------------------------------------------------

Freezing NCore=20 chemical core electrons

----------
MP2 ENERGY (disk based algorithm)
----------

Dimension of the basis                      ...  185
Memory devoted to MP2                       ... 4096 MB   
Data format for buffers                     ... DOUBLE
Compression type for matrix containers      ... UNCOMPRESSED

-------------------------
SHARK HALF TRANSFORMATION (Exchange order)
-------------------------

Number of basis functions                   ...    185
Number of operators                         ...      1
   Operator  0:   10-  38 (p-index in (p*|q*))
   Operator  0:   10-  38 (q-index in (p*|q*)
Integral generator used                     ... SHARK
Contraction scheme used                     ... SEGMENTED CONTRACTION
MaxCore in resort                           ...   4096 MB

Half transformed integrals for op=   0      ... 1.SHARK_MNPQ0.tmp
Resorted half transformed integrals         ... 1.KAO_aa.tmp

Half trafo (segmented) done. Total time = 11.5 sec. integrals= 10.5 sec trafo=  0.9 sec

----------------------
SHARK INTEGRAL SORTING (Exchange)
----------------------

Input container                             ... 1.SHARK_MNPQ0.tmp
Output container                            ... 1.KAO_aa.tmp
Range of AO-indices                         ...    0 -  184
Range of bra indices i                      ...   10 -   38
Range of ket indices j                      ...   10 -   38
Symmetric i,j range                         ... YES
Number of (i,j) pairs generated             ...  435
Max Core memory in MB                       ...   4096

Available core memory in MB                 ...   4086.24
MB needed for one item                      ...      0.26
Fixed MB needed                             ...      0.00
Number of items                             ...       435
Number of batches                           ...         1
Items treated per batch                     ...       435
Batch   0                                   ...      0-   434 (   435)
   => Closing output file and leaving
done (  0.1 sec)

SHARK half integral transformation done. Total time = 11.6 sec.


Finished integral transformation - now doing MP2 part

OPERATOR COMBINATION   0   0: ij=( 10.. 38, 10.. 38)
  Internal MO  12
  Internal MO  15
  Internal MO  18
  Internal MO  21
  Internal MO  24
  Internal MO  27
  Internal MO  30
  Internal MO  33
  Internal MO  36
-----------------------------------------------
 MP2 CORRELATION ENERGY   :     -1.548327505 Eh
-----------------------------------------------


-------
TIMINGS
-------
Total time                :   11.786 sec
Integral trafo            :   11.635 sec ( 98.7%)
K(i,j)                    :    0.123 sec (  1.0%)
T(i,j)                    :    0.004 sec (  0.0%)

---------------------------------------
MP2 TOTAL ENERGY:     -550.085361471 Eh
---------------------------------------

Maximum memory used throughout the entire MP2-calculation: 124.4 MB

-------------------------   --------------------
FINAL SINGLE POINT ENERGY      -550.085361470718
-------------------------   --------------------


------------------------------------------------------------------------------
                              ORCA PROPERTY CALCULATIONS
------------------------------------------------------------------------------

GBWName                                 ... 1.gbw
Number of atoms                         ...     19
Number of basis functions               ...    185
Max core memory                         ...   4096 MB

Electric properties:
Dipole moment                           ... YES
Quadrupole moment                       ...  NO
Static polarizability (Dipole/Dipole)   ...  NO
Static polarizability (Dipole/Quad.)    ...  NO
Static polarizability (Quad./Quad.)     ...  NO
Static polarizability (Velocity)        ...  NO
Static hyperpolarizability              ...  NO

Atomic electric properties:
Dipole moment                           ...  NO
Quadrupole moment                       ...  NO
Static polarizability                   ...  NO

Choice of electric origin               ... Center of mass
Position of electric origin             ...    -2.423657     0.803003     0.717535

General magnetic properties:
Magnetizability                         ...  NO

EPR properties:
g-Tensor (aka g-matrix)                 ...  NO
Zero-Field splitting spin-orbit         ...  NO
Zero-field splitting spin-spin          ...  NO
Hyperfine couplings                     ...  NO (   0 nuclei)
Quadrupole couplings                    ...  NO (   0 nuclei)
Contact density                         ...  NO (   0 nuclei)

NMR properties:
Chemical shifts                         ...  NO (   0 nuclei)
Spin-rotation constants                 ...  NO (   0 nuclei)
Spin-spin couplings                     ...  NO (   0 nuclei,    0 pairs)

Choice of magnetic origin               ... GIAO
Position of magnetic origin             ...     0.000000     0.000000     0.000000

Properties with geometric perturbations:
SCF Hessian                             ...  NO
IR spectrum                             ...  NO
VCD spectrum                            ...  NO
X-ray spectroscopy properties:
SCF XES/XAS/RIXS spectra                ...  NO

SCF SOC stabilization energy            ...  NO
Diagonal Born-Oppenheimer correction    ...  NO

-------------
DIPOLE MOMENT
-------------

Method             : SCF
Type of density    : Electron Density
Multiplicity       :   1
Irrep              :   0
Energy             :  -548.5370339659053798 Eh
Basis              : AO
                                X                 Y                 Z
Electronic contribution:     -0.205875739      -5.249680360       3.301916360
Nuclear contribution   :      0.303912613       5.235373544      -3.285442046
                        -----------------------------------------
Total Dipole Moment    :      0.098036874      -0.014306816       0.016474314
                        -----------------------------------------
Magnitude (a.u.)       :      0.100435634
Magnitude (Debye)      :      0.255287094



--------------------
Rotational spectrum 
--------------------
 
Rotational constants in cm-1:             0.060729             0.041148             0.034378 
Rotational constants in MHz :          1820.603142          1233.590236          1030.639542 

Dipole components along the rotational axes: 
x,y,z [a.u.] :    -0.082328     0.033823     0.046535 
x,y,z [Debye]:    -0.209260     0.085970     0.118283 

 

Dipole moment calculation done in   0.0 sec 

Maximum memory used throughout the entire PROP-calculation: 9.9 MB

--------------------------------
SUGGESTED CITATIONS FOR THIS RUN
--------------------------------

Below you find a list of papers that are relevant to this ORCA run
We neither can nor want to force you to cite these papers, but we appreciate if you do
You receive ORCA, which is the product of decades of hard work by many enthusiastic individuals, for free
The only thing we kindly ask in return is that you cite our papers,
We deeply appreciate it, if you show your appreciation for ORCA by not just citing the generic ORCA reference.

Please note that relegating all ORCA citations to the supporting information does *not* help us.
SI sections are not indexed - citations you put there will not count into any citation statistics
But we need these citations in order to attract the funding resources that allow us to do what we are doing

Therefore, if you are a happy ORCA user, please consider citing a few of the papers listed below in the main body of your paper

In addition to the list printed below, the program has created the file 1.bibtex that contains the list in bibtex format
You can import this file easily into all common literature databanks and citation aid programs


List of essential papers. We consider these as the minimum necessary citations

  1. Neese, F.
     Software update: the ORCA program system, version 6.0
     WIRES Comput. Molec. Sci. 2025 15(1), e70019
     doi.org/10.1002/wcms.7019

List of papers to cite with high priority. The work reported in these papers was absolutely
necessary for this run to complete.
Our perspective: the developers of density functionals and basis sets usually get cited in chemistry papers
Good! But without the algorithms to do something with them, the functionals or basis sets would not do anything.
Hence, in our opinion, the algorithm design and method developments papers are equally worthy of getting cited

  1. Neese, F.
     The SHARK Integral Generation and Digestion System
     J. Comp. Chem. 2022 44(3), 381
     doi.org/10.1002/jcc.26942

List of suggested additional citations. These are papers that are important in the 'surrounding' of 
of this run, or papers that preceded the highly important papers. If you like your results we are grateful for a citation.

  1. Neese, F.
     The ORCA program system
     WIRES Comput. Molec. Sci. 2012 2(1), 73-78
     doi.org/10.1002/wcms.81
  2. Neese, F.
     Software update: the ORCA program system, version 4.0
     WIRES Comput. Molec. Sci. 2018 8(1), 1-6
     doi.org/10.1002/wcms.1327
  3. Neese, F.; Wennmohs, F.; Becker, U.; Riplinger, C.
     The ORCA quantum chemistry program package
     J. Chem. Phys. 2020 152(22), 224108
     doi.org/10.1063/5.0004608
  4. Neese, F.
     Software update: The ORCA program system—Version 5.0
     WIRES Comput. Molec. Sci. 2022 12(1), e1606
     doi.org/10.1002/wcms.1606

List of optional additional citations

  1. Neese, F.
     Approximate second-order SCF convergence for spin unrestricted wavefunctions
     Chem. Phys. Lett. 2000 325(1-3), 93-98
     doi.org/10.1016/s0009-2614(00)00662-x

Timings for individual modules:

Sum of individual times          ...       32.122 sec (=   0.535 min)
Startup calculation              ...        0.431 sec (=   0.007 min)   1.3 %
SCF iterations                   ...       19.857 sec (=   0.331 min)  61.8 %
Property calculations            ...        0.024 sec (=   0.000 min)   0.1 %
MP2 module                       ...       11.810 sec (=   0.197 min)  36.8 %
                             ****ORCA TERMINATED NORMALLY****
TOTAL RUN TIME: 0 days 0 hours 0 minutes 32 seconds 158 msec
