
                                 *****************
                                 * O   R   C   A *
                                 *****************

                                            #,                                       
                                            ###                                      
                                            ####                                     
                                            #####                                    
                                            ######                                   
                                           ########,                                 
                                     ,,################,,,,,                         
                               ,,#################################,,                 
                          ,,##########################################,,             
                       ,#########################################, ''#####,          
                    ,#############################################,,   '####,        
                  ,##################################################,,,,####,       
                ,###########''''           ''''###############################       
              ,#####''   ,,,,##########,,,,          '''####'''          '####       
            ,##' ,,,,###########################,,,                        '##       
           ' ,,###''''                  '''############,,,                           
         ,,##''                                '''############,,,,        ,,,,,,###''
      ,#''                                            '''#######################'''  
     '                                                          ''''####''''         
             ,#######,   #######,   ,#######,      ##                                
            ,#'     '#,  ##    ##  ,#'     '#,    #''#        ,####,    ,#,          
            ##       ##  ##   ,#'  ##            #'  '#       #'       ,# #          
            ##       ##  #######   ##           ,######,      #####,      #          
            '#,     ,#'  ##    ##  '#,     ,#' ,#      #,     #,   #      #          
             '#######'   ##     ##  '#######'  #'      '#     '####' #    #          



                #########################################################
                #                        -***-                          #
                #          Department of theory and spectroscopy        #
                #                                                       #
                #                      Frank Neese                      #
                #                                                       #
                #     Directorship, Architecture, Infrastructure        #
                #                    SHARK, DRIVERS                     #
                #        Core code/Algorithms in most modules           #
                #                                                       #
                #        Max Planck Institute fuer Kohlenforschung      #
                #                Kaiser Wilhelm Platz 1                 #
                #                 D-45470 Muelheim/Ruhr                 #
                #                      Germany                          #
                #                                                       #
                #                  All rights reserved                  #
                #                        -***-                          #
                #########################################################


                         Program Version 6.1.0  -  RELEASE   -
                                (GIT: $679e74b$)
                          ($2025-06-10 18:02:51 +0200$)


 With contributions from (in alphabetic order):
[Max-Planck-Institut fuer Kohlenforschung]                               
  Daniel Aravena         : Magnetic Suceptibility                        
  Michael Atanasov       : Ab Initio Ligand Field Theory (pilot matlab implementation)
  Alexander A. Auer      : GIAO ZORA, VPT2 properties, NMR spectrum      
  Ute Becker             : All parallelization in ORCA, NUMFREQ, NUMCALC 
  Giovanni Bistoni       : ED, misc. LED, open-shell LED, HFLD           
  Dmytro Bykov           : pre 5.0 version of the SCF Hessian            
  Marcos Casanova-Páez   : Triplet and SCS-CIS(D). UHF-(DLPNO)-IP/EA/STEOM-CCSD. UHF-CVS-IP/STEOM-CCSD   
  Vijay G. Chilkuri      : MRCI spin determinant printing, contributions to CSF-ICE 
  Pauline Colinet        : FMM embedding                                 
  Dipayan Datta          : RHF DLPNO-CCSD density                        
  Achintya Kumar Dutta   : EOM-CC, STEOM-CC                              
  Nicolas Foglia         : Exact transition moments, OPA infrastructure, MCD improvements    
  Dmitry Ganyushin       : Spin-Orbit,Spin-Spin,Magnetic field MRCI      
  Miquel Garcia-Rates    : C-PCM and meta-GGA Hessian, CCSD/C-PCM, Gaussian charge scheme 
  Tiago L. C. Gouveia    : GS-ROHF, GS-ROCIS                             
  Yang Guo               : DLPNO-NEVPT2, F12-NEVPT2, CIM, IAO-localization        
  Andreas Hansen         : Spin unrestricted coupled pair/coupled cluster methods 
  Ingolf Harden          : AUTO-CI MPn and infrastructure                
  Benjamin Helmich-Paris : MC-RPA, TRAH-(SCF,CASSCF), AVAS, COSX integrals, SCF dyn. polar., MC-PDFT, srDFT 
  Lee Huntington         : MR-EOM, pCC                                   
  Robert Izsak           : Overlap fitted RIJCOSX, COSX-SCS-MP3, EOM     
  Riya Kayal             : Wick's Theorem for AUTO-CI, AUTO-CI UHF-CCSDT 
  Emily Kempfer          : AUTO-CI RHF CISDT and CCSDT, approximate NEVPT4
  Christian Kollmar      : KDIIS, OOCD, Brueckner-CCSD(T), CCSD density, CASPT2, CASPT2-K, improved NEVPT2 
  Axel Koslowski         : Symmetry handling                             
  Simone Kossmann        : meta-GGA functionals, TD-DFT gradient, OOMP2, (MP2 Hessian; deprecated post 5.0) 
  Lucas Lang             : DCDCAS, Hyperfine gauge corrections, ICE-SOC+SSC
  Marvin Lechner         : AUTO-CI (C++ implementation), FIC-MRCC        
  Spencer Leger          : CASSCF response                               
  Dagmar Lenk            : GEPOL surface, SMD, ORCA-2-JSON               
  Dimitrios Liakos       : Extrapolation schemes; Compound Job, Property file
  Dimitrios Manganas     : Further ROCIS development; embedding schemes. LFT, Crystal Embedding 
  Dimitrios Pantazis     : SARC Basis sets                               
  Anastasios Papadopoulos: AUTO-CI, single reference methods and gradients 
  Taras Petrenko         : pre 6.0 DFT Hessian and TD-DFT gradient,  ECA, NRVS 
  Petra Pikulova         : Analytic Raman intensities                    
  Peter Pinski           : DLPNO-MP2, DLPNO-MP2 Gradient                 
  Shashank Vittal Rao    : ES-AILFT, MagRelax                            
  Christoph Reimann      : Effective Core Potentials                     
  Marius Retegan         : Local ZFS, SOC                                
  Christoph Riplinger    : Optimizer, TS searches, QM/MM, DLPNO-CCSD(T), (RO)-DLPNO pert. Triples 
  Michael Roemelt        : Original ROCIS implementation, recursive CI coupling coefficients
  Masaaki Saitow         : Open-shell DLPNO-CCSD energy and density      
  Barbara Sandhoefer     : DKH picture change effects                    
  Yorick L. A. Schmerwitz: GMF and freeze-and-release deltaSCF, NEB S-IDPP initial path                    
  Kantharuban Sivalingam : CASSCF convergence/infrastructure, NEVPT2, NEVPT3, NEVPT4(SD), FIC-MRCI and CEPA variants
  Bernardo de Souza      : ESD, SOC TD-DFT                               
  Georgi L. Stoychev     : AutoAux, RI-MP2 NMR, DLPNO-MP2 response, X2C  
  Van Anh Tran           : RI-MP2 g-tensors                              
  Willem Van den Heuvel  : Paramagnetic NMR                              
  Zikuan Wang            : NOTCH, Electric field optimization            
  Frank Wennmohs         : Technical directorship and infrastructure     
  Hang Xu                : AUTO-CI-Response properties                   
                                                                         
[FACCTs GmbH]                                                            
  Markus Bursch, Nicolas Foglia, Miquel Garcia-Rates, Ingolf Harden, Hagen Neugebauer, Anastasios Papadopoulos, 
  Christoph Riplinger, Bernardo de Souza, Georgi L. Stoychev                                                    
                                                                 
  APM, various basis sets, CI-OPT, improved COSX, DLPNO-Multilevel,           
  DOCKER, DRACO, updates on ESD, Fragmentator, GOAT, IRC, LR-CPCM, L-BFGS, MBIS, meta-GGA TD-DFT gradient, ML-optimized integration grids, 
  MM, NACMEs, nearIR, NEB, NEB-TS, NL-DFT gradient (VV10), 2- and 3-layer-ONIOM, interface openCOSMO-RS, QMMM,   
  Crystal-QMMM, RESP, rigid body optimization, SF, symmetry and pop. for TD-DFT, various functionals, SOLVATOR                                   
                                                                         
[Other institutions]                                                     
  V. Asgeirsson          : NEB                                           
  Christoph Bannwarth    : sTDA-DFT, sTD-DFT, PBEh-3c, B97-3c, D3        
  Giovanni Bistoni       : ETS/NOCV, ADLD/ADEX, COVALED                  
  Martin Brehm           : Molecular dynamics                            
  Ronald Cardenas        : ETS/NOCV                                      
  Martina Colucci        : COVALED                                       
  Sebastian Ehlert       : rSCAN, r2SCAN, r2SCAN-3c, D4, dhf basis sets  
  Marvin Friede          : D4 for Fr, Ra, Ac-Lr                          
  Lars Goerigk           : TD-DFT with DH, B97 family of functionals     
  Stefan Grimme          : VdW corrections, initial TS optimization, DFT functionals, gCP, sTDA/sTD-DF 
  Waldemar Hujo          : DFT-NL                                        
  H. Jonsson             : NEB                                           
  Holger Kruse           : gCP                                           
  Marcel Mueller         : wB97X-3c, vDZP basis set                      
  Hagen Neugebauer       : wr2SCAN, Native XTB                           
  Gianluca Regni         : ADLD/ADEX                                     
  Tobias Risthaus        : pre 6.0 range-separated hybrid DFT and stability analysis
  Lukas Wittmann         : regularized MP2, r2SCAN double-hybrids, wr2SCAN        
                                                                         
We gratefully acknowledge several colleagues who have allowed us to      
interface, adapt or use parts of their codes:                            
  Ed Valeev, F. Pavosevic, A. Kumar             : LibInt (2-el integral package), F12 methods 
  Garnet Chan, S. Sharma, J. Yang, R. Olivares  : DMRG                   
  Ulf Ekstrom                                   : XCFun DFT Library      
  Mihaly Kallay                                 : mrcc  (arbitrary order and MRCC methods)
  Frank Weinhold                                : gennbo (NPA and NBO analysis)           
  Simon Mueller                                 : openCOSMO-RS                            
  Christopher J. Cramer and Donald G. Truhlar   : smd solvation model                     
  S Lehtola, MJT Oliveira, MAL Marques          : LibXC Library                           
  Liviu Ungur et al                             : ANISO software                          


 Your calculation uses the libint2 library for the computation of 2-el integrals
 For citations please refer to: http://libint.valeyev.net

 Your ORCA version has been built with support for libXC version: 7.0.0
 For citations please refer to: https://libxc.gitlab.io

 This ORCA versions uses:
   CBLAS   interface :  Fast vector & matrix operations
   LAPACKE interface :  Fast linear algebra routines
   SCALAPACK package :  Parallel linear algebra routines
   Shared memory     :  Shared parallel matrices
   BLAS/LAPACK       :  OpenBLAS 0.3.29  USE64BITINT DYNAMIC_ARCH NO_AFFINITY Haswell SINGLE_THREADED
        Core in use  :  Haswell
   Copyright (c) 2011-2014, The OpenBLAS Project


  ***********************************
  * Starting time: Sun Aug 31 18:01:49 2025
  * Host name:     chemlab03
  * Process ID:    94333
  * Working dir.:  /home/vivek/mm-project/vivek/xtb-goat/MP2-opt/e/4
  ***********************************



***************************************
The coordinates will be read from file: /home/vivek/mm-project/vivek/xtb-goat/xtb-goat/e/E_CONF/4.xyz
***************************************


================================================================================

----- Orbital basis set information -----
Your calculation utilizes the basis: 6-31G**
   H-He, Li-Ne : W. J. Hehre, R. Ditchfield and J.A. Pople, J. Chem. Phys. 56, 2257 (1972).
                 Note: He and Ne are unpublished basis sets taken from the Gaussian program.
                 Note: Li and B from J. D. Dill and J. A. Pople, J. Chem. Phys. 62, 2921 (1975).
   Na - Ar     : M. M. Francl, W. J. Pietro, W. J. Hehre, J. S. Binkley, M. S. Gordon, 
                 D. J. DeFrees and J. A. Pople, J. Chem. Phys. 77, 3654 (1982).
   K - Zn      : V. A. Rassolov, J. A. Pople, M. A. Ratner, and T. L. Windus, J. Chem. Phys. 109, 1223 (1998).

================================================================================
                                        WARNINGS
                       Please study these warnings very carefully!
================================================================================


WARNING: The frozen-core approximation for MP2-gradient calculations is turned on by default.

WARNING: Geometry Optimization
  ===> : Switching off AutoStart
         For restart on a previous wavefunction, please use MOREAD

WARNING: Post HF methods need fully converged wavefunctions
  ===> : Setting SCFConvForced true
         You can overwrite this default with %scf ConvForced false 


================================================================================
                                       INPUT FILE
================================================================================
NAME = 4.inp
|  1> ! MP2 6-31G** opt
|  2> 
|  3> * xyzfile 0 1 /home/vivek/mm-project/vivek/xtb-goat/xtb-goat/e/E_CONF/4.xyz
|  4> 
|  5>                          ****END OF INPUT****
================================================================================

                       *****************************
                       * Geometry Optimization Run *
                       *****************************

Geometry optimization settings:
Update method            Update   .... BFGS
Choice of coordinates    CoordSys .... (2022) Redundant Internals
Initial Hessian          InHess   .... Almloef's Model
Max. no of cycles        MaxIter  .... 57

Convergence Tolerances:
Energy Change            TolE     ....  5.0000e-06 Eh
Max. Gradient            TolMAXG  ....  3.0000e-04 Eh/bohr
RMS Gradient             TolRMSG  ....  1.0000e-04 Eh/bohr
Max. Displacement        TolMAXD  ....  4.0000e-03 bohr
RMS Displacement         TolRMSD  ....  2.0000e-03 bohr
Strict Convergence                .... False

------------------------------------------------------------------------------
                        ORCA OPTIMIZATION COORDINATE SETUP
------------------------------------------------------------------------------

The optimization will be done in redundant internal coordinates (2022)
Making redundant internal coordinates   ...  (2022 redundants) done
Evaluating the initial hessian          ...  (Almloef) done
Evaluating the coordinates              ...  done
Calculating the B-matrix                .... done
Calculating the G-matrix                .... done
The number of degrees of freedom        ....   78

    -----------------------------------------------------------------
                    Redundant Internal Coordinates


    -----------------------------------------------------------------
         Definition                    Initial Value    Approx d2E/dq
    -----------------------------------------------------------------
      1. B(C   1,C   0)                  1.5110         0.400575   
      2. B(O   4,C   0)                  1.3336         0.688458   
      3. B(C   5,C   1)                  1.5322         0.370561   
      4. B(H   6,C   1)                  1.0902         0.359827   
      5. B(H   7,C   1)                  1.0909         0.358879   
      6. B(C   8,C   5)                  1.5349         0.366896   
      7. B(H   9,C   5)                  1.0898         0.360332   
      8. B(H  10,C   5)                  1.0914         0.358204   
      9. B(C  11,C   8)                  1.5277         0.376742   
     10. B(O  12,C  11)                  1.2048         1.104894   
     11. B(N  13,C   8)                  1.4542         0.441984   
     12. B(N  13,H   3)                  1.0157         0.423671   
     13. B(N  13,H   2)                  1.0143         0.425898   
     14. B(H  14,O   4)                  0.9699         0.501335   
     15. B(O  15,C  11)                  1.3294         0.699166   
     16. B(H  16,C   8)                  1.0944         0.354331   
     17. B(O  17,C   0)                  1.2027         1.113352   
     18. B(H  18,O  15)                  0.9712         0.498916   
     19. A(O   4,C   0,O  17)          122.7624         0.485794   
     20. A(C   1,C   0,O  17)          125.5325         0.442932   
     21. A(C   1,C   0,O   4)          111.7047         0.406447   
     22. A(C   0,C   1,H   6)          108.8405         0.328024   
     23. A(C   0,C   1,H   7)          107.6474         0.327881   
     24. A(C   5,C   1,H   7)          108.9448         0.323707   
     25. A(H   6,C   1,H   7)          109.5089         0.290650   
     26. A(C   0,C   1,C   5)          110.9383         0.367209   
     27. A(C   5,C   1,H   6)          110.8950         0.323848   
     28. A(C   0,O   4,H  14)          110.7736         0.374493   
     29. A(C   8,C   5,H  10)          108.7233         0.323080   
     30. A(C   1,C   5,H  10)          109.2164         0.323607   
     31. A(C   8,C   5,H   9)          107.6486         0.323394   
     32. A(H   9,C   5,H  10)          108.3549         0.290628   
     33. A(C   1,C   5,H   9)          109.9847         0.323922   
     34. A(C   1,C   5,C   8)          112.8053         0.361733   
     35. A(C   5,C   8,C  11)          109.7035         0.362756   
     36. A(N  13,C   8,H  16)          108.6132         0.330552   
     37. A(C  11,C   8,H  16)          108.2339         0.323909   
     38. A(C   5,C   8,H  16)          110.1765         0.322505   
     39. A(C  11,C   8,N  13)          111.4107         0.372190   
     40. A(C   5,C   8,N  13)          108.6938         0.370498   
     41. A(C   8,C  11,O  12)          124.1566         0.437450   
     42. A(O  12,C  11,O  15)          123.6256         0.486496   
     43. A(C   8,C  11,O  15)          112.1714         0.403165   
     44. A(H   3,N  13,C   8)          109.4623         0.337592   
     45. A(H   2,N  13,C   8)          110.6563         0.337887   
     46. A(H   2,N  13,H   3)          107.7860         0.301472   
     47. A(C  11,O  15,H  18)          111.3961         0.375179   
     48. D(C   5,C   1,C   0,O  17)   -115.2793         0.011907   
     49. D(H   6,C   1,C   0,O  17)      7.0004         0.011907   
     50. D(H   6,C   1,C   0,O   4)   -172.7753         0.011907   
     51. D(H   7,C   1,C   0,O   4)    -54.1659         0.011907   
     52. D(C   5,C   1,C   0,O   4)     64.9451         0.011907   
     53. D(H  14,O   4,C   0,O  17)      4.6970         0.035383   
     54. D(H  14,O   4,C   0,C   1)   -175.5202         0.035383   
     55. D(H   9,C   5,C   1,H   7)    -48.4355         0.010975   
     56. D(H   9,C   5,C   1,H   6)     72.1601         0.010975   
     57. D(H   9,C   5,C   1,C   0)   -166.7635         0.010975   
     58. D(C   8,C   5,C   1,H   7)   -168.6257         0.010975   
     59. D(C   8,C   5,C   1,H   6)    -48.0302         0.010975   
     60. D(C   8,C   5,C   1,C   0)     73.0463         0.010975   
     61. D(C  11,C   8,C   5,H   9)   -178.1458         0.010772   
     62. D(C  11,C   8,C   5,C   1)    -56.6231         0.010772   
     63. D(N  13,C   8,C   5,H  10)    -57.3643         0.010772   
     64. D(N  13,C   8,C   5,H   9)     59.8135         0.010772   
     65. D(N  13,C   8,C   5,C   1)   -178.6638         0.010772   
     66. D(C  11,C   8,C   5,H  10)     64.6764         0.010772   
     67. D(O  15,C  11,C   8,N  13)   -120.7837         0.010603   
     68. D(O  15,C  11,C   8,C   5)    118.8118         0.010603   
     69. D(O  12,C  11,C   8,H  16)    176.1649         0.010603   
     70. D(O  12,C  11,C   8,N  13)     56.8152         0.010603   
     71. D(O  12,C  11,C   8,C   5)    -63.5893         0.010603   
     72. D(H   3,N  13,C   8,C  11)    -55.7777         0.016659   
     73. D(H   3,N  13,C   8,C   5)     65.2190         0.016659   
     74. D(H   2,N  13,C   8,H  16)    -56.2518         0.016659   
     75. D(H   2,N  13,C   8,C  11)     62.8722         0.016659   
     76. D(H   2,N  13,C   8,C   5)   -176.1311         0.016659   
     77. D(H  18,O  15,C  11,O  12)      7.2292         0.036599   
     78. D(H  18,O  15,C  11,C   8)   -175.1569         0.036599   
    -----------------------------------------------------------------

Number of atoms                         .... 19
Number of degrees of freedom            .... 78


         *************************************************************
         *                GEOMETRY OPTIMIZATION CYCLE   1            *
         *************************************************************
---------------------------------
CARTESIAN COORDINATES (ANGSTROEM)
---------------------------------
  C     -2.403654   -0.712675   -0.366593
  C     -1.955428    0.366790   -1.324185
  H      0.699481    2.894841    1.424932
  H     -0.926922    2.996535    1.610625
  O     -3.568183   -0.409543    0.208246
  C     -1.660356    1.672308   -0.578392
  H     -1.072933    0.017376   -1.860526
  H     -2.767490    0.539010   -2.032008
  C     -0.360018    1.612043    0.234896
  H     -1.568332    2.494143   -1.288208
  H     -2.487147    1.893962    0.098749
  C     -0.420229    0.443088    1.216626
  O     -1.212818    0.358624    2.120095
  N     -0.184407    2.878560    0.927623
  H     -3.808532   -1.075885    0.870803
  O      0.537891   -0.450650    0.991892
  H      0.494651    1.456527   -0.430731
  O     -1.808529   -1.731573   -0.133650
  H      0.443979   -1.224159    1.571702

----------------------------
CARTESIAN COORDINATES (A.U.)
----------------------------
  NO LB      ZA    FRAG     MASS         X           Y           Z
   0 C     6.0000    0    12.011   -4.542248   -1.346760   -0.692761
   1 C     6.0000    0    12.011   -3.695223    0.693133   -2.502348
   2 H     1.0000    0     1.008    1.321828    5.470456    2.692732
   3 H     1.0000    0     1.008   -1.751628    5.662631    3.043640
   4 O     8.0000    0    15.999   -6.742889   -0.773924    0.393528
   5 C     6.0000    0    12.011   -3.137618    3.160205   -1.093003
   6 H     1.0000    0     1.008   -2.027549    0.032837   -3.515885
   7 H     1.0000    0     1.008   -5.229797    1.018580   -3.839938
   8 C     6.0000    0    12.011   -0.680335    3.046319    0.443890
   9 H     1.0000    0     1.008   -2.963717    4.713247   -2.434360
  10 H     1.0000    0     1.008   -4.700027    3.579070    0.186609
  11 C     6.0000    0    12.011   -0.794118    0.837315    2.299091
  12 O     8.0000    0    15.999   -2.291894    0.677701    4.006399
  13 N     7.0000    0    14.007   -0.348479    5.439689    1.752953
  14 H     1.0000    0     1.008   -7.197082   -2.033127    1.645579
  15 O     8.0000    0    15.999    1.016467   -0.851605    1.874404
  16 H     1.0000    0     1.008    0.934755    2.752438   -0.813963
  17 O     8.0000    0    15.999   -3.417624   -3.272198   -0.252561
  18 H     1.0000    0     1.008    0.838998   -2.313325    2.970087

--------------------------------
INTERNAL COORDINATES (ANGSTROEM)
--------------------------------
 C      0   0   0     0.000000000000     0.00000000     0.00000000
 C      1   0   0     1.511004511064     0.00000000     0.00000000
 H      2   1   0     4.582273337415   100.70744613     0.00000000
 H      3   2   1     1.640125068741    61.80937980   285.66531391
 O      1   2   3     1.333587914604   111.70467439    93.34183091
 C      2   1   3     1.532204966989   110.93831832   331.60326501
 H      2   1   3     1.090206087448   108.84052174    93.88289281
 H      2   1   3     1.090924542069   107.64735173   212.49229206
 C      6   2   1     1.534910318419   112.80533707    73.04627722
 H      6   2   1     1.089824734811   109.98469100   193.23651746
 H      6   2   1     1.091436869851   109.21640308   312.02708537
 C      9   6   2     1.527702079081   109.70345161   303.37692876
 O     12   9   6     1.204818470217   124.15662669   296.41070917
 N      3   2   1     1.014318042035    36.10995306   250.75624581
 H      5   1   2     0.969927590907   110.77356084   184.47983924
 O     12   9   6     1.329386399569   112.17142095   118.81177166
 H      9   6   2     1.094396395961   110.17645082    62.43398889
 O      1   2   3     1.202742765617   125.53248198   273.11746248
 H     16  12   9     0.971244183558   111.39605890   184.84305238

---------------------------
INTERNAL COORDINATES (A.U.)
---------------------------
 C      0   0   0     0.000000000000     0.00000000     0.00000000
 C      1   0   0     2.855384713031     0.00000000     0.00000000
 H      2   1   0     8.659241678483   100.70744613     0.00000000
 H      3   2   1     3.099387205299    61.80937980   285.66531391
 O      1   2   3     2.520115934108   111.70467439    93.34183091
 C      2   1   3     2.895447768642   110.93831832   331.60326501
 H      2   1   3     2.060190934810   108.84052174    93.88289281
 H      2   1   3     2.061548617284   107.64735173   212.49229206
 C      6   2   1     2.900560141942   112.80533707    73.04627722
 H      6   2   1     2.059470282766   109.98469100   193.23651746
 H      6   2   1     2.062516776483   109.21640308   312.02708537
 C      9   6   2     2.886938543685   109.70345161   303.37692876
 O     12   9   6     2.276776949801   124.15662669   296.41070917
 N      3   2   1     1.916783312142    36.10995306   250.75624581
 H      5   1   2     1.832897516549   110.77356084   184.47983924
 O     12   9   6     2.512176221346   112.17142095   118.81177166
 H      9   6   2     2.068109470316   110.17645082    62.43398889
 O      1   2   3     2.272854436571   125.53248198   273.11746248
 H     16  12   9     1.835385516089   111.39605890   184.84305238

---------------------
BASIS SET INFORMATION
---------------------
There are 4 groups of distinct atoms

 Group   1 Type C   : 10s4p1d contracted to 3s2p1d pattern {631/31/1}
 Group   2 Type H   : 4s1p contracted to 2s1p pattern {31/1}
 Group   3 Type O   : 10s4p1d contracted to 3s2p1d pattern {631/31/1}
 Group   4 Type N   : 10s4p1d contracted to 3s2p1d pattern {631/31/1}

Atom   0C    basis set group =>   1
Atom   1C    basis set group =>   1
Atom   2H    basis set group =>   2
Atom   3H    basis set group =>   2
Atom   4O    basis set group =>   3
Atom   5C    basis set group =>   1
Atom   6H    basis set group =>   2
Atom   7H    basis set group =>   2
Atom   8C    basis set group =>   1
Atom   9H    basis set group =>   2
Atom  10H    basis set group =>   2
Atom  11C    basis set group =>   1
Atom  12O    basis set group =>   3
Atom  13N    basis set group =>   4
Atom  14H    basis set group =>   2
Atom  15O    basis set group =>   3
Atom  16H    basis set group =>   2
Atom  17O    basis set group =>   3
Atom  18H    basis set group =>   2
------------------------------------------------------------------------------
                             ORCA STARTUP CALCULATIONS
------------------------------------------------------------------------------
------------------------------------------------------------------------------
                   ___                                                        
                  /   \      - P O W E R E D   B Y -                         
                 /     \                                                     
                 |  |  |   _    _      __       _____    __    __             
                 |  |  |  | |  | |    /  \     |  _  \  |  |  /  |          
                  \  \/   | |  | |   /    \    | | | |  |  | /  /          
                 / \  \   | |__| |  /  /\  \   | |_| |  |  |/  /          
                |  |  |   |  __  | /  /__\  \  |    /   |      \           
                |  |  |   | |  | | |   __   |  |    \   |  |\   \          
                \     /   | |  | | |  |  |  |  | |\  \  |  | \   \       
                 \___/    |_|  |_| |__|  |__|  |_| \__\ |__|  \__/        
                                                                              
                      - O R C A' S   B I G   F R I E N D -                    
                                      &                                       
                       - I N T E G R A L  F E E D E R -                       
                                                                              
 v1 FN, 2020, v2 2021, v3 2022-2024                                           
------------------------------------------------------------------------------


----------------------
SHARK INTEGRAL PACKAGE
----------------------

Number of atoms                             ...     19
Number of basis functions                   ...    185
Number of shells                            ...     87
Maximum angular momentum                    ...      2
Integral batch strategy                     ... SHARK/LIBINT Hybrid
RI-J (if used) integral strategy            ... SPLIT-RIJ (Revised 2003 algorithm where possible)
Printlevel                                  ...      1
Contraction scheme used                     ... SEGMENTED contraction
Prescreening option                         ... SCHWARTZ
   Thresh                                   ... 2.500e-11
   Tcut                                     ... 2.500e-12
   Tpresel                                  ... 2.500e-12 
Coulomb Range Separation                    ... NOT USED
Exchange Range Separation                   ... NOT USED
Multipole approximations                    ... NOT USED
Finite Nucleus Model                        ... NOT USED
CABS basis                                  ... NOT available
Auxiliary Coulomb fitting basis             ... NOT available
Auxiliary J/K fitting basis                 ... NOT available
Auxiliary Correlation fitting basis         ... NOT available
Auxiliary 'external' fitting basis          ... NOT available

Checking pre-screening integrals            ... done (  0.0 sec) Dimension = 87
   => SHARK Basis and OBASIS are compatible. Storing Pre-screening
Shell pair information
Shell pair cut-off parameter TPreSel        ...   2.5e-12
Total number of shell pairs                 ...      3828
Shell pairs after pre-screening             ...      3507
Total number of primitive shell pairs       ...     19347
Primitive shell pairs kept                  ...     11554
          la=0 lb=0:   1061 shell pairs
          la=1 lb=0:   1266 shell pairs
          la=1 lb=1:    401 shell pairs
          la=2 lb=0:    452 shell pairs
          la=2 lb=1:    273 shell pairs
          la=2 lb=2:     54 shell pairs

Checking whether 4 symmetric matrices of dimension 185 fit in memory
:Max Core in MB      =   4096.00
 MB in use           =      6.01
 MB left             =   4089.99
 MB needed           =      0.53
 Data fit in memory  = YES
Calculating Nuclear repulsion               ... done (  0.0 sec) ENN=    585.456807533265 Eh

Diagonalization of the overlap matrix:
Smallest eigenvalue                        ... 2.894e-03
Time for diagonalization                   ...    0.002 sec
Threshold for overlap eigenvalues          ... 1.000e-07
Number of eigenvalues below threshold      ... 0
Time for construction of square roots      ...    0.001 sec
Total time needed                          ...    0.003 sec

-------------------
DFT GRID GENERATION
-------------------

General Integration Accuracy     IntAcc      ... 4.388
Radial Grid Type                 RadialGrid  ... OptM3 with GC (2021)
Angular Grid (max. ang.)         AngularGrid ... 4 (Lebedev-302)
Angular grid pruning method      GridPruning ... 4 (adaptive)
Weight generation scheme         WeightScheme... mBecke (2022)
Basis function cutoff            BFCut       ... 1.0000e-11
Integration weight cutoff        WCut        ... 1.0000e-14
Partially contracted basis set               ... off
Rotationally invariant grid construction     ... off
Angular grids for H and He will be reduced by one unit

Total number of grid points                  ...    89129
Total number of batches                      ...     1403
Average number of points per batch           ...       63
Average number of grid points per atom       ...     4691
Grids setup in   0.4 sec
Initializing property integral containers    ... done (  0.0 sec)

SHARK setup successfully completed in   0.4 seconds

Maximum memory used throughout the entire STARTUP-calculation: 35.7 MB
-------------------------------------------------------------------------------
                                 ORCA GUESS
                   Start orbitals & Density for SCF / CASSCF
-------------------------------------------------------------------------------

------------
SCF SETTINGS
------------
Hamiltonian:
 Ab initio Hamiltonian  Method          .... Hartree-Fock(GTOs)


General Settings:
 Integral files         IntName         .... 4
 Hartree-Fock type      HFTyp           .... RHF
 Total Charge           Charge          ....    0
 Multiplicity           Mult            ....    1
 Number of Electrons    NEL             ....   78
 Basis Dimension        Dim             ....  185
 Nuclear Repulsion      ENuc            ....    585.4568075333 Eh

Convergence Acceleration:
 AO-DIIS                CNVDIIS         .... on
   Start iteration      DIISMaxIt       ....    12
   Startup error        DIISStart       ....  0.200000
   # of expansion vecs  DIISMaxEq       ....     5
   Bias factor          DIISBfac        ....   1.050
   Max. coefficient     DIISMaxC        ....  10.000
 MO-DIIS                CNVKDIIS        .... off
 Trust-Rad. Augm. Hess. CNVTRAH         .... auto
   Auto Start mean grad. ratio tolernc. ....  1.125000
   Auto Start start iteration           ....    50
   Auto Start num. interpolation iter.  ....    10
   Max. Number of Micro iterations      ....    24
   Max. Number of Macro iterations      .... Maxiter - #DIIS iter
   Number of Davidson start vectors     ....     2
   Converg. threshold    (grad. norm)   ....   1.000e-05
   Grad. Scal. Fac. for Micro threshold ....   0.100
   Minimum threshold for Micro iter.    ....   1.000e-02
   NR start threshold (gradient norm)   ....   1.000e-04
   Initial trust radius                 ....   0.400
   Minimum AH scaling param. (alpha)    ....   1.000
   Maximum AH scaling param. (alpha)    .... 1000.000
   Quad. conv. algorithm                .... NR
   White noise on init. David. guess    .... on
   Maximum white noise                  ....   0.010
   Pseudo random numbers                .... off
   Inactive MOs                         .... canonical
   Orbital update algorithm             .... Taylor
   Preconditioner                       .... Diag
   Full preconditioner red. dimension   ....   250
 SOSCF                 CNVSOSCF           .... on
   Start iteration     SOSCFMaxIt         ....   150
   Startup grad/error  SOSCFStart         ....  0.003300
   Hessian update      SOSCFHessUp        .... L-BFGS
   Autom. constraints  SOSCFAutoConstrain .... off
 Level Shifting         CNVShift        .... on
   Level shift para.    LevelShift      ....    0.2500
   Turn off err/grad.   ShiftErr        ....    0.0010
 Zerner damping         CNVZerner       .... off
 Static damping         CNVDamp         .... on
   Fraction old density DampFac         ....    0.7000
   Max. Damping (<1)    DampMax         ....    0.9800
   Min. Damping (>=0)   DampMin         ....    0.0000
   Turn off err/grad.   DampErr         ....    0.1000

SCF Procedure:
 Maximum # iterations   MaxIter         ....   125
 SCF integral mode      SCFMode         .... Direct
   Integral package                     .... SHARK and LIBINT hybrid scheme
 Reset frequency        DirectResetFreq ....    20
 Integral Threshold     Thresh          ....  2.500e-11 Eh
 Primitive CutOff       TCut            ....  2.500e-12 Eh

Convergence Tolerance:
 Convergence Check Mode ConvCheckMode   .... Total+1el-Energy
 Convergence forced     ConvForced      .... 1
 Energy Change          TolE            ....  1.000e-08 Eh
 1-El. energy change                    ....  1.000e-05 Eh
 Orbital Gradient       TolG            ....  1.000e-05
 Orbital Rotation angle TolX            ....  1.000e-05
 DIIS Error             TolErr          ....  5.000e-07

------------------------------
INITIAL GUESS: MODEL POTENTIAL
------------------------------
Loading Hartree-Fock densities                     ... done
Calculating cut-offs                               ... done
Initializing the effective Hamiltonian             ... done
Setting up the integral package (SHARK)            ... done
Starting the Coulomb interaction                   ... done (   0.1 sec)
Making the grid                                    ... done (   0.1 sec)
Mapping shells                                     ... done
Starting the XC term evaluation                    ... done (   0.0 sec)
Transforming the Hamiltonian                       ... done (   0.0 sec)
Diagonalizing the Hamiltonian                      ... done (   0.0 sec)
Back transforming the eigenvectors                 ... done (   0.0 sec)
Now organizing SCF variables                       ... done
                      ------------------
                      INITIAL GUESS DONE (   0.2 sec)
                      ------------------
             **** ENERGY FILE WAS UPDATED (4.en.tmp) ****
Finished Guess after   0.2 sec
Maximum memory used throughout the entire GUESS-calculation: 11.5 MB

-------------------------------------------------------------------------------------------
                                      ORCA LEAN-SCF
                              memory conserving SCF solver
-------------------------------------------------------------------------------------------

----------------------------------------D-I-I-S--------------------------------------------
Iteration    Energy (Eh)           Delta-E    RMSDP     MaxDP     DIISErr   Damp  Time(sec)
-------------------------------------------------------------------------------------------
               ***  Starting incremental Fock matrix formation  ***
    1    -548.1150500715319822     0.00e+00  2.53e-03  6.10e-02  2.55e-01  0.700   2.1
    2    -548.2660947416969748    -1.51e-01  1.86e-03  4.43e-02  1.60e-01  0.700   2.0
                               ***Turning on AO-DIIS***
    3    -548.3535936077443012    -8.75e-02  1.01e-03  2.16e-02  9.16e-02  0.700   1.9
    4    -548.4087922165386999    -5.52e-02  2.32e-03  4.63e-02  6.20e-02  0.000   1.9
    5    -548.5322489313297183    -1.23e-01  3.01e-04  4.28e-03  4.89e-03  0.000   1.9
                              *** Initializing SOSCF ***
---------------------------------------S-O-S-C-F--------------------------------------
Iteration    Energy (Eh)           Delta-E    RMSDP     MaxDP     MaxGrad    Time(sec)
--------------------------------------------------------------------------------------
    6    -548.5328650599614093    -6.16e-04  1.43e-04  1.96e-03  2.22e-03     1.8
               *** Restarting incremental Fock matrix formation ***
    7    -548.5330119088454239    -1.47e-04  9.35e-05  1.32e-03  1.74e-03     2.0
    8    -548.5330617309779200    -4.98e-05  1.07e-04  1.66e-03  5.40e-04     1.6
    9    -548.5330791451016239    -1.74e-05  2.08e-05  3.66e-04  2.26e-04     1.6
   10    -548.5330810463275384    -1.90e-06  6.06e-06  1.02e-04  4.23e-05     1.5
   11    -548.5330811915442837    -1.45e-07  3.09e-06  5.78e-05  1.60e-05     1.4
   12    -548.5330812145429036    -2.30e-08  6.48e-07  1.56e-05  8.28e-06     1.3
   13    -548.5330812172320520    -2.69e-09  1.63e-07  3.00e-06  1.13e-06     1.1
                 **** Energy Check signals convergence ****

               *****************************************************
               *                     SUCCESS                       *
               *           SCF CONVERGED AFTER  13 CYCLES          *
               *****************************************************

             **** ENERGY FILE WAS UPDATED (4.en.tmp) ****

----------------
TOTAL SCF ENERGY
----------------

Total Energy       :       -548.53308121863813 Eh          -14926.34398 eV

Components:
Nuclear Repulsion  :        585.45680753326531 Eh           15931.08965 eV
Electronic Energy  :      -1133.98988875190344 Eh          -30857.43363 eV
One Electron Energy:      -1914.44746291186289 Eh          -52094.76391 eV
Two Electron Energy:        780.45757415995945 Eh           21237.33028 eV

Virial components:
Potential Energy   :      -1096.36491846277931 Eh          -29833.60614 eV
Kinetic Energy     :        547.83183724414130 Eh           14907.26216 eV
Virial Ratio       :          2.00128003508891

---------------
SCF CONVERGENCE
---------------

  Last Energy change         ...    2.6891e-09  Tolerance :   1.0000e-08
  Last MAX-Density change    ...    3.0011e-06  Tolerance :   1.0000e-07
  Last RMS-Density change    ...    1.6281e-07  Tolerance :   5.0000e-09
  Last DIIS Error            ...    2.2228e-03  Tolerance :   5.0000e-07
  Last Orbital Gradient      ...    1.1253e-06  Tolerance :   1.0000e-05
  Last Orbital Rotation      ...    1.6257e-06  Tolerance :   1.0000e-05


----------------
ORBITAL ENERGIES
----------------

  NO   OCC          E(Eh)            E(eV) 
   0   2.0000     -20.614494      -560.9489 
   1   2.0000     -20.612583      -560.8969 
   2   2.0000     -20.553159      -559.2799 
   3   2.0000     -20.550500      -559.2075 
   4   2.0000     -15.557972      -423.3539 
   5   2.0000     -11.386528      -309.8432 
   6   2.0000     -11.383042      -309.7483 
   7   2.0000     -11.278425      -306.9015 
   8   2.0000     -11.249778      -306.1220 
   9   2.0000     -11.243575      -305.9532 
  10   2.0000      -1.470685       -40.0194 
  11   2.0000      -1.464241       -39.8440 
  12   2.0000      -1.362330       -37.0709 
  13   2.0000      -1.359683       -36.9989 
  14   2.0000      -1.205627       -32.8068 
  15   2.0000      -1.085150       -29.5284 
  16   2.0000      -0.975660       -26.5491 
  17   2.0000      -0.901376       -24.5277 
  18   2.0000      -0.825099       -22.4521 
  19   2.0000      -0.791372       -21.5343 
  20   2.0000      -0.722732       -19.6665 
  21   2.0000      -0.700260       -19.0550 
  22   2.0000      -0.695801       -18.9337 
  23   2.0000      -0.683241       -18.5919 
  24   2.0000      -0.670840       -18.2545 
  25   2.0000      -0.652430       -17.7535 
  26   2.0000      -0.618858       -16.8400 
  27   2.0000      -0.609199       -16.5771 
  28   2.0000      -0.595716       -16.2103 
  29   2.0000      -0.576286       -15.6815 
  30   2.0000      -0.560090       -15.2408 
  31   2.0000      -0.540347       -14.7036 
  32   2.0000      -0.518135       -14.0992 
  33   2.0000      -0.501618       -13.6497 
  34   2.0000      -0.474767       -12.9191 
  35   2.0000      -0.472683       -12.8624 
  36   2.0000      -0.460060       -12.5189 
  37   2.0000      -0.441029       -12.0010 
  38   2.0000      -0.400788       -10.9060 
  39   0.0000       0.161822         4.4034 
  40   0.0000       0.196881         5.3574 
  41   0.0000       0.221714         6.0331 
  42   0.0000       0.235680         6.4132 
  43   0.0000       0.246070         6.6959 
  44   0.0000       0.258434         7.0323 
  45   0.0000       0.271666         7.3924 
  46   0.0000       0.301698         8.2096 
  47   0.0000       0.313620         8.5340 
  48   0.0000       0.330042         8.9809 
  49   0.0000       0.338826         9.2199 
*Only the first 10 virtual orbitals were printed.

                    ********************************
                    * MULLIKEN POPULATION ANALYSIS *
                    ********************************

-----------------------
MULLIKEN ATOMIC CHARGES
-----------------------
   0 C :    0.787488
   1 C :   -0.308713
   2 H :    0.275776
   3 H :    0.284794
   4 O :   -0.627776
   5 C :   -0.238042
   6 H :    0.166066
   7 H :    0.164514
   8 C :   -0.014044
   9 H :    0.154959
  10 H :    0.161716
  11 C :    0.787812
  12 O :   -0.604094
  13 N :   -0.687549
  14 H :    0.376515
  15 O :   -0.625670
  16 H :    0.162413
  17 O :   -0.593870
  18 H :    0.377703
Sum of atomic charges:   -0.0000000

--------------------------------
MULLIKEN REDUCED ORBITAL CHARGES
--------------------------------
  0 C s       :     2.959471  s :     2.959471
      pz      :     0.696453  p :     2.103705
      px      :     0.625358
      py      :     0.781894
      dz2     :     0.015150  d :     0.149336
      dxz     :     0.024250
      dyz     :     0.030663
      dx2y2   :     0.046272
      dxy     :     0.033001

  1 C s       :     3.264863  s :     3.264863
      pz      :     0.970970  p :     2.998128
      px      :     1.097224
      py      :     0.929934
      dz2     :     0.002280  d :     0.045722
      dxz     :     0.013182
      dyz     :     0.013849
      dx2y2   :     0.009761
      dxy     :     0.006650

  2 H s       :     0.698083  s :     0.698083
      pz      :     0.007453  p :     0.026141
      px      :     0.013148
      py      :     0.005539

  3 H s       :     0.689142  s :     0.689142
      pz      :     0.009856  p :     0.026064
      px      :     0.010499
      py      :     0.005709

  4 O s       :     3.834843  s :     3.834843
      pz      :     1.570778  p :     4.767636
      px      :     1.510884
      py      :     1.685974
      dz2     :     0.002055  d :     0.025298
      dxz     :     0.003685
      dyz     :     0.007075
      dx2y2   :     0.007753
      dxy     :     0.004730

  5 C s       :     3.250407  s :     3.250407
      pz      :     1.017575  p :     2.939578
      px      :     0.963174
      py      :     0.958829
      dz2     :     0.002540  d :     0.048058
      dxz     :     0.014447
      dyz     :     0.013698
      dx2y2   :     0.013418
      dxy     :     0.003956

  6 H s       :     0.821386  s :     0.821386
      pz      :     0.003351  p :     0.012548
      px      :     0.006753
      py      :     0.002445

  7 H s       :     0.822531  s :     0.822531
      pz      :     0.004895  p :     0.012955
      px      :     0.005923
      py      :     0.002137

  8 C s       :     3.197650  s :     3.197650
      pz      :     0.907315  p :     2.746104
      px      :     1.049489
      py      :     0.789301
      dz2     :     0.006552  d :     0.070290
      dxz     :     0.014896
      dyz     :     0.022026
      dx2y2   :     0.020978
      dxy     :     0.005836

  9 H s       :     0.832431  s :     0.832431
      pz      :     0.004625  p :     0.012610
      px      :     0.001749
      py      :     0.006235

 10 H s       :     0.825581  s :     0.825581
      pz      :     0.004651  p :     0.012703
      px      :     0.006229
      py      :     0.001823

 11 C s       :     2.966714  s :     2.966714
      pz      :     0.756090  p :     2.097526
      px      :     0.615202
      py      :     0.726234
      dz2     :     0.030554  d :     0.147948
      dxz     :     0.023360
      dyz     :     0.032992
      dx2y2   :     0.027254
      dxy     :     0.033789

 12 O s       :     3.882588  s :     3.882588
      pz      :     1.440649  p :     4.688979
      px      :     1.497744
      py      :     1.750586
      dz2     :     0.010478  d :     0.032526
      dxz     :     0.009048
      dyz     :     0.004638
      dx2y2   :     0.004481
      dxy     :     0.003882

 13 N s       :     3.610862  s :     3.610862
      pz      :     1.418290  p :     4.042065
      px      :     1.186271
      py      :     1.437504
      dz2     :     0.002742  d :     0.034622
      dxz     :     0.015036
      dyz     :     0.004057
      dx2y2   :     0.010765
      dxy     :     0.002022

 14 H s       :     0.581759  s :     0.581759
      pz      :     0.017349  p :     0.041726
      px      :     0.007953
      py      :     0.016425

 15 O s       :     3.838164  s :     3.838164
      pz      :     1.724427  p :     4.761865
      px      :     1.652333
      py      :     1.385105
      dz2     :     0.003043  d :     0.025641
      dxz     :     0.003520
      dyz     :     0.007522
      dx2y2   :     0.004880
      dxy     :     0.006676

 16 H s       :     0.825586  s :     0.825586
      pz      :     0.004349  p :     0.012001
      px      :     0.006361
      py      :     0.001292

 17 O s       :     3.878458  s :     3.878458
      pz      :     1.621880  p :     4.682739
      px      :     1.642202
      py      :     1.418657
      dz2     :     0.003652  d :     0.032673
      dxz     :     0.003521
      dyz     :     0.007081
      dx2y2   :     0.009732
      dxy     :     0.008686

 18 H s       :     0.580828  s :     0.580828
      pz      :     0.014411  p :     0.041469
      px      :     0.006948
      py      :     0.020109



                     *******************************
                     * LOEWDIN POPULATION ANALYSIS *
                     *******************************

----------------------
LOEWDIN ATOMIC CHARGES
----------------------
   0 C :    0.233514
   1 C :   -0.132518
   2 H :    0.130779
   3 H :    0.135763
   4 O :   -0.201135
   5 C :   -0.099094
   6 H :    0.085942
   7 H :    0.091964
   8 C :   -0.019054
   9 H :    0.080543
  10 H :    0.081539
  11 C :    0.220747
  12 O :   -0.319724
  13 N :   -0.273828
  14 H :    0.203902
  15 O :   -0.192622
  16 H :    0.077912
  17 O :   -0.309690
  18 H :    0.205059

-------------------------------
LOEWDIN REDUCED ORBITAL CHARGES
-------------------------------
  0 C s       :     2.840579  s :     2.840579
      pz      :     0.799175  p :     2.604440
      px      :     0.840845
      py      :     0.964420
      dz2     :     0.033509  d :     0.321468
      dxz     :     0.050036
      dyz     :     0.063686
      dx2y2   :     0.097601
      dxy     :     0.076635

  1 C s       :     2.895950  s :     2.895950
      pz      :     1.043671  p :     3.150168
      px      :     1.082680
      py      :     1.023817
      dz2     :     0.004634  d :     0.086399
      dxz     :     0.022677
      dyz     :     0.027792
      dx2y2   :     0.018568
      dxy     :     0.012727

  2 H s       :     0.787581  s :     0.787581
      pz      :     0.024366  p :     0.081640
      px      :     0.038720
      py      :     0.018554

  3 H s       :     0.782098  s :     0.782098
      pz      :     0.031628  p :     0.082139
      px      :     0.031281
      py      :     0.019230

  4 O s       :     3.453758  s :     3.453758
      pz      :     1.539622  p :     4.699320
      px      :     1.508739
      py      :     1.650959
      dz2     :     0.004217  d :     0.048056
      dxz     :     0.010622
      dyz     :     0.011166
      dx2y2   :     0.012917
      dxy     :     0.009133

  5 C s       :     2.891796  s :     2.891796
      pz      :     1.053926  p :     3.116440
      px      :     1.036258
      py      :     1.026256
      dz2     :     0.005216  d :     0.090859
      dxz     :     0.026508
      dyz     :     0.025193
      dx2y2   :     0.025625
      dxy     :     0.008317

  6 H s       :     0.873267  s :     0.873267
      pz      :     0.011798  p :     0.040791
      px      :     0.020698
      py      :     0.008295

  7 H s       :     0.866871  s :     0.866871
      pz      :     0.015671  p :     0.041165
      px      :     0.017926
      py      :     0.007568

  8 C s       :     2.871608  s :     2.871608
      pz      :     1.000458  p :     3.007283
      px      :     1.062450
      py      :     0.944375
      dz2     :     0.013467  d :     0.140162
      dxz     :     0.027956
      dyz     :     0.045367
      dx2y2   :     0.042121
      dxy     :     0.011252

  9 H s       :     0.878761  s :     0.878761
      pz      :     0.014983  p :     0.040696
      px      :     0.006755
      py      :     0.018959

 10 H s       :     0.876956  s :     0.876956
      pz      :     0.014743  p :     0.041505
      px      :     0.019384
      py      :     0.007378

 11 C s       :     2.850481  s :     2.850481
      pz      :     0.910011  p :     2.608487
      px      :     0.826052
      py      :     0.872424
      dz2     :     0.063189  d :     0.320285
      dxz     :     0.054526
      dyz     :     0.069515
      dx2y2   :     0.058046
      dxy     :     0.075008

 12 O s       :     3.547633  s :     3.547633
      pz      :     1.483746  p :     4.714963
      px      :     1.520434
      py      :     1.710783
      dz2     :     0.014361  d :     0.057128
      dxz     :     0.021159
      dyz     :     0.007795
      dx2y2   :     0.007618
      dxy     :     0.006195

 13 N s       :     3.190071  s :     3.190071
      pz      :     1.400999  p :     4.022589
      px      :     1.173134
      py      :     1.448457
      dz2     :     0.004473  d :     0.061167
      dxz     :     0.023180
      dyz     :     0.008614
      dx2y2   :     0.019374
      dxy     :     0.005527

 14 H s       :     0.675453  s :     0.675453
      pz      :     0.048348  p :     0.120645
      px      :     0.023849
      py      :     0.048447

 15 O s       :     3.453222  s :     3.453222
      pz      :     1.683788  p :     4.690141
      px      :     1.637500
      py      :     1.368852
      dz2     :     0.005448  d :     0.049259
      dxz     :     0.005338
      dyz     :     0.013380
      dx2y2   :     0.010215
      dxy     :     0.014878

 16 H s       :     0.882372  s :     0.882372
      pz      :     0.014790  p :     0.039716
      px      :     0.019852
      py      :     0.005074

 17 O s       :     3.546719  s :     3.546719
      pz      :     1.593869  p :     4.705869
      px      :     1.631954
      py      :     1.480047
      dz2     :     0.007207  d :     0.057102
      dxz     :     0.004653
      dyz     :     0.011027
      dx2y2   :     0.015635
      dxy     :     0.018580

 18 H s       :     0.674813  s :     0.674813
      pz      :     0.043149  p :     0.120129
      px      :     0.022499
      py      :     0.054481



                      *****************************
                      * MAYER POPULATION ANALYSIS *
                      *****************************

  NA   - Mulliken gross atomic population
  ZA   - Total nuclear charge
  QA   - Mulliken gross atomic charge
  VA   - Mayer's total valence
  BVA  - Mayer's bonded valence
  FA   - Mayer's free valence

  ATOM       NA         ZA         QA         VA         BVA        FA
  0 C      5.2125     6.0000     0.7875     3.7182     3.7182    -0.0000
  1 C      6.3087     6.0000    -0.3087     3.7495     3.7495    -0.0000
  2 H      0.7242     1.0000     0.2758     0.9025     0.9025    -0.0000
  3 H      0.7152     1.0000     0.2848     0.9045     0.9045    -0.0000
  4 O      8.6278     8.0000    -0.6278     1.8339     1.8339    -0.0000
  5 C      6.2380     6.0000    -0.2380     3.7715     3.7715    -0.0000
  6 H      0.8339     1.0000     0.1661     0.9437     0.9437     0.0000
  7 H      0.8355     1.0000     0.1645     0.9438     0.9438    -0.0000
  8 C      6.0140     6.0000    -0.0140     3.7477     3.7477    -0.0000
  9 H      0.8450     1.0000     0.1550     0.9470     0.9470    -0.0000
 10 H      0.8383     1.0000     0.1617     0.9465     0.9465     0.0000
 11 C      5.2122     6.0000     0.7878     3.6526     3.6526     0.0000
 12 O      8.6041     8.0000    -0.6041     1.8565     1.8565     0.0000
 13 N      7.6875     7.0000    -0.6875     2.7669     2.7669    -0.0000
 14 H      0.6235     1.0000     0.3765     0.8691     0.8691    -0.0000
 15 O      8.6257     8.0000    -0.6257     1.8537     1.8537    -0.0000
 16 H      0.8376     1.0000     0.1624     0.9389     0.9389    -0.0000
 17 O      8.5939     8.0000    -0.5939     1.8774     1.8774    -0.0000
 18 H      0.6223     1.0000     0.3777     0.8681     0.8681    -0.0000

  Mayer bond orders larger than 0.100000
B(  0-C ,  1-C ) :   0.9433 B(  0-C ,  4-O ) :   0.9848 B(  0-C , 17-O ) :   1.7981 
B(  1-C ,  5-C ) :   0.9470 B(  1-C ,  6-H ) :   0.9644 B(  1-C ,  7-H ) :   0.9570 
B(  2-H , 13-N ) :   0.9080 B(  3-H , 13-N ) :   0.8958 B(  4-O , 14-H ) :   0.8389 
B(  5-C ,  8-C ) :   0.9673 B(  5-C ,  9-H ) :   0.9671 B(  5-C , 10-H ) :   0.9536 
B(  8-C , 11-C ) :   0.8950 B(  8-C , 13-N ) :   0.9871 B(  8-C , 16-H ) :   0.9583 
B( 11-C , 12-O ) :   1.7785 B( 11-C , 15-O ) :   0.9917 B( 15-O , 18-H ) :   0.8360 


-------
TIMINGS
-------

Total SCF time: 0 days 0 hours 0 min 23 sec 

Total time                  ....      23.051 sec
Sum of individual times     ....      22.065 sec  ( 95.7%)

SCF preparation             ....       0.017 sec  (  0.1%)
Fock matrix formation       ....      21.994 sec  ( 95.4%)
  Startup                   ....       0.001 sec  (  0.0% of F)
  Coulomb+Exchange Fock     ....      22.964 sec  (104.4% of F)
Diagonalization             ....       0.000 sec  (  0.0%)
Density matrix formation    ....       0.005 sec  (  0.0%)
Total Energy calculation    ....       0.001 sec  (  0.0%)
Population analysis         ....       0.002 sec  (  0.0%)
Orbital Transformation      ....       0.005 sec  (  0.0%)
Orbital Orthonormalization  ....       0.000 sec  (  0.0%)
DIIS solution               ....       0.024 sec  (  0.1%)
SOSCF solution              ....       0.015 sec  (  0.1%)
Finished LeanSCF after  23.1 sec

Maximum memory used throughout the entire LEANSCF-calculation: 15.1 MB

------------------------------------------------------------------------------
                                ORCA  MP2 
------------------------------------------------------------------------------

Freezing NCore=20 chemical core electrons
MP2 will be done in the AO integral direct mode
The Q1-step will be done using symmetric double matrices
Dimension of the basis                    ...  185
Memory devoted for MP2                    ... 4096 MB   
Memory needed for all in one shot         ...  705 MB
Number of MOs that can be treated together...  167      
MP2 density construction                  ... relaxed
The MP2 gradient is requested => amplitudes will be stored on disk
Total number of MOs              ...   29
Number of MOs treated per batch  ...   29 
Number of batches necessary      ...    1 
OPERATORS   0/  0 PASS   0
-----------------------------------------------
 MP2 CORRELATION ENERGY   :     -1.548123237 Eh
-----------------------------------------------


---------------------
MP2 DENSITY FORMATION
---------------------

Completing the external part of the density      ... done
Storing the unrelaxed density                    ... done

Calculating G(D)                                 ... done
Completing the Lagrangian                        ... done
Solving the Z-vector equations                   ... 
-------------------
SHARK CP-SCF DRIVER
-------------------

Dimension of the orbital basis          ...    185
Dimension of the CPSCF-problem          ...   5694
Number of operators                     ...      1
Max. number of iterations               ...    128
Convergence Tolerance                   ... 1.0e-04
Number of perturbations                 ...      1
Perturbation type                       ... REAL

----------------------------
POPLE LINEAR EQUATION SOLVER
----------------------------

  ITERATION   0:   ||err||_max =   1.6576e-01 (   2.5 sec)
  ITERATION   1:   ||err||_max =   4.1021e-02 (   2.6 sec)
  ITERATION   2:   ||err||_max =   1.7293e-02 (   2.6 sec)
  ITERATION   3:   ||err||_max =   4.5206e-03 (   2.6 sec)
  ITERATION   4:   ||err||_max =   1.4049e-03 (   2.6 sec)
  ITERATION   5:   ||err||_max =   4.0090e-04 (   2.6 sec)
  ITERATION   6:   ||err||_max =   1.4319e-04 (   2.6 sec)
  ITERATION   7:   ||err||_max =   5.9039e-05 (   2.6 sec)
                                                 ... done
Finalizing the relaxed density                   ... done
Transforming P to the AO basis                   ... done
Storing the relaxed density                      ... done

------------------------------------
ENERGY WEIGHTED DENSITY FINALIZATION
------------------------------------

Gathering the parts of the W-matrix              ...                                                      done
Forming the Z-density                            ... done
Transforming Z to the AO basis                   ... done
Calculating G(Z)                                 ... done
Finalizing the W-matrix                          ...                                                      done
Transforming W to the AO basis and storing       ... done

                *********************************************
                * UNRELAXED MP2 DENSITY POPULATION ANALYSIS *
                *********************************************

------------------------------------------------------------------------------
                           ORCA POPULATION ANALYSIS
------------------------------------------------------------------------------
Input electron density              ... 4.pmp2ur
BaseName (.gbw .S,...)              ... 4

                    ********************************
                    * MULLIKEN POPULATION ANALYSIS *
                    ********************************

-----------------------
MULLIKEN ATOMIC CHARGES
-----------------------
   0 C :    0.753998
   1 C :   -0.308917
   2 H :    0.274663
   3 H :    0.283201
   4 O :   -0.614007
   5 C :   -0.240023
   6 H :    0.166641
   7 H :    0.165080
   8 C :   -0.019615
   9 H :    0.155601
  10 H :    0.162017
  11 C :    0.753467
  12 O :   -0.580758
  13 N :   -0.679751
  14 H :    0.373376
  15 O :   -0.611424
  16 H :    0.163039
  17 O :   -0.571058
  18 H :    0.374472
Sum of atomic charges:   -0.0000000

--------------------------------
MULLIKEN REDUCED ORBITAL CHARGES
--------------------------------
  0 C s       :     2.961105  s :     2.961105
      pz      :     0.706346  p :     2.125104
      px      :     0.634217
      py      :     0.784541
      dz2     :     0.017564  d :     0.159793
      dxz     :     0.026108
      dyz     :     0.032706
      dx2y2   :     0.048249
      dxy     :     0.035166
  1 C s       :     3.261321  s :     3.261321
      pz      :     0.967455  p :     2.985247
      px      :     1.091973
      py      :     0.925818
      dz2     :     0.006022  d :     0.062348
      dxz     :     0.016341
      dyz     :     0.016782
      dx2y2   :     0.013035
      dxy     :     0.010168
  2 H s       :     0.697176  s :     0.697176
      pz      :     0.008225  p :     0.028161
      px      :     0.013521
      py      :     0.006416
  3 H s       :     0.688734  s :     0.688734
      pz      :     0.010501  p :     0.028066
      px      :     0.010987
      py      :     0.006578
  4 O s       :     3.830629  s :     3.830629
      pz      :     1.559954  p :     4.735041
      px      :     1.500448
      py      :     1.674639
      dz2     :     0.006791  d :     0.048338
      dxz     :     0.008332
      dyz     :     0.011621
      dx2y2   :     0.012220
      dxy     :     0.009374
  5 C s       :     3.247162  s :     3.247162
      pz      :     1.013491  p :     2.928573
      px      :     0.959616
      py      :     0.955465
      dz2     :     0.006162  d :     0.064289
      dxz     :     0.017391
      dyz     :     0.016756
      dx2y2   :     0.016420
      dxy     :     0.007560
  6 H s       :     0.818141  s :     0.818141
      pz      :     0.004289  p :     0.015218
      px      :     0.007484
      py      :     0.003445
  7 H s       :     0.819318  s :     0.819318
      pz      :     0.005750  p :     0.015602
      px      :     0.006704
      py      :     0.003147
  8 C s       :     3.194542  s :     3.194542
      pz      :     0.905295  p :     2.739260
      px      :     1.044154
      py      :     0.789812
      dz2     :     0.010165  d :     0.085813
      dxz     :     0.017943
      dyz     :     0.024480
      dx2y2   :     0.023774
      dxy     :     0.009451
  9 H s       :     0.829092  s :     0.829092
      pz      :     0.005489  p :     0.015307
      px      :     0.002785
      py      :     0.007033
 10 H s       :     0.822547  s :     0.822547
      pz      :     0.005529  p :     0.015436
      px      :     0.007036
      py      :     0.002871
 11 C s       :     2.968512  s :     2.968512
      pz      :     0.761866  p :     2.119435
      px      :     0.624931
      py      :     0.732638
      dz2     :     0.032720  d :     0.158586
      dxz     :     0.025442
      dyz     :     0.035151
      dx2y2   :     0.029459
      dxy     :     0.035814
 12 O s       :     3.877950  s :     3.877950
      pz      :     1.428572  p :     4.648439
      px      :     1.484885
      py      :     1.734982
      dz2     :     0.014792  d :     0.054369
      dxz     :     0.013044
      dyz     :     0.009231
      dx2y2   :     0.008906
      dxy     :     0.008396
 13 N s       :     3.606165  s :     3.606165
      pz      :     1.409127  p :     4.017090
      px      :     1.180732
      py      :     1.427231
      dz2     :     0.007368  d :     0.056495
      dxz     :     0.019156
      dyz     :     0.008576
      dx2y2   :     0.014871
      dxy     :     0.006524
 14 H s       :     0.583775  s :     0.583775
      pz      :     0.017595  p :     0.042850
      px      :     0.008495
      py      :     0.016759
 15 O s       :     3.833893  s :     3.833893
      pz      :     1.712336  p :     4.728878
      px      :     1.640377
      py      :     1.376165
      dz2     :     0.007542  d :     0.048652
      dxz     :     0.008117
      dyz     :     0.012161
      dx2y2   :     0.009724
      dxy     :     0.011108
 16 H s       :     0.822236  s :     0.822236
      pz      :     0.005235  p :     0.014726
      px      :     0.007149
      py      :     0.002342
 17 O s       :     3.873808  s :     3.873808
      pz      :     1.606379  p :     4.642858
      px      :     1.628624
      py      :     1.407854
      dz2     :     0.007977  d :     0.054392
      dxz     :     0.007901
      dyz     :     0.011494
      dx2y2   :     0.014118
      dxy     :     0.012902
 18 H s       :     0.582948  s :     0.582948
      pz      :     0.014819  p :     0.042580
      px      :     0.007571
      py      :     0.020190


                     *******************************
                     * LOEWDIN POPULATION ANALYSIS *
                     *******************************

----------------------
LOEWDIN ATOMIC CHARGES
----------------------
   0 C :    0.209344
   1 C :   -0.132696
   2 H :    0.130162
   3 H :    0.134906
   4 O :   -0.192390
   5 C :   -0.099979
   6 H :    0.086097
   7 H :    0.091960
   8 C :   -0.022698
   9 H :    0.080743
  10 H :    0.081597
  11 C :    0.195902
  12 O :   -0.301059
  13 N :   -0.269343
  14 H :    0.201597
  15 O :   -0.183521
  16 H :    0.078121
  17 O :   -0.291440
  18 H :    0.202696

-------------------------------
LOEWDIN REDUCED ORBITAL CHARGES
-------------------------------
  0 C s       :     2.841416  s :     2.841416
      pz      :     0.806473  p :     2.616395
      px      :     0.845406
      py      :     0.964516
      dz2     :     0.036270  d :     0.332845
      dxz     :     0.052188
      dyz     :     0.065794
      dx2y2   :     0.099302
      dxy     :     0.079291
  1 C s       :     2.895604  s :     2.895604
      pz      :     1.037771  p :     3.131473
      px      :     1.076276
      py      :     1.017425
      dz2     :     0.008536  d :     0.105620
      dxz     :     0.026541
      dyz     :     0.031467
      dx2y2   :     0.022462
      dxy     :     0.016613
  2 H s       :     0.784483  s :     0.784483
      pz      :     0.025597  p :     0.085355
      px      :     0.040253
      py      :     0.019505
  3 H s       :     0.779303  s :     0.779303
      pz      :     0.033020  p :     0.085791
      px      :     0.032602
      py      :     0.020169
  4 O s       :     3.451836  s :     3.451836
      pz      :     1.529109  p :     4.667934
      px      :     1.498810
      py      :     1.640015
      dz2     :     0.008968  d :     0.072620
      dxz     :     0.015704
      dyz     :     0.016153
      dx2y2   :     0.017854
      dxy     :     0.013941
  5 C s       :     2.891557  s :     2.891557
      pz      :     1.047932  p :     3.098888
      px      :     1.030414
      py      :     1.020542
      dz2     :     0.009002  d :     0.109534
      dxz     :     0.030178
      dyz     :     0.028958
      dx2y2   :     0.029263
      dxy     :     0.012133
  6 H s       :     0.868559  s :     0.868559
      pz      :     0.013270  p :     0.045344
      px      :     0.022420
      py      :     0.009655
  7 H s       :     0.862306  s :     0.862306
      pz      :     0.017269  p :     0.045734
      px      :     0.019579
      py      :     0.008885
  8 C s       :     2.871875  s :     2.871875
      pz      :     0.995848  p :     2.992731
      px      :     1.055743
      py      :     0.941140
      dz2     :     0.017218  d :     0.158092
      dxz     :     0.031759
      dyz     :     0.048416
      dx2y2   :     0.045654
      dxy     :     0.015045
  9 H s       :     0.873900  s :     0.873900
      pz      :     0.016605  p :     0.045357
      px      :     0.008052
      py      :     0.020700
 10 H s       :     0.872215  s :     0.872215
      pz      :     0.016322  p :     0.046187
      px      :     0.021122
      py      :     0.008743
 11 C s       :     2.851252  s :     2.851252
      pz      :     0.913251  p :     2.620974
      px      :     0.832291
      py      :     0.875432
      dz2     :     0.065274  d :     0.331872
      dxz     :     0.057815
      dyz     :     0.071496
      dx2y2   :     0.060141
      dxy     :     0.077145
 12 O s       :     3.544671  s :     3.544671
      pz      :     1.471363  p :     4.674826
      px      :     1.507579
      py      :     1.695884
      dz2     :     0.019262  d :     0.081561
      dxz     :     0.026463
      dyz     :     0.012546
      dx2y2   :     0.012413
      dxy     :     0.010878
 13 N s       :     3.188156  s :     3.188156
      pz      :     1.391447  p :     3.996191
      px      :     1.166967
      py      :     1.437777
      dz2     :     0.009155  d :     0.084995
      dxz     :     0.028033
      dyz     :     0.013624
      dx2y2   :     0.024129
      dxy     :     0.010056
 14 H s       :     0.675345  s :     0.675345
      pz      :     0.049122  p :     0.123058
      px      :     0.024532
      py      :     0.049404
 15 O s       :     3.451297  s :     3.451297
      pz      :     1.672129  p :     4.658401
      px      :     1.626165
      py      :     1.360108
      dz2     :     0.010084  d :     0.073823
      dxz     :     0.010033
      dyz     :     0.018468
      dx2y2   :     0.015277
      dxy     :     0.019960
 16 H s       :     0.877374  s :     0.877374
      pz      :     0.016384  p :     0.044505
      px      :     0.021623
      py      :     0.006498
 17 O s       :     3.543709  s :     3.543709
      pz      :     1.579030  p :     4.666329
      px      :     1.618639
      py      :     1.468659
      dz2     :     0.011933  d :     0.081403
      dxz     :     0.009248
      dyz     :     0.015813
      dx2y2   :     0.020615
      dxy     :     0.023793
 18 H s       :     0.674782  s :     0.674782
      pz      :     0.044019  p :     0.122522
      px      :     0.023222
      py      :     0.055281


                      *****************************
                      * MAYER POPULATION ANALYSIS *
                      *****************************

  NA   - Mulliken gross atomic population
  ZA   - Total nuclear charge
  QA   - Mulliken gross atomic charge
  VA   - Mayer's total valence
  BVA  - Mayer's bonded valence
  FA   - Mayer's free valence

  ATOM       NA         ZA         QA         VA         BVA        FA
  0 C      5.2460     6.0000     0.7540     3.7814     3.4924     0.2890
  1 C      6.3089     6.0000    -0.3089     3.8380     3.5704     0.2676
  2 H      0.7253     1.0000     0.2747     0.9095     0.8640     0.0456
  3 H      0.7168     1.0000     0.2832     0.9118     0.8662     0.0456
  4 O      8.6140     8.0000    -0.6140     2.0916     1.7363     0.3553
  5 C      6.2400     6.0000    -0.2400     3.8571     3.5859     0.2712
  6 H      0.8334     1.0000     0.1666     0.9520     0.9056     0.0464
  7 H      0.8349     1.0000     0.1651     0.9519     0.9046     0.0473
  8 C      6.0196     6.0000    -0.0196     3.8231     3.5463     0.2769
  9 H      0.8444     1.0000     0.1556     0.9554     0.9079     0.0474
 10 H      0.8380     1.0000     0.1620     0.9552     0.9075     0.0477
 11 C      5.2465     6.0000     0.7535     3.7194     3.4257     0.2937
 12 O      8.5808     8.0000    -0.5808     2.1248     1.7244     0.4004
 13 N      7.6798     7.0000    -0.6798     2.9604     2.6329     0.3275
 14 H      0.6266     1.0000     0.3734     0.8759     0.8323     0.0436
 15 O      8.6114     8.0000    -0.6114     2.1117     1.7540     0.3577
 16 H      0.8370     1.0000     0.1630     0.9474     0.9001     0.0473
 17 O      8.5711     8.0000    -0.5711     2.1425     1.7447     0.3978
 18 H      0.6255     1.0000     0.3745     0.8749     0.8310     0.0440

  Mayer bond orders larger than 0.100000
B(  0-C ,  1-C ) :   0.8942 B(  0-C ,  4-O ) :   0.9306 B(  0-C , 17-O ) :   1.6798 
B(  1-C ,  5-C ) :   0.8940 B(  1-C ,  6-H ) :   0.9277 B(  1-C ,  7-H ) :   0.9202 
B(  2-H , 13-N ) :   0.8711 B(  3-H , 13-N ) :   0.8592 B(  4-O , 14-H ) :   0.8045 
B(  5-C ,  8-C ) :   0.9137 B(  5-C ,  9-H ) :   0.9298 B(  5-C , 10-H ) :   0.9162 
B(  8-C , 11-C ) :   0.8461 B(  8-C , 13-N ) :   0.9301 B(  8-C , 16-H ) :   0.9212 
B( 11-C , 12-O ) :   1.6607 B( 11-C , 15-O ) :   0.9364 B( 15-O , 18-H ) :   0.8015 



                *******************************************
                * RELAXED MP2 DENSITY POPULATION ANALYSIS *
                *******************************************

------------------------------------------------------------------------------
                           ORCA POPULATION ANALYSIS
------------------------------------------------------------------------------
Input electron density              ... 4.pmp2re
BaseName (.gbw .S,...)              ... 4

                    ********************************
                    * MULLIKEN POPULATION ANALYSIS *
                    ********************************

-----------------------
MULLIKEN ATOMIC CHARGES
-----------------------
   0 C :    0.570811
   1 C :   -0.292563
   2 H :    0.259801
   3 H :    0.264255
   4 O :   -0.516357
   5 C :   -0.220236
   6 H :    0.150569
   7 H :    0.151235
   8 C :   -0.033086
   9 H :    0.141713
  10 H :    0.144841
  11 C :    0.558337
  12 O :   -0.449061
  13 N :   -0.616679
  14 H :    0.347535
  15 O :   -0.509181
  16 H :    0.142323
  17 O :   -0.441565
  18 H :    0.347308
Sum of atomic charges:   -0.0000000

--------------------------------
MULLIKEN REDUCED ORBITAL CHARGES
--------------------------------
  0 C s       :     2.975630  s :     2.975630
      pz      :     0.783186  p :     2.303354
      px      :     0.702866
      py      :     0.817302
      dz2     :     0.016958  d :     0.150206
      dxz     :     0.024164
      dyz     :     0.030173
      dx2y2   :     0.045398
      dxy     :     0.033513
  1 C s       :     3.237320  s :     3.237320
      pz      :     0.980522  p :     2.998780
      px      :     1.074259
      py      :     0.943998
      dz2     :     0.006274  d :     0.056464
      dxz     :     0.014733
      dyz     :     0.014169
      dx2y2   :     0.011688
      dxy     :     0.009600
  2 H s       :     0.713158  s :     0.713158
      pz      :     0.008110  p :     0.027041
      px      :     0.012203
      py      :     0.006727
  3 H s       :     0.708823  s :     0.708823
      pz      :     0.009936  p :     0.026922
      px      :     0.010119
      py      :     0.006867
  4 O s       :     3.813410  s :     3.813410
      pz      :     1.526218  p :     4.656048
      px      :     1.485642
      py      :     1.644188
      dz2     :     0.006826  d :     0.046899
      dxz     :     0.008092
      dyz     :     0.011208
      dx2y2   :     0.011419
      dxy     :     0.009353
  5 C s       :     3.224082  s :     3.224082
      pz      :     1.012309  p :     2.937943
      px      :     0.966972
      py      :     0.958662
      dz2     :     0.006297  d :     0.058210
      dxz     :     0.015189
      dyz     :     0.014886
      dx2y2   :     0.014299
      dxy     :     0.007539
  6 H s       :     0.834980  s :     0.834980
      pz      :     0.004216  p :     0.014451
      px      :     0.006736
      py      :     0.003499
  7 H s       :     0.833870  s :     0.833870
      pz      :     0.005414  p :     0.014895
      px      :     0.006152
      py      :     0.003329
  8 C s       :     3.177499  s :     3.177499
      pz      :     0.923211  p :     2.776814
      px      :     1.031007
      py      :     0.822596
      dz2     :     0.010636  d :     0.078772
      dxz     :     0.016013
      dyz     :     0.021074
      dx2y2   :     0.021357
      dxy     :     0.009693
  9 H s       :     0.843697  s :     0.843697
      pz      :     0.005161  p :     0.014590
      px      :     0.003015
      py      :     0.006414
 10 H s       :     0.840425  s :     0.840425
      pz      :     0.005185  p :     0.014734
      px      :     0.006432
      py      :     0.003116
 11 C s       :     2.987118  s :     2.987118
      pz      :     0.817883  p :     2.305660
      px      :     0.698284
      py      :     0.789493
      dz2     :     0.030151  d :     0.148885
      dxz     :     0.024282
      dyz     :     0.032647
      dx2y2   :     0.027853
      dxy     :     0.033952
 12 O s       :     3.852234  s :     3.852234
      pz      :     1.408897  p :     4.545186
      px      :     1.455241
      py      :     1.681049
      dz2     :     0.013574  d :     0.051641
      dxz     :     0.011978
      dyz     :     0.009303
      dx2y2   :     0.008477
      dxy     :     0.008309
 13 N s       :     3.589424  s :     3.589424
      pz      :     1.387713  p :     3.973669
      px      :     1.165359
      py      :     1.420596
      dz2     :     0.007436  d :     0.053585
[...]
 17 O s       :     3.859792  s :     3.859792
      pz      :     1.517577  p :     4.537904
      px      :     1.642462
      py      :     1.377864
      dz2     :     0.007698  d :     0.050646
      dxz     :     0.006606
      dyz     :     0.011829
      dx2y2   :     0.012669
      dxy     :     0.011845
 18 H s       :     0.608750  s :     0.608750
      pz      :     0.013258  p :     0.040526
      px      :     0.008972
      py      :     0.018296


                     *******************************
                     * LOEWDIN POPULATION ANALYSIS *
                     *******************************

----------------------
LOEWDIN ATOMIC CHARGES
----------------------
   0 C :    0.155359
   1 C :   -0.152410
   2 H :    0.129262
   3 H :    0.131862
   4 O :   -0.175473
   5 C :   -0.105988
   6 H :    0.089463
   7 H :    0.096057
   8 C :   -0.045440
   9 H :    0.082686
  10 H :    0.081809
  11 C :    0.133996
  12 O :   -0.232135
  13 N :   -0.258569
  14 H :    0.189661
  15 O :   -0.162586
  16 H :    0.079253
  17 O :   -0.229627
  18 H :    0.192818

-------------------------------
LOEWDIN REDUCED ORBITAL CHARGES
-------------------------------
  0 C s       :     2.853698  s :     2.853698
      pz      :     0.846825  p :     2.684322
      px      :     0.863508
      py      :     0.973988
      dz2     :     0.033273  d :     0.306621
      dxz     :     0.039264
      dyz     :     0.061369
      dx2y2   :     0.086440
      dxy     :     0.086274
  1 C s       :     2.898430  s :     2.898430
      pz      :     1.051224  p :     3.154887
      px      :     1.077594
      py      :     1.026069
      dz2     :     0.010858  d :     0.099093
      dxz     :     0.023530
      dyz     :     0.025762
      dx2y2   :     0.019216
      dxy     :     0.019728
  2 H s       :     0.787091  s :     0.787091
      pz      :     0.023421  p :     0.083647
      px      :     0.039500
      py      :     0.020725
  3 H s       :     0.783783  s :     0.783783
      pz      :     0.035020  p :     0.084355
      px      :     0.029894
      py      :     0.019441
  4 O s       :     3.481490  s :     3.481490
      pz      :     1.559887  p :     4.622224
      px      :     1.456204
      py      :     1.606133
      dz2     :     0.008735  d :     0.071759
      dxz     :     0.014094
      dyz     :     0.015357
      dx2y2   :     0.017010
      dxy     :     0.016563
  5 C s       :     2.894503  s :     2.894503
      pz      :     1.055142  p :     3.108435
      px      :     1.033940
      py      :     1.019353
      dz2     :     0.009763  d :     0.103049
      dxz     :     0.027077
      dyz     :     0.026652
      dx2y2   :     0.027081
      dxy     :     0.012477
  6 H s       :     0.864902  s :     0.864902
      pz      :     0.011175  p :     0.045635
      px      :     0.023232
      py      :     0.011229
  7 H s       :     0.858412  s :     0.858412
      pz      :     0.020044  p :     0.045531
      px      :     0.016502
      py      :     0.008985
  8 C s       :     2.873644  s :     2.873644
      pz      :     1.008261  p :     3.020338
      px      :     1.059071
      py      :     0.953005
      dz2     :     0.017715  d :     0.151458
      dxz     :     0.030598
      dyz     :     0.044114
      dx2y2   :     0.044547
      dxy     :     0.014484
  9 H s       :     0.872259  s :     0.872259
      pz      :     0.017554  p :     0.045055
      px      :     0.008332
      py      :     0.019169
 10 H s       :     0.872536  s :     0.872536
      pz      :     0.015316  p :     0.045655
      px      :     0.021235
      py      :     0.009104
 11 C s       :     2.861856  s :     2.861856
      pz      :     0.953266  p :     2.695802
      px      :     0.826693
      py      :     0.915843
      dz2     :     0.062556  d :     0.308346
      dxz     :     0.055275
      dyz     :     0.091757
      dx2y2   :     0.042745
      dxy     :     0.056013
 12 O s       :     3.561552  s :     3.561552
      pz      :     1.440481  p :     4.591741
      px      :     1.452162
      py      :     1.699097
      dz2     :     0.022800  d :     0.078843
      dxz     :     0.023627
      dyz     :     0.014658
      dx2y2   :     0.009218
      dxy     :     0.008540
 13 N s       :     3.201466  s :     3.201466
      pz      :     1.348423  p :     3.974159
      px      :     1.189530
      py      :     1.436205
      dz2     :     0.010699  d :     0.082944
      dxz     :     0.025730
      dyz     :     0.014065
      dx2y2   :     0.022801
      dxy     :     0.009649
 14 H s       :     0.689939  s :     0.689939
      pz      :     0.044090  p :     0.120399
      px      :     0.026176
      py      :     0.050134
 15 O s       :     3.478363  s :     3.478363
      pz      :     1.652240  p :     4.611310
      px      :     1.654723
      py      :     1.304347
      dz2     :     0.009695  d :     0.072913
      dxz     :     0.010732
      dyz     :     0.020904
      dx2y2   :     0.014356
      dxy     :     0.017226
 16 H s       :     0.876108  s :     0.876108
      pz      :     0.016547  p :     0.044639
      px      :     0.021353
      py      :     0.006739
 17 O s       :     3.560431  s :     3.560431
      pz      :     1.508495  p :     4.590896
      px      :     1.633479
      py      :     1.448922
      dz2     :     0.011366  d :     0.078300
      dxz     :     0.007826
      dyz     :     0.017495
      dx2y2   :     0.021093
      dxy     :     0.020520
 18 H s       :     0.687157  s :     0.687157
      pz      :     0.040911  p :     0.120025
      px      :     0.025903
      py      :     0.053211


                      *****************************
                      * MAYER POPULATION ANALYSIS *
                      *****************************

  NA   - Mulliken gross atomic population
  ZA   - Total nuclear charge
  QA   - Mulliken gross atomic charge
  VA   - Mayer's total valence
  BVA  - Mayer's bonded valence
  FA   - Mayer's free valence

  ATOM       NA         ZA         QA         VA         BVA        FA
  0 C      5.4234     6.0000     0.5766     3.9867     3.7093     0.2774
  1 C      6.3049     6.0000    -0.3049     3.8766     3.6117     0.2649
  2 H      0.7420     1.0000     0.2580     0.9166     0.8707     0.0459
  3 H      0.7350     1.0000     0.2650     0.9256     0.8801     0.0456
  4 O      8.5205     8.0000    -0.5205     2.2081     1.8561     0.3521
  5 C      6.2100     6.0000    -0.2100     3.9085     3.6401     0.2684
  6 H      0.8418     1.0000     0.1582     0.9589     0.9125     0.0464
  7 H      0.8448     1.0000     0.1552     0.9544     0.9068     0.0475
  8 C      6.0417     6.0000    -0.0417     3.9053     3.6321     0.2732
  9 H      0.8572     1.0000     0.1428     0.9577     0.9102     0.0475
 10 H      0.8537     1.0000     0.1463     0.9618     0.9141     0.0477
 11 C      5.4434     6.0000     0.5566     3.9396     3.6582     0.2814
 12 O      8.4485     8.0000    -0.4485     2.2993     1.9078     0.3915
 13 N      7.6105     7.0000    -0.6105     3.0270     2.7042     0.3228
 14 H      0.6548     1.0000     0.3452     0.9001     0.8567     0.0434
 15 O      8.5133     8.0000    -0.5133     2.2250     1.8711     0.3539
 16 H      0.8569     1.0000     0.1431     0.9534     0.9062     0.0473
 17 O      8.4483     8.0000    -0.4483     2.3040     1.9144     0.3897
 18 H      0.6493     1.0000     0.3507     0.8974     0.8542     0.0432

  Mayer bond orders larger than 0.100000
B(  0-C ,  1-C ) :   0.9091 B(  0-C ,  4-O ) :   0.9986 B(  0-C , 17-O ) :   1.7912 
B(  1-C ,  5-C ) :   0.9045 B(  1-C ,  6-H ) :   0.9164 B(  1-C ,  7-H ) :   0.9091 
B(  2-H , 13-N ) :   0.8732 B(  3-H , 13-N ) :   0.8604 B(  4-O , 14-H ) :   0.8127 
B(  5-C ,  8-C ) :   0.9204 B(  5-C ,  9-H ) :   0.9215 B(  5-C , 10-H ) :   0.9124 
B(  8-C , 11-C ) :   0.8643 B(  8-C , 13-N ) :   0.9661 B(  8-C , 16-H ) :   0.9097 
B( 11-C , 12-O ) :   1.7801 B( 11-C , 15-O ) :   0.9994 B( 15-O , 18-H ) :   0.8057 



----------------------------------
MP2 DERIVATIVE INTEGRAL GENERATION
----------------------------------

Input SCF Electron Density              ... 4.scfp
Input Correlated Electron Density       ... 4.pmp2re
Input Energy Weighted Density           ... 4.wmp2.tmp
Input Wavefunction Amplitudes           ... 4.mp2tsaa.tmp

Nuclear repulsion gradient              ... done (  0.0 sec)
HCore & Overlap gradient  (SHARK)       ... done (  0.1 sec)
Analytic two-electron gradient terms    ... 
  Batch handling in the gradient evaluation:
  General contraction                   ... not used
  Memory available                      ... 4082.1 MB
  Memory per occupied orbital in Q2     ...    7.6 MB
  Memory per occupied orbital in Q3     ...    0.0 MB
  Total memory requirement per |i>      ...    7.6 MB
  Number of orbitals treated per batch  ...     29
  Number of batches to be done          ...      1
done ( 22.7 sec)

---------------------------------------
MP2 TOTAL ENERGY:     -550.086386741 Eh
---------------------------------------

The final MP2 gradient
  0:   0.00001147  -0.00001826   0.00000222
  1:  -0.00000390   0.00000992   0.00000205
  2:  -0.00000035   0.00000030   0.00000717
  3:   0.00000471  -0.00000054   0.00000753
  4:  -0.00001142   0.00000762  -0.00000823
  5:   0.00000305  -0.00002648  -0.00000655
  6:  -0.00000389  -0.00000435  -0.00000272
  7:  -0.00000189   0.00001061   0.00000359
  8:   0.00002205   0.00000708   0.00000514
  9:  -0.00000134  -0.00000083  -0.00000244
 10:   0.00000028   0.00000523   0.00000323
 11:  -0.00003923   0.00000110   0.00002145
 12:   0.00001466  -0.00000026  -0.00001055
 13:  -0.00001103   0.00000452  -0.00001757
 14:   0.00000725  -0.00000388   0.00000124
 15:   0.00002561   0.00000076  -0.00000597
 16:  -0.00000174  -0.00000160  -0.00000025
 17:  -0.00000553   0.00000928   0.00000231
 18:  -0.00000878  -0.00000022  -0.00000167

-----------------------------------
NORM OF THE MP2 GRADIENT:  0.000079
-----------------------------------

Maximum memory used throughout the entire MP2-calculation: 759.8 MB

-------------------------   --------------------
FINAL SINGLE POINT ENERGY      -550.086386741071
-------------------------   --------------------

                                *** OPTIMIZATION RUN DONE ***


------------------------------------------------------------------------------
                              ORCA PROPERTY CALCULATIONS
------------------------------------------------------------------------------

GBWName                                 ... 4.gbw
Number of atoms                         ...     19
Number of basis functions               ...    185
Max core memory                         ...   4096 MB

Electric properties:
Dipole moment                           ... YES
Quadrupole moment                       ...  NO
Static polarizability (Dipole/Dipole)   ...  NO
Static polarizability (Dipole/Quad.)    ...  NO
Static polarizability (Quad./Quad.)     ...  NO
Static polarizability (Velocity)        ...  NO
Static hyperpolarizability              ...  NO

Atomic electric properties:
Dipole moment                           ...  NO
Quadrupole moment                       ...  NO
Static polarizability                   ...  NO

Choice of electric origin               ... Center of mass
Position of electric origin             ...    -2.469513     0.720325     0.706072

General magnetic properties:
Magnetizability                         ...  NO

EPR properties:
g-Tensor (aka g-matrix)                 ...  NO
Zero-Field splitting spin-orbit         ...  NO
Zero-field splitting spin-spin          ...  NO
Hyperfine couplings                     ...  NO (   0 nuclei)
Quadrupole couplings                    ...  NO (   0 nuclei)
Contact density                         ...  NO (   0 nuclei)

NMR properties:
Chemical shifts                         ...  NO (   0 nuclei)
Spin-rotation constants                 ...  NO (   0 nuclei)
Spin-spin couplings                     ...  NO (   0 nuclei,    0 pairs)

Choice of magnetic origin               ... GIAO
Position of magnetic origin             ...     0.000000     0.000000     0.000000

Properties with geometric perturbations:
SCF Hessian                             ...  NO
IR spectrum                             ...  NO
VCD spectrum                            ...  NO
X-ray spectroscopy properties:
SCF XES/XAS/RIXS spectra                ...  NO

SCF SOC stabilization energy            ...  NO
Diagonal Born-Oppenheimer correction    ...  NO

-------------
DIPOLE MOMENT
-------------

Method             : SCF
Type of density    : Electron Density
Multiplicity       :   1
Irrep              :   0
Energy             :  -548.5307737612494066 Eh
Basis              : AO
                                X                 Y                 Z
Electronic contribution:     -0.588774234      -5.800865513       2.881411099
Nuclear contribution   :      0.678968932       6.060567756      -3.261089931
                        -----------------------------------------
Total Dipole Moment    :      0.090194698       0.259702243      -0.379678832
                        -----------------------------------------
Magnitude (a.u.)       :      0.468760444
Magnitude (Debye)      :      1.191494360



--------------------
Rotational spectrum 
--------------------
 
Rotational constants in cm-1:             0.062865             0.035873             0.030205 
Rotational constants in MHz :          1884.634773          1075.453522           905.511485 

Dipole components along the rotational axes: 
x,y,z [a.u.] :     0.123406    -0.321813    -0.317717 
x,y,z [Debye]:     0.313674    -0.817983    -0.807572 

 

-------------
DIPOLE MOMENT
-------------

Method             : MP2
Type of density    : Electron Density
Multiplicity       :   1
Level              : Unrelaxed density
Irrep              :   0
Energy             :     0.0000000000000000 Eh
Basis              : AO
                                X                 Y                 Z
Electronic contribution:     -0.598584839      -5.839201281       2.925952221
Nuclear contribution   :      0.678968932       6.060567756      -3.261089931
                        -----------------------------------------
Total Dipole Moment    :      0.080384093       0.221366475      -0.335137711
                        -----------------------------------------
Magnitude (a.u.)       :      0.409612016
Magnitude (Debye)      :      1.041151004



--------------------
Rotational spectrum 
--------------------
 
Rotational constants in cm-1:             0.062865             0.035873             0.030205 
Rotational constants in MHz :          1884.634773          1075.453522           905.511485 

Dipole components along the rotational axes: 
x,y,z [a.u.] :     0.103934    -0.278169    -0.282138 
x,y,z [Debye]:     0.264179    -0.707050    -0.717137 

 

-------------
DIPOLE MOMENT
-------------

Method             : MP2
Type of density    : Electron Density
Multiplicity       :   1
Level              : Relaxed density
Irrep              :   0
Energy             :     0.0000000000000000 Eh
Basis              : AO
                                X                 Y                 Z
Electronic contribution:     -0.632854819      -6.019161442       3.102140073
Nuclear contribution   :      0.678968932       6.060567756      -3.261089931
                        -----------------------------------------
Total Dipole Moment    :      0.046114113       0.041406314      -0.158949858
                        -----------------------------------------
Magnitude (a.u.)       :      0.170604958
Magnitude (Debye)      :      0.433643341



--------------------
Rotational spectrum 
--------------------
 
Rotational constants in cm-1:             0.062865             0.035873             0.030205 
Rotational constants in MHz :          1884.634773          1075.453522           905.511485 

Dipole components along the rotational axes: 
x,y,z [a.u.] :     0.010076    -0.083417    -0.148479 
x,y,z [Debye]:     0.025611    -0.212029    -0.377405 

 

Dipole moment calculation done in   0.0 sec 

Maximum memory used throughout the entire PROP-calculation: 10.3 MB

--------------------------------
SUGGESTED CITATIONS FOR THIS RUN
--------------------------------

Below you find a list of papers that are relevant to this ORCA run
We neither can nor want to force you to cite these papers, but we appreciate if you do
You receive ORCA, which is the product of decades of hard work by many enthusiastic individuals, for free
The only thing we kindly ask in return is that you cite our papers,
We deeply appreciate it, if you show your appreciation for ORCA by not just citing the generic ORCA reference.

Please note that relegating all ORCA citations to the supporting information does *not* help us.
SI sections are not indexed - citations you put there will not count into any citation statistics
But we need these citations in order to attract the funding resources that allow us to do what we are doing

Therefore, if you are a happy ORCA user, please consider citing a few of the papers listed below in the main body of your paper

In addition to the list printed below, the program has created the file 4.bibtex that contains the list in bibtex format
You can import this file easily into all common literature databanks and citation aid programs


List of essential papers. We consider these as the minimum necessary citations

  1. Neese, F.
     Software update: the ORCA program system, version 6.0
     WIRES Comput. Molec. Sci. 2025 15(1), e70019
     doi.org/10.1002/wcms.7019

List of papers to cite with high priority. The work reported in these papers was absolutely
necessary for this run to complete.
Our perspective: the developers of density functionals and basis sets usually get cited in chemistry papers
Good! But without the algorithms to do something with them, the functionals or basis sets would not do anything.
Hence, in our opinion, the algorithm design and method developments papers are equally worthy of getting cited

  1. Neese, F.
     The SHARK Integral Generation and Digestion System
     J. Comp. Chem. 2022 44(3), 381
     doi.org/10.1002/jcc.26942

List of suggested additional citations. These are papers that are important in the 'surrounding' of 
of this run, or papers that preceded the highly important papers. If you like your results we are grateful for a citation.

  1. Neese, F.
     The ORCA program system
     WIRES Comput. Molec. Sci. 2012 2(1), 73-78
     doi.org/10.1002/wcms.81
  2. Neese, F.
     Software update: the ORCA program system, version 4.0
     WIRES Comput. Molec. Sci. 2018 8(1), 1-6
     doi.org/10.1002/wcms.1327
  3. Neese, F.; Wennmohs, F.; Becker, U.; Riplinger, C.
     The ORCA quantum chemistry program package
     J. Chem. Phys. 2020 152(22), 224108
     doi.org/10.1063/5.0004608
  4. Neese, F.
     Software update: The ORCA program system—Version 5.0
     WIRES Comput. Molec. Sci. 2022 12(1), e1606
     doi.org/10.1002/wcms.1606

List of optional additional citations

  1. Neese, F.
     Approximate second-order SCF convergence for spin unrestricted wavefunctions
     Chem. Phys. Lett. 2000 325(1-3), 93-98
     doi.org/10.1016/s0009-2614(00)00662-x

Timings for individual modules:

Sum of individual times          ...     1203.851 sec (=  20.064 min)
Startup calculation              ...        6.654 sec (=   0.111 min)   0.6 %
SCF iterations                   ...      238.342 sec (=   3.972 min)  19.8 %
Property calculations            ...        0.045 sec (=   0.001 min)   0.0 %
MP2 module                       ...      958.788 sec (=  15.980 min)  79.6 %
Geometry relaxation              ...        0.023 sec (=   0.000 min)   0.0 %
                             ****ORCA TERMINATED NORMALLY****
TOTAL RUN TIME: 0 days 0 hours 20 minutes 4 seconds 171 msec
