
                                 *****************
                                 * O   R   C   A *
                                 *****************

                                            #,                                       
                                            ###                                      
                                            ####                                     
                                            #####                                    
                                            ######                                   
                                           ########,                                 
                                     ,,################,,,,,                         
                               ,,#################################,,                 
                          ,,##########################################,,             
                       ,#########################################, ''#####,          
                    ,#############################################,,   '####,        
                  ,##################################################,,,,####,       
                ,###########''''           ''''###############################       
              ,#####''   ,,,,##########,,,,          '''####'''          '####       
            ,##' ,,,,###########################,,,                        '##       
           ' ,,###''''                  '''############,,,                           
         ,,##''                                '''############,,,,        ,,,,,,###''
      ,#''                                            '''#######################'''  
     '                                                          ''''####''''         
             ,#######,   #######,   ,#######,      ##                                
            ,#'     '#,  ##    ##  ,#'     '#,    #''#        ,####,    ,#,          
            ##       ##  ##   ,#'  ##            #'  '#       #'       ,# #          
            ##       ##  #######   ##           ,######,      #####,      #          
            '#,     ,#'  ##    ##  '#,     ,#' ,#      #,     #,   #      #          
             '#######'   ##     ##  '#######'  #'      '#     '####' #    #          



                #########################################################
                #                        -***-                          #
                #          Department of theory and spectroscopy        #
                #                                                       #
                #                      Frank Neese                      #
                #                                                       #
                #     Directorship, Architecture, Infrastructure        #
                #                    SHARK, DRIVERS                     #
                #        Core code/Algorithms in most modules           #
                #                                                       #
                #        Max Planck Institute fuer Kohlenforschung      #
                #                Kaiser Wilhelm Platz 1                 #
                #                 D-45470 Muelheim/Ruhr                 #
                #                      Germany                          #
                #                                                       #
                #                  All rights reserved                  #
                #                        -***-                          #
                #########################################################


                         Program Version 6.1.0  -  RELEASE   -
                                (GIT: $679e74b$)
                          ($2025-06-10 18:02:51 +0200$)


 With contributions from (in alphabetic order):
[Max-Planck-Institut fuer Kohlenforschung]                               
  Daniel Aravena         : Magnetic Suceptibility                        
  Michael Atanasov       : Ab Initio Ligand Field Theory (pilot matlab implementation)
  Alexander A. Auer      : GIAO ZORA, VPT2 properties, NMR spectrum      
  Ute Becker             : All parallelization in ORCA, NUMFREQ, NUMCALC 
  Giovanni Bistoni       : ED, misc. LED, open-shell LED, HFLD           
  Dmytro Bykov           : pre 5.0 version of the SCF Hessian            
  Marcos Casanova-Páez   : Triplet and SCS-CIS(D). UHF-(DLPNO)-IP/EA/STEOM-CCSD. UHF-CVS-IP/STEOM-CCSD   
  Vijay G. Chilkuri      : MRCI spin determinant printing, contributions to CSF-ICE 
  Pauline Colinet        : FMM embedding                                 
  Dipayan Datta          : RHF DLPNO-CCSD density                        
  Achintya Kumar Dutta   : EOM-CC, STEOM-CC                              
  Nicolas Foglia         : Exact transition moments, OPA infrastructure, MCD improvements    
  Dmitry Ganyushin       : Spin-Orbit,Spin-Spin,Magnetic field MRCI      
  Miquel Garcia-Rates    : C-PCM and meta-GGA Hessian, CCSD/C-PCM, Gaussian charge scheme 
  Tiago L. C. Gouveia    : GS-ROHF, GS-ROCIS                             
  Yang Guo               : DLPNO-NEVPT2, F12-NEVPT2, CIM, IAO-localization        
  Andreas Hansen         : Spin unrestricted coupled pair/coupled cluster methods 
  Ingolf Harden          : AUTO-CI MPn and infrastructure                
  Benjamin Helmich-Paris : MC-RPA, TRAH-(SCF,CASSCF), AVAS, COSX integrals, SCF dyn. polar., MC-PDFT, srDFT 
  Lee Huntington         : MR-EOM, pCC                                   
  Robert Izsak           : Overlap fitted RIJCOSX, COSX-SCS-MP3, EOM     
  Riya Kayal             : Wick's Theorem for AUTO-CI, AUTO-CI UHF-CCSDT 
  Emily Kempfer          : AUTO-CI RHF CISDT and CCSDT, approximate NEVPT4
  Christian Kollmar      : KDIIS, OOCD, Brueckner-CCSD(T), CCSD density, CASPT2, CASPT2-K, improved NEVPT2 
  Axel Koslowski         : Symmetry handling                             
  Simone Kossmann        : meta-GGA functionals, TD-DFT gradient, OOMP2, (MP2 Hessian; deprecated post 5.0) 
  Lucas Lang             : DCDCAS, Hyperfine gauge corrections, ICE-SOC+SSC
  Marvin Lechner         : AUTO-CI (C++ implementation), FIC-MRCC        
  Spencer Leger          : CASSCF response                               
  Dagmar Lenk            : GEPOL surface, SMD, ORCA-2-JSON               
  Dimitrios Liakos       : Extrapolation schemes; Compound Job, Property file
  Dimitrios Manganas     : Further ROCIS development; embedding schemes. LFT, Crystal Embedding 
  Dimitrios Pantazis     : SARC Basis sets                               
  Anastasios Papadopoulos: AUTO-CI, single reference methods and gradients 
  Taras Petrenko         : pre 6.0 DFT Hessian and TD-DFT gradient,  ECA, NRVS 
  Petra Pikulova         : Analytic Raman intensities                    
  Peter Pinski           : DLPNO-MP2, DLPNO-MP2 Gradient                 
  Shashank Vittal Rao    : ES-AILFT, MagRelax                            
  Christoph Reimann      : Effective Core Potentials                     
  Marius Retegan         : Local ZFS, SOC                                
  Christoph Riplinger    : Optimizer, TS searches, QM/MM, DLPNO-CCSD(T), (RO)-DLPNO pert. Triples 
  Michael Roemelt        : Original ROCIS implementation, recursive CI coupling coefficients
  Masaaki Saitow         : Open-shell DLPNO-CCSD energy and density      
  Barbara Sandhoefer     : DKH picture change effects                    
  Yorick L. A. Schmerwitz: GMF and freeze-and-release deltaSCF, NEB S-IDPP initial path                    
  Kantharuban Sivalingam : CASSCF convergence/infrastructure, NEVPT2, NEVPT3, NEVPT4(SD), FIC-MRCI and CEPA variants
  Bernardo de Souza      : ESD, SOC TD-DFT                               
  Georgi L. Stoychev     : AutoAux, RI-MP2 NMR, DLPNO-MP2 response, X2C  
  Van Anh Tran           : RI-MP2 g-tensors                              
  Willem Van den Heuvel  : Paramagnetic NMR                              
  Zikuan Wang            : NOTCH, Electric field optimization            
  Frank Wennmohs         : Technical directorship and infrastructure     
  Hang Xu                : AUTO-CI-Response properties                   
                                                                         
[FACCTs GmbH]                                                            
  Markus Bursch, Nicolas Foglia, Miquel Garcia-Rates, Ingolf Harden, Hagen Neugebauer, Anastasios Papadopoulos, 
  Christoph Riplinger, Bernardo de Souza, Georgi L. Stoychev                                                    
                                                                 
  APM, various basis sets, CI-OPT, improved COSX, DLPNO-Multilevel,           
  DOCKER, DRACO, updates on ESD, Fragmentator, GOAT, IRC, LR-CPCM, L-BFGS, MBIS, meta-GGA TD-DFT gradient, ML-optimized integration grids, 
  MM, NACMEs, nearIR, NEB, NEB-TS, NL-DFT gradient (VV10), 2- and 3-layer-ONIOM, interface openCOSMO-RS, QMMM,   
  Crystal-QMMM, RESP, rigid body optimization, SF, symmetry and pop. for TD-DFT, various functionals, SOLVATOR                                   
                                                                         
[Other institutions]                                                     
  V. Asgeirsson          : NEB                                           
  Christoph Bannwarth    : sTDA-DFT, sTD-DFT, PBEh-3c, B97-3c, D3        
  Giovanni Bistoni       : ETS/NOCV, ADLD/ADEX, COVALED                  
  Martin Brehm           : Molecular dynamics                            
  Ronald Cardenas        : ETS/NOCV                                      
  Martina Colucci        : COVALED                                       
  Sebastian Ehlert       : rSCAN, r2SCAN, r2SCAN-3c, D4, dhf basis sets  
  Marvin Friede          : D4 for Fr, Ra, Ac-Lr                          
  Lars Goerigk           : TD-DFT with DH, B97 family of functionals     
  Stefan Grimme          : VdW corrections, initial TS optimization, DFT functionals, gCP, sTDA/sTD-DF 
  Waldemar Hujo          : DFT-NL                                        
  H. Jonsson             : NEB                                           
  Holger Kruse           : gCP                                           
  Marcel Mueller         : wB97X-3c, vDZP basis set                      
  Hagen Neugebauer       : wr2SCAN, Native XTB                           
  Gianluca Regni         : ADLD/ADEX                                     
  Tobias Risthaus        : pre 6.0 range-separated hybrid DFT and stability analysis
  Lukas Wittmann         : regularized MP2, r2SCAN double-hybrids, wr2SCAN        
                                                                         
We gratefully acknowledge several colleagues who have allowed us to      
interface, adapt or use parts of their codes:                            
  Ed Valeev, F. Pavosevic, A. Kumar             : LibInt (2-el integral package), F12 methods 
  Garnet Chan, S. Sharma, J. Yang, R. Olivares  : DMRG                   
  Ulf Ekstrom                                   : XCFun DFT Library      
  Mihaly Kallay                                 : mrcc  (arbitrary order and MRCC methods)
  Frank Weinhold                                : gennbo (NPA and NBO analysis)           
  Simon Mueller                                 : openCOSMO-RS                            
  Christopher J. Cramer and Donald G. Truhlar   : smd solvation model                     
  S Lehtola, MJT Oliveira, MAL Marques          : LibXC Library                           
  Liviu Ungur et al                             : ANISO software                          


 Your calculation uses the libint2 library for the computation of 2-el integrals
 For citations please refer to: http://libint.valeyev.net

 Your ORCA version has been built with support for libXC version: 7.0.0
 For citations please refer to: https://libxc.gitlab.io

 This ORCA versions uses:
   CBLAS   interface :  Fast vector & matrix operations
   LAPACKE interface :  Fast linear algebra routines
   SCALAPACK package :  Parallel linear algebra routines
   Shared memory     :  Shared parallel matrices
   BLAS/LAPACK       :  OpenBLAS 0.3.29  USE64BITINT DYNAMIC_ARCH NO_AFFINITY Haswell SINGLE_THREADED
        Core in use  :  Haswell
   Copyright (c) 2011-2014, The OpenBLAS Project


  ***********************************
  * Starting time: Sat Aug 16 15:52:03 2025
  * Host name:     CHEMLAB02
  * Process ID:    1906835
  * Working dir.:  /home/vivek/mm-project/vivek/xtb-goat/B97-D/a/1
  ***********************************



***************************************
The coordinates will be read from file: /home/vivek/mm-project/vivek/xtb-goat/xtb-goat/a/A_CONF/1.xyz
***************************************


Your calculation utilizes empirical dispersion correction


Warning: RI is on but no J-basis has been assigned. Assigning Def2/J (nothing to worry about!)
================================================================================

----- Orbital basis set information -----
Your calculation utilizes the basis: 6-31G**
   H-He, Li-Ne : W. J. Hehre, R. Ditchfield and J.A. Pople, J. Chem. Phys. 56, 2257 (1972).
                 Note: He and Ne are unpublished basis sets taken from the Gaussian program.
                 Note: Li and B from J. D. Dill and J. A. Pople, J. Chem. Phys. 62, 2921 (1975).
   Na - Ar     : M. M. Francl, W. J. Pietro, W. J. Hehre, J. S. Binkley, M. S. Gordon, 
                 D. J. DeFrees and J. A. Pople, J. Chem. Phys. 77, 3654 (1982).
   K - Zn      : V. A. Rassolov, J. A. Pople, M. A. Ratner, and T. L. Windus, J. Chem. Phys. 109, 1223 (1998).

----- AuxJ basis set information -----
Your calculation utilizes the auxiliary basis: def2/J
   H-Rn: F. Weigend, Phys. Chem. Chem. Phys. 8, 1057 (2006).
   Fr-Lr: K. Eichkorn, F. Weigend, O. Treutler, R. Ahlrichs; Theor. Chem. Acc. 97, 119 (1997).

================================================================================
                                        WARNINGS
                       Please study these warnings very carefully!
================================================================================


INFO   : The exchange functional is Grimme's B97(-D)
         As described in S. Grimme, J. Comput. Chem. 27, 1787 (2006).
         Note that this functional defaults to a pure GGA. 

INFO   : The correlation functional is Grimme's B97(-D)
         As described in S. Grimme, J. Comput. Chem. 27, 1787 (2006).

================================================================================
                                       INPUT FILE
================================================================================
NAME = 1.inp
|  1> ! B97-D 6-31G** 
|  2> 
|  3> * xyzfile 0 1 /home/vivek/mm-project/vivek/xtb-goat/xtb-goat/a/A_CONF/1.xyz
|  4> 
|  5>                          ****END OF INPUT****
================================================================================

                       ****************************
                       * Single Point Calculation *
                       ****************************

---------------------------------
CARTESIAN COORDINATES (ANGSTROEM)
---------------------------------
  C     -4.774106    0.286799   -1.677803
  O     -4.789824    1.418438   -1.274071
  O     -3.635029   -0.350095   -1.987892
  C     -6.012271   -0.575345   -1.913156
  H     -2.874221    0.234318   -1.845321
  C     -6.757267   -0.001936   -3.123274
  H     -7.670608   -0.567741   -3.279627
  N     -5.752873   -1.984435   -2.117921
  H     -7.000129    1.042556   -2.950845
  H     -6.140404   -0.081030   -4.016123
  H     -6.648129   -0.469741   -1.025561
  H     -5.168878   -2.117394   -2.936866
  H     -5.261982   -2.379965   -1.323963

----------------------------
CARTESIAN COORDINATES (A.U.)
----------------------------
  NO LB      ZA    FRAG     MASS         X           Y           Z
   0 C     6.0000    0    12.011   -9.021753    0.541971   -3.170588
   1 O     8.0000    0    15.999   -9.051457    2.680459   -2.407646
   2 O     8.0000    0    15.999   -6.869209   -0.661584   -3.756572
   3 C     6.0000    0    12.011  -11.361545   -1.087245   -3.615341
   4 H     1.0000    0     1.008   -5.431490    0.442798   -3.487150
   5 C     6.0000    0    12.011  -12.769385   -0.003659   -5.902132
   6 H     1.0000    0     1.008  -14.495349   -1.072874   -6.197597
   7 N     7.0000    0    14.007  -10.871354   -3.750039   -4.002290
   8 H     1.0000    0     1.008  -13.228327    1.970145   -5.576289
   9 H     1.0000    0     1.008  -11.603682   -0.153124   -7.589372
  10 H     1.0000    0     1.008  -12.563143   -0.887682   -1.938030
  11 H     1.0000    0     1.008   -9.767764   -4.001295   -5.549873
  12 H     1.0000    0     1.008   -9.943705   -4.497482   -2.501928

--------------------------------
INTERNAL COORDINATES (ANGSTROEM)
--------------------------------
 C      0   0   0     0.000000000000     0.00000000     0.00000000
 O      1   0   0     1.201604375585     0.00000000     0.00000000
 O      1   2   0     1.341374740331   122.40776840     0.00000000
 C      1   2   3     1.527001870354   124.95297509   180.83598259
 H      3   1   2     0.969894414252   110.24552991   359.43477244
 C      4   1   2     1.532384683089   107.73723676    69.92439090
 H      6   4   1     1.085713011201   109.12923124   182.91249506
 N      4   1   2     1.447325014293   115.22442030   192.94551066
 H      6   4   1     1.086129213180   110.07131932   303.26203341
 H      6   4   1     1.088097415801   110.19244117    63.60994580
 H      4   1   2     1.096946973714   106.91483265   313.20062247
 H      8   4   1     1.014593169825   110.17825276   299.28299166
 H      8   4   1     1.013797773462   110.84394607    58.26542045

---------------------------
INTERNAL COORDINATES (A.U.)
---------------------------
 C      0   0   0     0.000000000000     0.00000000     0.00000000
 O      1   0   0     2.270703191176     0.00000000     0.00000000
 O      1   2   0     2.534830902185   122.40776840     0.00000000
 C      1   2   3     2.885615340954   124.95297509   180.83598259
 H      3   1   2     1.832834821757   110.24552991   359.43477244
 C      4   1   2     2.895787382854   107.73723676    69.92439090
 H      6   4   1     2.051700251205   109.12923124   182.91249506
 N      4   1   2     2.735047903787   115.22442030   192.94551066
 H      6   4   1     2.052486758961   110.07131932   303.26203341
 H      6   4   1     2.056206122892   110.19244117    63.60994580
 H      4   1   2     2.072929363754   106.91483265   313.20062247
 H      8   4   1     1.917303228317   110.17825276   299.28299166
 H      8   4   1     1.915800147022   110.84394607    58.26542045

---------------------
BASIS SET INFORMATION
---------------------
There are 4 groups of distinct atoms

 Group   1 Type C   : 10s4p1d contracted to 3s2p1d pattern {631/31/1}
 Group   2 Type O   : 10s4p1d contracted to 3s2p1d pattern {631/31/1}
 Group   3 Type H   : 4s1p contracted to 2s1p pattern {31/1}
 Group   4 Type N   : 10s4p1d contracted to 3s2p1d pattern {631/31/1}

Atom   0C    basis set group =>   1
Atom   1O    basis set group =>   2
Atom   2O    basis set group =>   2
Atom   3C    basis set group =>   1
Atom   4H    basis set group =>   3
Atom   5C    basis set group =>   1
Atom   6H    basis set group =>   3
Atom   7N    basis set group =>   4
Atom   8H    basis set group =>   3
Atom   9H    basis set group =>   3
Atom  10H    basis set group =>   3
Atom  11H    basis set group =>   3
Atom  12H    basis set group =>   3
---------------------------------
AUXILIARY/J BASIS SET INFORMATION
---------------------------------
There are 4 groups of distinct atoms

 Group   1 Type C   : 12s5p4d2f1g contracted to 6s4p3d1f1g pattern {711111/2111/211/2/1}
 Group   2 Type O   : 12s5p4d2f1g contracted to 6s4p3d1f1g pattern {711111/2111/211/2/1}
 Group   3 Type H   : 5s2p1d contracted to 3s1p1d pattern {311/2/1}
 Group   4 Type N   : 12s5p4d2f1g contracted to 6s4p3d1f1g pattern {711111/2111/211/2/1}

Atom   0C    basis set group =>   1
Atom   1O    basis set group =>   2
Atom   2O    basis set group =>   2
Atom   3C    basis set group =>   1
Atom   4H    basis set group =>   3
Atom   5C    basis set group =>   1
Atom   6H    basis set group =>   3
Atom   7N    basis set group =>   4
Atom   8H    basis set group =>   3
Atom   9H    basis set group =>   3
Atom  10H    basis set group =>   3
Atom  11H    basis set group =>   3
Atom  12H    basis set group =>   3
------------------------------------------------------------------------------
                             ORCA STARTUP CALCULATIONS
                           -- RI-GTO INTEGRALS CHOSEN --
------------------------------------------------------------------------------
------------------------------------------------------------------------------
                   ___                                                        
                  /   \      - P O W E R E D   B Y -                         
                 /     \                                                     
                 |  |  |   _    _      __       _____    __    __             
                 |  |  |  | |  | |    /  \     |  _  \  |  |  /  |          
                  \  \/   | |  | |   /    \    | | | |  |  | /  /          
                 / \  \   | |__| |  /  /\  \   | |_| |  |  |/  /          
                |  |  |   |  __  | /  /__\  \  |    /   |      \           
                |  |  |   | |  | | |   __   |  |    \   |  |\   \          
                \     /   | |  | | |  |  |  |  | |\  \  |  | \   \       
                 \___/    |_|  |_| |__|  |__|  |_| \__\ |__|  \__/        
                                                                              
                      - O R C A' S   B I G   F R I E N D -                    
                                      &                                       
                       - I N T E G R A L  F E E D E R -                       
                                                                              
 v1 FN, 2020, v2 2021, v3 2022-2024                                           
------------------------------------------------------------------------------


----------------------
SHARK INTEGRAL PACKAGE
----------------------

Number of atoms                             ...     13
Number of basis functions                   ...    119
Number of shells                            ...     57
Maximum angular momentum                    ...      2
Integral batch strategy                     ... SHARK/LIBINT Hybrid
RI-J (if used) integral strategy            ... SPLIT-RIJ (Revised 2003 algorithm where possible)
Printlevel                                  ...      1
Contraction scheme used                     ... SEGMENTED contraction
Prescreening option                         ... SCHWARTZ
   Thresh                                   ... 1.000e-10
   Tcut                                     ... 1.000e-11
   Tpresel                                  ... 1.000e-11 
Coulomb Range Separation                    ... NOT USED
Exchange Range Separation                   ... NOT USED
Multipole approximations                    ... NOT USED
Finite Nucleus Model                        ... NOT USED
CABS basis                                  ... NOT available
Auxiliary Coulomb fitting basis             ... AVAILABLE
   # of basis functions in Aux-J            ...    371
   # of shells in Aux-J                     ...    125
   Maximum angular momentum in Aux-J        ...      4
Auxiliary J/K fitting basis                 ... NOT available
Auxiliary Correlation fitting basis         ... NOT available
Auxiliary 'external' fitting basis          ... NOT available

Checking pre-screening integrals            ... done (  0.0 sec) Dimension = 57
   => SHARK Basis and OBASIS are compatible. Storing Pre-screening
Shell pair information
Shell pair cut-off parameter TPreSel        ...   1.0e-11
Total number of shell pairs                 ...      1653
Shell pairs after pre-screening             ...      1593
Total number of primitive shell pairs       ...      8022
Primitive shell pairs kept                  ...      5513
          la=0 lb=0:    504 shell pairs
          la=1 lb=0:    583 shell pairs
          la=1 lb=1:    182 shell pairs
          la=2 lb=0:    189 shell pairs
          la=2 lb=1:    114 shell pairs
          la=2 lb=2:     21 shell pairs

Checking whether 4 symmetric matrices of dimension 119 fit in memory
:Max Core in MB      =   4096.00
 MB in use           =      5.52
 MB left             =   4090.48
 MB needed           =      0.22
 Data fit in memory  = YES
Calculating RI/J V-Matrix + Cholesky decomp.... done (  0.0 sec)
Calculating Nuclear repulsion               ... done (  0.0 sec) ENN=    250.507373616647 Eh

Diagonalization of the overlap matrix:
Smallest eigenvalue                        ... 3.518e-03
Time for diagonalization                   ...    0.001 sec
Threshold for overlap eigenvalues          ... 1.000e-07
Number of eigenvalues below threshold      ... 0
Time for construction of square roots      ...    0.000 sec
Total time needed                          ...    0.001 sec

-------------------
DFT GRID GENERATION
-------------------

General Integration Accuracy     IntAcc      ... 4.388
Radial Grid Type                 RadialGrid  ... OptM3 with GC (2021)
Angular Grid (max. ang.)         AngularGrid ... 4 (Lebedev-302)
Angular grid pruning method      GridPruning ... 4 (adaptive)
Weight generation scheme         WeightScheme... mBecke (2022)
Basis function cutoff            BFCut       ... 1.0000e-10
Integration weight cutoff        WCut        ... 1.0000e-14
Partially contracted basis set               ... off
Rotationally invariant grid construction     ... off
Angular grids for H and He will be reduced by one unit

Total number of grid points                  ...    58952
Total number of batches                      ...      927
Average number of points per batch           ...       63
Average number of grid points per atom       ...     4535
Grids setup in   0.2 sec
Initializing property integral containers    ... done (  0.0 sec)

SHARK setup successfully completed in   0.2 seconds

Maximum memory used throughout the entire STARTUP-calculation: 24.8 MB
-------------------------------------------------------------------------------
                                 ORCA GUESS
                   Start orbitals & Density for SCF / CASSCF
-------------------------------------------------------------------------------

------------
SCF SETTINGS
------------
Hamiltonian:
 Density Functional     Method          .... DFT(GTOs)
 Exchange Functional    Exchange        .... B97(D)
 Correlation Functional Correlation     .... B97(D)
 Gradients option       PostSCFGGA      .... off
 RI-approximation to the Coulomb term is turned on
   Number of AuxJ basis functions       .... 371


General Settings:
 Integral files         IntName         .... 1
 Hartree-Fock type      HFTyp           .... RHF
 Total Charge           Charge          ....    0
 Multiplicity           Mult            ....    1
 Number of Electrons    NEL             ....   48
 Basis Dimension        Dim             ....  119
 Nuclear Repulsion      ENuc            ....    250.5073736166 Eh

Convergence Acceleration:
 AO-DIIS                CNVDIIS         .... on
   Start iteration      DIISMaxIt       ....    12
   Startup error        DIISStart       ....  0.200000
   # of expansion vecs  DIISMaxEq       ....     5
   Bias factor          DIISBfac        ....   1.050
   Max. coefficient     DIISMaxC        ....  10.000
 MO-DIIS                CNVKDIIS        .... off
 Trust-Rad. Augm. Hess. CNVTRAH         .... auto
   Auto Start mean grad. ratio tolernc. ....  1.125000
   Auto Start start iteration           ....    50
   Auto Start num. interpolation iter.  ....    10
   Max. Number of Micro iterations      ....    24
   Max. Number of Macro iterations      .... Maxiter - #DIIS iter
   Number of Davidson start vectors     ....     2
   Converg. threshold    (grad. norm)   ....   5.000e-05
   Grad. Scal. Fac. for Micro threshold ....   0.100
   Minimum threshold for Micro iter.    ....   1.000e-02
   NR start threshold (gradient norm)   ....   1.000e-04
   Initial trust radius                 ....   0.400
   Minimum AH scaling param. (alpha)    ....   1.000
   Maximum AH scaling param. (alpha)    .... 1000.000
   Quad. conv. algorithm                .... NR
   White noise on init. David. guess    .... on
   Maximum white noise                  ....   0.010
   Pseudo random numbers                .... off
   Inactive MOs                         .... canonical
   Orbital update algorithm             .... Taylor
   Preconditioner                       .... Diag
   Full preconditioner red. dimension   ....   250
 SOSCF                 CNVSOSCF           .... on
   Start iteration     SOSCFMaxIt         ....   150
   Startup grad/error  SOSCFStart         ....  0.003300
   Hessian update      SOSCFHessUp        .... L-BFGS
   Autom. constraints  SOSCFAutoConstrain .... off
 Level Shifting         CNVShift        .... on
   Level shift para.    LevelShift      ....    0.2500
   Turn off err/grad.   ShiftErr        ....    0.0010
 Zerner damping         CNVZerner       .... off
 Static damping         CNVDamp         .... on
   Fraction old density DampFac         ....    0.7000
   Max. Damping (<1)    DampMax         ....    0.9800
   Min. Damping (>=0)   DampMin         ....    0.0000
   Turn off err/grad.   DampErr         ....    0.1000

SCF Procedure:
 Maximum # iterations   MaxIter         ....   125
 SCF integral mode      SCFMode         .... Direct
   Integral package                     .... SHARK and LIBINT hybrid scheme
 Reset frequency        DirectResetFreq ....    20
 Integral Threshold     Thresh          ....  1.000e-10 Eh
 Primitive CutOff       TCut            ....  1.000e-11 Eh

Convergence Tolerance:
 Convergence Check Mode ConvCheckMode   .... Total+1el-Energy
 Convergence forced     ConvForced      .... 0
 Energy Change          TolE            ....  1.000e-06 Eh
 1-El. energy change                    ....  1.000e-03 Eh
 Orbital Gradient       TolG            ....  5.000e-05
 Orbital Rotation angle TolX            ....  5.000e-05
 DIIS Error             TolErr          ....  1.000e-06

------------------------------
INITIAL GUESS: MODEL POTENTIAL
------------------------------
Loading Hartree-Fock densities                     ... done
Calculating cut-offs                               ... done
Initializing the effective Hamiltonian             ... done
Setting up the integral package (SHARK)            ... done
Starting the Coulomb interaction                   ... done (   0.0 sec)
Making the grid                                    ... done (   0.0 sec)
Mapping shells                                     ... done
Starting the XC term evaluation                    ... done (   0.0 sec)
  promolecular density results
     # of electrons  =     47.995056535
     EX              =    -39.858373259
     EC              =     -2.124122475
     EX+EC           =    -41.982495734
Transforming the Hamiltonian                       ... done (   0.0 sec)
Diagonalizing the Hamiltonian                      ... done (   0.0 sec)
Back transforming the eigenvectors                 ... done (   0.0 sec)
Now organizing SCF variables                       ... done
                      ------------------
                      INITIAL GUESS DONE (   0.1 sec)
                      ------------------
             **** ENERGY FILE WAS UPDATED (1.en.tmp) ****
Finished Guess after   0.1 sec
Maximum memory used throughout the entire GUESS-calculation: 9.4 MB

-------------------------------------------------------------------------------------------
                                      ORCA LEAN-SCF
                              memory conserving SCF solver
-------------------------------------------------------------------------------------------

----------------------------------------D-I-I-S--------------------------------------------
Iteration    Energy (Eh)           Delta-E    RMSDP     MaxDP     DIISErr   Damp  Time(sec)
-------------------------------------------------------------------------------------------
               ***  Starting incremental Fock matrix formation  ***
    1    -323.2670623007174981     0.00e+00  4.92e-03  1.08e-01  2.60e-01  0.700   0.2
    2    -323.3996811822579502    -1.33e-01  3.02e-03  5.74e-02  1.00e-01  0.700   0.2
                               ***Turning on AO-DIIS***
    3    -323.4388970345748930    -3.92e-02  1.11e-03  1.47e-02  2.75e-02  0.700   0.2
    4    -323.4651043898338685    -2.62e-02  1.44e-03  1.90e-02  1.41e-02  0.000   0.2
    5    -323.5264259131942026    -6.13e-02  5.09e-04  7.94e-03  1.02e-02  0.000   0.2
                              *** Initializing SOSCF ***
---------------------------------------S-O-S-C-F--------------------------------------
Iteration    Energy (Eh)           Delta-E    RMSDP     MaxDP     MaxGrad    Time(sec)
--------------------------------------------------------------------------------------
    6    -323.5270417988697318    -6.16e-04  1.83e-04  2.43e-03  2.99e-03     0.2
               *** Restarting incremental Fock matrix formation ***
    7    -323.5270870186320735    -4.52e-05  1.55e-04  3.44e-03  8.00e-04     0.2
    8    -323.5270672773963270     1.97e-05  9.06e-05  2.57e-03  2.24e-03     0.2
    9    -323.5270933334127221    -2.61e-05  5.29e-05  7.73e-04  2.26e-04     0.2
   10    -323.5270918372414144     1.50e-06  3.04e-05  4.46e-04  2.85e-04     0.2
   11    -323.5270944254286860    -2.59e-06  9.34e-06  2.02e-04  3.63e-05     0.2
   12    -323.5270943706859725     5.47e-08  5.50e-06  1.30e-04  5.83e-05     0.2
                 **** Energy Check signals convergence ****

               *****************************************************
               *                     SUCCESS                       *
               *           SCF CONVERGED AFTER  12 CYCLES          *
               *****************************************************

             **** ENERGY FILE WAS UPDATED (1.en.tmp) ****

----------------
TOTAL SCF ENERGY
----------------

Total Energy       :       -323.52709446341726 Eh           -8803.61981 eV

Components:
Nuclear Repulsion  :        250.50737361664747 Eh            6816.65219 eV
Electronic Energy  :       -574.03446808006470 Eh          -15620.27200 eV
One Electron Energy:       -937.42910634185148 Eh          -25508.74282 eV
Two Electron Energy:        363.39463826178684 Eh            9888.47083 eV

Virial components:
Potential Energy   :       -645.40481000498266 Eh          -17562.35773 eV
Kinetic Energy     :        321.87771554156546 Eh            8758.73793 eV
Virial Ratio       :          2.00512424079771

DFT components:
N(Alpha)           :       24.000011584828 electrons
N(Beta)            :       24.000011584828 electrons
N(Total)           :       48.000023169655 electrons
E(X)               :      -40.771906207355 Eh       
E(C)               :       -2.115685962190 Eh       
E(XC)              :      -42.887592169546 Eh       

---------------
SCF CONVERGENCE
---------------

  Last Energy change         ...   -5.4743e-08  Tolerance :   1.0000e-06
  Last MAX-Density change    ...    1.2963e-04  Tolerance :   1.0000e-05
  Last RMS-Density change    ...    5.4982e-06  Tolerance :   1.0000e-06
  Last DIIS Error            ...    2.9926e-03  Tolerance :   1.0000e-06
  Last Orbital Gradient      ...    5.8348e-05  Tolerance :   5.0000e-05
  Last Orbital Rotation      ...    5.2062e-05  Tolerance :   5.0000e-05


----------------
ORBITAL ENERGIES
----------------

  NO   OCC          E(Eh)            E(eV) 
   0   2.0000     -18.814731      -511.9748 
   1   2.0000     -18.749444      -510.1983 
   2   2.0000     -13.986493      -380.5918 
   3   2.0000     -10.025574      -272.8097 
   4   2.0000      -9.949163      -270.7305 
   5   2.0000      -9.902962      -269.4733 
   6   2.0000      -1.019780       -27.7496 
   7   2.0000      -0.929028       -25.2801 
   8   2.0000      -0.816567       -22.2199 
   9   2.0000      -0.678255       -18.4563 
  10   2.0000      -0.604180       -16.4406 
  11   2.0000      -0.540593       -14.7103 
  12   2.0000      -0.451026       -12.2731 
  13   2.0000      -0.446964       -12.1625 
  14   2.0000      -0.415106       -11.2956 
  15   2.0000      -0.391674       -10.6580 
  16   2.0000      -0.383253       -10.4288 
  17   2.0000      -0.353137        -9.6093 
  18   2.0000      -0.329943        -8.9782 
  19   2.0000      -0.319786        -8.7018 
  20   2.0000      -0.314166        -8.5489 
  21   2.0000      -0.270162        -7.3515 
  22   2.0000      -0.240267        -6.5380 
  23   2.0000      -0.183828        -5.0022 
  24   0.0000      -0.015536        -0.4228 
  25   0.0000       0.045096         1.2271 
  26   0.0000       0.081021         2.2047 
  27   0.0000       0.108572         2.9544 
  28   0.0000       0.118210         3.2167 
  29   0.0000       0.146092         3.9754 
  30   0.0000       0.158759         4.3201 
  31   0.0000       0.161716         4.4005 
  32   0.0000       0.192468         5.2373 
  33   0.0000       0.196714         5.3529 
  34   0.0000       0.226669         6.1680 
*Only the first 10 virtual orbitals were printed.

                    ********************************
                    * MULLIKEN POPULATION ANALYSIS *
                    ********************************

-----------------------
MULLIKEN ATOMIC CHARGES
-----------------------
   0 C :    0.498239
   1 O :   -0.416555
   2 O :   -0.462174
   3 C :   -0.056410
   4 H :    0.318324
   5 C :   -0.325915
   6 H :    0.131950
   7 N :   -0.554659
   8 H :    0.134880
   9 H :    0.109509
  10 H :    0.138952
  11 H :    0.242029
  12 H :    0.241829
Sum of atomic charges:    0.0000000

--------------------------------
MULLIKEN REDUCED ORBITAL CHARGES
--------------------------------
  0 C s       :     2.993163  s :     2.993163
      pz      :     0.785200  p :     2.384338
      px      :     0.802828
      py      :     0.796310
      dz2     :     0.011628  d :     0.124260
      dxz     :     0.016257
      dyz     :     0.019675
      dx2y2   :     0.028250
      dxy     :     0.048449

  1 O s       :     3.854630  s :     3.854630
      pz      :     1.410160  p :     4.533849
      px      :     1.766982
      py      :     1.356707
      dz2     :     0.004242  d :     0.028076
      dxz     :     0.000935
      dyz     :     0.009297
      dx2y2   :     0.007063
      dxy     :     0.006539

  2 O s       :     3.820221  s :     3.820221
      pz      :     1.755042  p :     4.619124
      px      :     1.229534
      py      :     1.634548
      dz2     :     0.003393  d :     0.022829
      dxz     :     0.002768
      dyz     :     0.003376
      dx2y2   :     0.003416
      dxy     :     0.009876

  3 C s       :     3.205428  s :     3.205428
      pz      :     1.034369  p :     2.793259
      px      :     0.955078
      py      :     0.803812
      dz2     :     0.010366  d :     0.057723
      dxz     :     0.009193
      dyz     :     0.008782
      dx2y2   :     0.012245
      dxy     :     0.017137

  4 H s       :     0.643793  s :     0.643793
      pz      :     0.009338  p :     0.037883
      px      :     0.015665
      py      :     0.012881

  5 C s       :     3.256310  s :     3.256310
      pz      :     0.961731  p :     3.040475
      px      :     1.029516
      py      :     1.049228
      dz2     :     0.007215  d :     0.029131
      dxz     :     0.007965
      dyz     :     0.002726
      dx2y2   :     0.005970
      dxy     :     0.005255

  6 H s       :     0.856482  s :     0.856482
      pz      :     0.002538  p :     0.011568
      px      :     0.005300
      py      :     0.003730

  7 N s       :     3.580684  s :     3.580684
      pz      :     1.152112  p :     3.945697
      px      :     1.578044
      py      :     1.215541
      dz2     :     0.002529  d :     0.028278
      dxz     :     0.011035
      dyz     :     0.004106
      dx2y2   :     0.006963
      dxy     :     0.003645

  8 H s       :     0.853537  s :     0.853537
      pz      :     0.002562  p :     0.011583
      px      :     0.002708
      py      :     0.006313

  9 H s       :     0.878856  s :     0.878856
      pz      :     0.005283  p :     0.011635
      px      :     0.003648
      py      :     0.002705

 10 H s       :     0.850188  s :     0.850188
      pz      :     0.005170  p :     0.010860
      px      :     0.003897
      py      :     0.001793

 11 H s       :     0.733991  s :     0.733991
      pz      :     0.009620  p :     0.023979
      px      :     0.009041
      py      :     0.005319

 12 H s       :     0.734229  s :     0.734229
      pz      :     0.008894  p :     0.023942
      px      :     0.008350
      py      :     0.006697



                     *******************************
                     * LOEWDIN POPULATION ANALYSIS *
                     *******************************

----------------------
LOEWDIN ATOMIC CHARGES
----------------------
   0 C :    0.101848
   1 O :   -0.220829
   2 O :   -0.147109
   3 C :   -0.049795
   4 H :    0.181231
   5 C :   -0.187019
   6 H :    0.081115
   7 N :   -0.250662
   8 H :    0.082887
   9 H :    0.070359
  10 H :    0.088695
  11 H :    0.124414
  12 H :    0.124866

-------------------------------
LOEWDIN REDUCED ORBITAL CHARGES
-------------------------------
  0 C s       :     2.862330  s :     2.862330
      pz      :     0.808780  p :     2.739372
      px      :     0.934855
      py      :     0.995737
      dz2     :     0.026290  d :     0.296450
      dxz     :     0.035573
      dyz     :     0.045404
      dx2y2   :     0.067842
      dxy     :     0.121341

  1 O s       :     3.553381  s :     3.553381
      pz      :     1.410303  p :     4.609065
      px      :     1.743090
      py      :     1.455672
      dz2     :     0.007556  d :     0.058383
      dxz     :     0.001806
      dyz     :     0.017326
      dx2y2   :     0.018532
      dxy     :     0.013163

  2 O s       :     3.472412  s :     3.472412
      pz      :     1.722731  p :     4.623798
      px      :     1.264443
      py      :     1.636625
      dz2     :     0.007233  d :     0.050898
      dxz     :     0.006829
      dyz     :     0.004114
      dx2y2   :     0.010175
      dxy     :     0.022547

  3 C s       :     2.881400  s :     2.881400
      pz      :     1.065063  p :     3.037014
      px      :     1.030332
      py      :     0.941620
      dz2     :     0.023346  d :     0.131380
      dxz     :     0.020651
      dyz     :     0.018031
      dx2y2   :     0.027733
      dxy     :     0.041620

  4 H s       :     0.702661  s :     0.702661
      pz      :     0.026874  p :     0.116108
      px      :     0.048351
      py      :     0.040883

  5 C s       :     2.920888  s :     2.920888
      pz      :     1.039237  p :     3.203875
      px      :     1.074910
      py      :     1.089727
      dz2     :     0.015367  d :     0.062257
      dxz     :     0.017859
      dyz     :     0.006320
      dx2y2   :     0.011746
      dxy     :     0.010965

  6 H s       :     0.878432  s :     0.878432
      pz      :     0.007338  p :     0.040454
      px      :     0.020665
      py      :     0.012451

  7 N s       :     3.190928  s :     3.190928
      pz      :     1.174405  p :     4.001542
      px      :     1.567322
      py      :     1.259815
      dz2     :     0.007886  d :     0.058193
      dxz     :     0.017990
      dyz     :     0.011407
      dx2y2   :     0.014194
      dxy     :     0.006716

  8 H s       :     0.876477  s :     0.876477
      pz      :     0.007412  p :     0.040636
      px      :     0.008107
      py      :     0.025117

  9 H s       :     0.889908  s :     0.889908
      pz      :     0.019696  p :     0.039734
      px      :     0.012627
      py      :     0.007411

 10 H s       :     0.872892  s :     0.872892
      pz      :     0.019102  p :     0.038413
      px      :     0.014050
      py      :     0.005260

 11 H s       :     0.796319  s :     0.796319
      pz      :     0.033708  p :     0.079268
      px      :     0.030333
      py      :     0.015226

 12 H s       :     0.796106  s :     0.796106
      pz      :     0.031174  p :     0.079028
      px      :     0.027431
      py      :     0.020423



                      *****************************
                      * MAYER POPULATION ANALYSIS *
                      *****************************

  NA   - Mulliken gross atomic population
  ZA   - Total nuclear charge
  QA   - Mulliken gross atomic charge
  VA   - Mayer's total valence
  BVA  - Mayer's bonded valence
  FA   - Mayer's free valence

  ATOM       NA         ZA         QA         VA         BVA        FA
  0 C      5.5018     6.0000     0.4982     3.9455     3.9455    -0.0000
  1 O      8.4166     8.0000    -0.4166     2.0954     2.0954     0.0000
  2 O      8.4622     8.0000    -0.4622     2.0538     2.0538     0.0000
  3 C      6.0564     6.0000    -0.0564     3.8928     3.8928    -0.0000
  4 H      0.6817     1.0000     0.3183     0.9184     0.9184     0.0000
  5 C      6.3259     6.0000    -0.3259     3.8725     3.8725     0.0000
  6 H      0.8681     1.0000     0.1319     0.9556     0.9556     0.0000
  7 N      7.5547     7.0000    -0.5547     2.8874     2.8874    -0.0000
  8 H      0.8651     1.0000     0.1349     0.9563     0.9563     0.0000
  9 H      0.8905     1.0000     0.1095     0.9570     0.9570    -0.0000
 10 H      0.8610     1.0000     0.1390     0.9458     0.9458     0.0000
 11 H      0.7580     1.0000     0.2420     0.9277     0.9277     0.0000
 12 H      0.7582     1.0000     0.2418     0.9224     0.9224     0.0000

  Mayer bond orders larger than 0.100000
B(  0-C ,  1-O ) :   1.9060 B(  0-C ,  2-O ) :   1.0960 B(  0-C ,  3-C ) :   0.9027 
B(  2-O ,  4-H ) :   0.8521 B(  3-C ,  5-C ) :   0.9962 B(  3-C ,  7-N ) :   1.0370 
B(  3-C , 10-H ) :   0.9325 B(  5-C ,  6-H ) :   0.9537 B(  5-C ,  8-H ) :   0.9520 
B(  5-C ,  9-H ) :   0.9587 B(  7-N , 11-H ) :   0.9043 B(  7-N , 12-H ) :   0.9100 


-------
TIMINGS
-------

Total SCF time: 0 days 0 hours 0 min 2 sec 

Total time                  ....       2.718 sec
Sum of individual times     ....       2.542 sec  ( 93.5%)

SCF preparation             ....       0.022 sec  (  0.8%)
Fock matrix formation       ....       2.458 sec  ( 90.4%)
  Startup                   ....       0.000 sec  (  0.0% of F)
  Split-RI-J                ....       0.655 sec  ( 26.7% of F)
  XC integration            ....       1.979 sec  ( 80.5% of F)
    XC Preparation          ....       0.000 sec  (  0.0% of XC)
    Basis function eval.    ....       0.684 sec  ( 34.6% of XC)
    Density eval.           ....       0.377 sec  ( 19.0% of XC)
    XC-Functional eval.     ....       0.449 sec  ( 22.7% of XC)
    XC-Potential eval.      ....       0.408 sec  ( 20.6% of XC)
Diagonalization             ....       0.000 sec  (  0.0%)
Density matrix formation    ....       0.002 sec  (  0.1%)
Total Energy calculation    ....       0.000 sec  (  0.0%)
Population analysis         ....       0.002 sec  (  0.1%)
Orbital Transformation      ....       0.016 sec  (  0.6%)
Orbital Orthonormalization  ....       0.000 sec  (  0.0%)
DIIS solution               ....       0.036 sec  (  1.3%)
SOSCF solution              ....       0.006 sec  (  0.2%)
Finished LeanSCF after   2.7 sec

Maximum memory used throughout the entire LEANSCF-calculation: 12.8 MB



-------------------------------------------------------------------------------
                          DFT DISPERSION CORRECTION                            
-------------------------------------------------------------------------------
Active option DFTDOPT                   ...         2   
Final C6-coefficient scaling factor     ...     1.250
Final VDW-radii scaling factor          ...     1.100
Damping factor alpha                    ...    20.000
-------------------------   ----------------
Dispersion correction           -0.013333985
-------------------------   ----------------


-------------------------   --------------------
FINAL SINGLE POINT ENERGY      -323.540428448731
-------------------------   --------------------


------------------------------------------------------------------------------
                              ORCA PROPERTY CALCULATIONS
------------------------------------------------------------------------------

GBWName                                 ... 1.gbw
Number of atoms                         ...     13
Number of basis functions               ...    119
Max core memory                         ...   4096 MB

Electric properties:
Dipole moment                           ... YES
Quadrupole moment                       ...  NO
Static polarizability (Dipole/Dipole)   ...  NO
Static polarizability (Dipole/Quad.)    ...  NO
Static polarizability (Quad./Quad.)     ...  NO
Static polarizability (Velocity)        ...  NO
Static hyperpolarizability              ...  NO

Atomic electric properties:
Dipole moment                           ...  NO
Quadrupole moment                       ...  NO
Static polarizability                   ...  NO

Choice of electric origin               ... Center of mass
Position of electric origin             ...    -9.909044    -0.393799    -3.818222

General magnetic properties:
Magnetizability                         ...  NO

EPR properties:
g-Tensor (aka g-matrix)                 ...  NO
Zero-Field splitting spin-orbit         ...  NO
Zero-field splitting spin-spin          ...  NO
Hyperfine couplings                     ...  NO (   0 nuclei)
Quadrupole couplings                    ...  NO (   0 nuclei)
Contact density                         ...  NO (   0 nuclei)

NMR properties:
Chemical shifts                         ...  NO (   0 nuclei)
Spin-rotation constants                 ...  NO (   0 nuclei)
Spin-spin couplings                     ...  NO (   0 nuclei,    0 pairs)

Choice of magnetic origin               ... GIAO
Position of magnetic origin             ...     0.000000     0.000000     0.000000

Properties with geometric perturbations:
SCF Hessian                             ...  NO
IR spectrum                             ...  NO
VCD spectrum                            ...  NO
X-ray spectroscopy properties:
SCF XES/XAS/RIXS spectra                ...  NO

SCF SOC stabilization energy            ...  NO
Diagonal Born-Oppenheimer correction    ...  NO

-------------
DIPOLE MOMENT
-------------

Method             : SCF
Type of density    : Electron Density
Multiplicity       :   1
Irrep              :   0
Energy             :  -323.5270944634172565 Eh
Basis              : AO
                                X                 Y                 Z
Electronic contribution:      4.351344274       2.295196970       2.811986906
Nuclear contribution   :     -3.780236946      -2.690016505      -3.023728155
                        -----------------------------------------
Total Dipole Moment    :      0.571107327      -0.394819535      -0.211741249
                        -----------------------------------------
Magnitude (a.u.)       :      0.725865278
Magnitude (Debye)      :      1.845002911



--------------------
Rotational spectrum 
--------------------
 
Rotational constants in cm-1:             0.168519             0.106160             0.076561 
Rotational constants in MHz :          5052.060930          3182.610431          2295.238558 

Dipole components along the rotational axes: 
x,y,z [a.u.] :     0.086686     0.635657    -0.339567 
x,y,z [Debye]:     0.220339     1.615712    -0.863112 

 

Dipole moment calculation done in   0.0 sec 

Maximum memory used throughout the entire PROP-calculation: 7.1 MB

--------------------------------
SUGGESTED CITATIONS FOR THIS RUN
--------------------------------

Below you find a list of papers that are relevant to this ORCA run
We neither can nor want to force you to cite these papers, but we appreciate if you do
You receive ORCA, which is the product of decades of hard work by many enthusiastic individuals, for free
The only thing we kindly ask in return is that you cite our papers,
We deeply appreciate it, if you show your appreciation for ORCA by not just citing the generic ORCA reference.

Please note that relegating all ORCA citations to the supporting information does *not* help us.
SI sections are not indexed - citations you put there will not count into any citation statistics
But we need these citations in order to attract the funding resources that allow us to do what we are doing

Therefore, if you are a happy ORCA user, please consider citing a few of the papers listed below in the main body of your paper

In addition to the list printed below, the program has created the file 1.bibtex that contains the list in bibtex format
You can import this file easily into all common literature databanks and citation aid programs


List of essential papers. We consider these as the minimum necessary citations

  1. Neese, F.
     Software update: the ORCA program system, version 6.0
     WIRES Comput. Molec. Sci. 2025 15(1), e70019
     doi.org/10.1002/wcms.7019

List of papers to cite with high priority. The work reported in these papers was absolutely
necessary for this run to complete.
Our perspective: the developers of density functionals and basis sets usually get cited in chemistry papers
Good! But without the algorithms to do something with them, the functionals or basis sets would not do anything.
Hence, in our opinion, the algorithm design and method developments papers are equally worthy of getting cited

  1. Neese, F.
     An improvement of the resolution of the identity approximation for the formation of the Coulomb matrix
     J. Comp. Chem. 2003 24(14), 1740-1747
     doi.org/10.1002/jcc.10318
  2. Grimme, S.
     Semiempirical GGA-type density functional constructed with a long-range dispersion correction
     J.Comput.Chem. 2006 27(15), 1787-1799
     doi.org/10.1002/jcc.20495
  3. Neese, F.
     The SHARK Integral Generation and Digestion System
     J. Comp. Chem. 2022 44(3), 381
     doi.org/10.1002/jcc.26942

List of suggested additional citations. These are papers that are important in the 'surrounding' of 
of this run, or papers that preceded the highly important papers. If you like your results we are grateful for a citation.

  1. Neese, F.
     The ORCA program system
     WIRES Comput. Molec. Sci. 2012 2(1), 73-78
     doi.org/10.1002/wcms.81
  2. Neese, F.
     Software update: the ORCA program system, version 4.0
     WIRES Comput. Molec. Sci. 2018 8(1), 1-6
     doi.org/10.1002/wcms.1327
  3. Neese, F.; Wennmohs, F.; Becker, U.; Riplinger, C.
     The ORCA quantum chemistry program package
     J. Chem. Phys. 2020 152(22), 224108
     doi.org/10.1063/5.0004608
  4. Neese, F.
     Software update: The ORCA program system—Version 5.0
     WIRES Comput. Molec. Sci. 2022 12(1), e1606
     doi.org/10.1002/wcms.1606

List of optional additional citations

  1. Neese, F.
     Approximate second-order SCF convergence for spin unrestricted wavefunctions
     Chem. Phys. Lett. 2000 325(1-3), 93-98
     doi.org/10.1016/s0009-2614(00)00662-x

Timings for individual modules:

Sum of individual times          ...        3.154 sec (=   0.053 min)
Startup calculation              ...        0.247 sec (=   0.004 min)   7.8 %
SCF iterations                   ...        2.877 sec (=   0.048 min)  91.2 %
Property calculations            ...        0.029 sec (=   0.000 min)   0.9 %
                             ****ORCA TERMINATED NORMALLY****
TOTAL RUN TIME: 0 days 0 hours 0 minutes 3 seconds 192 msec
