
                                 *****************
                                 * O   R   C   A *
                                 *****************

                                            #,                                       
                                            ###                                      
                                            ####                                     
                                            #####                                    
                                            ######                                   
                                           ########,                                 
                                     ,,################,,,,,                         
                               ,,#################################,,                 
                          ,,##########################################,,             
                       ,#########################################, ''#####,          
                    ,#############################################,,   '####,        
                  ,##################################################,,,,####,       
                ,###########''''           ''''###############################       
              ,#####''   ,,,,##########,,,,          '''####'''          '####       
            ,##' ,,,,###########################,,,                        '##       
           ' ,,###''''                  '''############,,,                           
         ,,##''                                '''############,,,,        ,,,,,,###''
      ,#''                                            '''#######################'''  
     '                                                          ''''####''''         
             ,#######,   #######,   ,#######,      ##                                
            ,#'     '#,  ##    ##  ,#'     '#,    #''#        ,####,    ,#,          
            ##       ##  ##   ,#'  ##            #'  '#       #'       ,# #          
            ##       ##  #######   ##           ,######,      #####,      #          
            '#,     ,#'  ##    ##  '#,     ,#' ,#      #,     #,   #      #          
             '#######'   ##     ##  '#######'  #'      '#     '####' #    #          



                #########################################################
                #                        -***-                          #
                #          Department of theory and spectroscopy        #
                #                                                       #
                #                      Frank Neese                      #
                #                                                       #
                #     Directorship, Architecture, Infrastructure        #
                #                    SHARK, DRIVERS                     #
                #        Core code/Algorithms in most modules           #
                #                                                       #
                #        Max Planck Institute fuer Kohlenforschung      #
                #                Kaiser Wilhelm Platz 1                 #
                #                 D-45470 Muelheim/Ruhr                 #
                #                      Germany                          #
                #                                                       #
                #                  All rights reserved                  #
                #                        -***-                          #
                #########################################################


                         Program Version 6.1.0  -  RELEASE   -
                                (GIT: $679e74b$)
                          ($2025-06-10 18:02:51 +0200$)


 With contributions from (in alphabetic order):
[Max-Planck-Institut fuer Kohlenforschung]                               
  Daniel Aravena         : Magnetic Suceptibility                        
  Michael Atanasov       : Ab Initio Ligand Field Theory (pilot matlab implementation)
  Alexander A. Auer      : GIAO ZORA, VPT2 properties, NMR spectrum      
  Ute Becker             : All parallelization in ORCA, NUMFREQ, NUMCALC 
  Giovanni Bistoni       : ED, misc. LED, open-shell LED, HFLD           
  Dmytro Bykov           : pre 5.0 version of the SCF Hessian            
  Marcos Casanova-Páez   : Triplet and SCS-CIS(D). UHF-(DLPNO)-IP/EA/STEOM-CCSD. UHF-CVS-IP/STEOM-CCSD   
  Vijay G. Chilkuri      : MRCI spin determinant printing, contributions to CSF-ICE 
  Pauline Colinet        : FMM embedding                                 
  Dipayan Datta          : RHF DLPNO-CCSD density                        
  Achintya Kumar Dutta   : EOM-CC, STEOM-CC                              
  Nicolas Foglia         : Exact transition moments, OPA infrastructure, MCD improvements    
  Dmitry Ganyushin       : Spin-Orbit,Spin-Spin,Magnetic field MRCI      
  Miquel Garcia-Rates    : C-PCM and meta-GGA Hessian, CCSD/C-PCM, Gaussian charge scheme 
  Tiago L. C. Gouveia    : GS-ROHF, GS-ROCIS                             
  Yang Guo               : DLPNO-NEVPT2, F12-NEVPT2, CIM, IAO-localization        
  Andreas Hansen         : Spin unrestricted coupled pair/coupled cluster methods 
  Ingolf Harden          : AUTO-CI MPn and infrastructure                
  Benjamin Helmich-Paris : MC-RPA, TRAH-(SCF,CASSCF), AVAS, COSX integrals, SCF dyn. polar., MC-PDFT, srDFT 
  Lee Huntington         : MR-EOM, pCC                                   
  Robert Izsak           : Overlap fitted RIJCOSX, COSX-SCS-MP3, EOM     
  Riya Kayal             : Wick's Theorem for AUTO-CI, AUTO-CI UHF-CCSDT 
  Emily Kempfer          : AUTO-CI RHF CISDT and CCSDT, approximate NEVPT4
  Christian Kollmar      : KDIIS, OOCD, Brueckner-CCSD(T), CCSD density, CASPT2, CASPT2-K, improved NEVPT2 
  Axel Koslowski         : Symmetry handling                             
  Simone Kossmann        : meta-GGA functionals, TD-DFT gradient, OOMP2, (MP2 Hessian; deprecated post 5.0) 
  Lucas Lang             : DCDCAS, Hyperfine gauge corrections, ICE-SOC+SSC
  Marvin Lechner         : AUTO-CI (C++ implementation), FIC-MRCC        
  Spencer Leger          : CASSCF response                               
  Dagmar Lenk            : GEPOL surface, SMD, ORCA-2-JSON               
  Dimitrios Liakos       : Extrapolation schemes; Compound Job, Property file
  Dimitrios Manganas     : Further ROCIS development; embedding schemes. LFT, Crystal Embedding 
  Dimitrios Pantazis     : SARC Basis sets                               
  Anastasios Papadopoulos: AUTO-CI, single reference methods and gradients 
  Taras Petrenko         : pre 6.0 DFT Hessian and TD-DFT gradient,  ECA, NRVS 
  Petra Pikulova         : Analytic Raman intensities                    
  Peter Pinski           : DLPNO-MP2, DLPNO-MP2 Gradient                 
  Shashank Vittal Rao    : ES-AILFT, MagRelax                            
  Christoph Reimann      : Effective Core Potentials                     
  Marius Retegan         : Local ZFS, SOC                                
  Christoph Riplinger    : Optimizer, TS searches, QM/MM, DLPNO-CCSD(T), (RO)-DLPNO pert. Triples 
  Michael Roemelt        : Original ROCIS implementation, recursive CI coupling coefficients
  Masaaki Saitow         : Open-shell DLPNO-CCSD energy and density      
  Barbara Sandhoefer     : DKH picture change effects                    
  Yorick L. A. Schmerwitz: GMF and freeze-and-release deltaSCF, NEB S-IDPP initial path                    
  Kantharuban Sivalingam : CASSCF convergence/infrastructure, NEVPT2, NEVPT3, NEVPT4(SD), FIC-MRCI and CEPA variants
  Bernardo de Souza      : ESD, SOC TD-DFT                               
  Georgi L. Stoychev     : AutoAux, RI-MP2 NMR, DLPNO-MP2 response, X2C  
  Van Anh Tran           : RI-MP2 g-tensors                              
  Willem Van den Heuvel  : Paramagnetic NMR                              
  Zikuan Wang            : NOTCH, Electric field optimization            
  Frank Wennmohs         : Technical directorship and infrastructure     
  Hang Xu                : AUTO-CI-Response properties                   
                                                                         
[FACCTs GmbH]                                                            
  Markus Bursch, Nicolas Foglia, Miquel Garcia-Rates, Ingolf Harden, Hagen Neugebauer, Anastasios Papadopoulos, 
  Christoph Riplinger, Bernardo de Souza, Georgi L. Stoychev                                                    
                                                                 
  APM, various basis sets, CI-OPT, improved COSX, DLPNO-Multilevel,           
  DOCKER, DRACO, updates on ESD, Fragmentator, GOAT, IRC, LR-CPCM, L-BFGS, MBIS, meta-GGA TD-DFT gradient, ML-optimized integration grids, 
  MM, NACMEs, nearIR, NEB, NEB-TS, NL-DFT gradient (VV10), 2- and 3-layer-ONIOM, interface openCOSMO-RS, QMMM,   
  Crystal-QMMM, RESP, rigid body optimization, SF, symmetry and pop. for TD-DFT, various functionals, SOLVATOR                                   
                                                                         
[Other institutions]                                                     
  V. Asgeirsson          : NEB                                           
  Christoph Bannwarth    : sTDA-DFT, sTD-DFT, PBEh-3c, B97-3c, D3        
  Giovanni Bistoni       : ETS/NOCV, ADLD/ADEX, COVALED                  
  Martin Brehm           : Molecular dynamics                            
  Ronald Cardenas        : ETS/NOCV                                      
  Martina Colucci        : COVALED                                       
  Sebastian Ehlert       : rSCAN, r2SCAN, r2SCAN-3c, D4, dhf basis sets  
  Marvin Friede          : D4 for Fr, Ra, Ac-Lr                          
  Lars Goerigk           : TD-DFT with DH, B97 family of functionals     
  Stefan Grimme          : VdW corrections, initial TS optimization, DFT functionals, gCP, sTDA/sTD-DF 
  Waldemar Hujo          : DFT-NL                                        
  H. Jonsson             : NEB                                           
  Holger Kruse           : gCP                                           
  Marcel Mueller         : wB97X-3c, vDZP basis set                      
  Hagen Neugebauer       : wr2SCAN, Native XTB                           
  Gianluca Regni         : ADLD/ADEX                                     
  Tobias Risthaus        : pre 6.0 range-separated hybrid DFT and stability analysis
  Lukas Wittmann         : regularized MP2, r2SCAN double-hybrids, wr2SCAN        
                                                                         
We gratefully acknowledge several colleagues who have allowed us to      
interface, adapt or use parts of their codes:                            
  Ed Valeev, F. Pavosevic, A. Kumar             : LibInt (2-el integral package), F12 methods 
  Garnet Chan, S. Sharma, J. Yang, R. Olivares  : DMRG                   
  Ulf Ekstrom                                   : XCFun DFT Library      
  Mihaly Kallay                                 : mrcc  (arbitrary order and MRCC methods)
  Frank Weinhold                                : gennbo (NPA and NBO analysis)           
  Simon Mueller                                 : openCOSMO-RS                            
  Christopher J. Cramer and Donald G. Truhlar   : smd solvation model                     
  S Lehtola, MJT Oliveira, MAL Marques          : LibXC Library                           
  Liviu Ungur et al                             : ANISO software                          


 Your calculation uses the libint2 library for the computation of 2-el integrals
 For citations please refer to: http://libint.valeyev.net

 Your ORCA version has been built with support for libXC version: 7.0.0
 For citations please refer to: https://libxc.gitlab.io

 This ORCA versions uses:
   CBLAS   interface :  Fast vector & matrix operations
   LAPACKE interface :  Fast linear algebra routines
   SCALAPACK package :  Parallel linear algebra routines
   Shared memory     :  Shared parallel matrices
   BLAS/LAPACK       :  OpenBLAS 0.3.29  USE64BITINT DYNAMIC_ARCH NO_AFFINITY Haswell SINGLE_THREADED
        Core in use  :  Haswell
   Copyright (c) 2011-2014, The OpenBLAS Project


  ***********************************
  * Starting time: Thu Aug 14 12:10:12 2025
  * Host name:     CHEMLAB02
  * Process ID:    1769312
  * Working dir.:  /home/vivek/mm-project/vivek/B97-D/d/2
  ***********************************



***************************************
The coordinates will be read from file: /home/vivek/mm-project/vivek/xtb-goat/d/D_CONF/2.xyz
***************************************


Your calculation utilizes empirical dispersion correction


Warning: RI is on but no J-basis has been assigned. Assigning Def2/J (nothing to worry about!)
================================================================================

----- Orbital basis set information -----
Your calculation utilizes the basis: 6-31G**
   H-He, Li-Ne : W. J. Hehre, R. Ditchfield and J.A. Pople, J. Chem. Phys. 56, 2257 (1972).
                 Note: He and Ne are unpublished basis sets taken from the Gaussian program.
                 Note: Li and B from J. D. Dill and J. A. Pople, J. Chem. Phys. 62, 2921 (1975).
   Na - Ar     : M. M. Francl, W. J. Pietro, W. J. Hehre, J. S. Binkley, M. S. Gordon, 
                 D. J. DeFrees and J. A. Pople, J. Chem. Phys. 77, 3654 (1982).
   K - Zn      : V. A. Rassolov, J. A. Pople, M. A. Ratner, and T. L. Windus, J. Chem. Phys. 109, 1223 (1998).

----- AuxJ basis set information -----
Your calculation utilizes the auxiliary basis: def2/J
   H-Rn: F. Weigend, Phys. Chem. Chem. Phys. 8, 1057 (2006).
   Fr-Lr: K. Eichkorn, F. Weigend, O. Treutler, R. Ahlrichs; Theor. Chem. Acc. 97, 119 (1997).

================================================================================
                                        WARNINGS
                       Please study these warnings very carefully!
================================================================================


INFO   : The exchange functional is Grimme's B97(-D)
         As described in S. Grimme, J. Comput. Chem. 27, 1787 (2006).
         Note that this functional defaults to a pure GGA. 

INFO   : The correlation functional is Grimme's B97(-D)
         As described in S. Grimme, J. Comput. Chem. 27, 1787 (2006).

================================================================================
                                       INPUT FILE
================================================================================
NAME = 2.inp
|  1> ! B97-D 6-31G** 
|  2> 
|  3> * xyzfile 0 1 /home/vivek/mm-project/vivek/xtb-goat/d/D_CONF/2.xyz
|  4> 
|  5>                          ****END OF INPUT****
================================================================================

                       ****************************
                       * Single Point Calculation *
                       ****************************

---------------------------------
CARTESIAN COORDINATES (ANGSTROEM)
---------------------------------
  C     -4.616533    1.529451    1.091050
  C     -4.081568    1.314763   -0.306345
  O     -2.463879    3.839298    1.176732
  H     -3.939305    5.102410   -0.146227
  O     -3.960302    0.805073    2.002548
  C     -2.763490    2.102632   -0.480758
  H     -3.865420    0.259255   -0.464798
  H     -4.823300    1.672741   -1.018352
  C     -2.966148    3.487415    0.142802
  O     -5.506746    2.281804    1.379923
  N     -1.664067    1.366239    0.098447
  O     -3.767395    4.256217   -0.590291
  H     -0.816588    1.923329    0.078149
  H     -4.290711    0.996300    2.895098
  H     -2.570619    2.234100   -1.551611
  H     -1.863739    1.153295    1.071092

----------------------------
CARTESIAN COORDINATES (A.U.)
----------------------------
  NO LB      ZA    FRAG     MASS         X           Y           Z
   0 C     6.0000    0    12.011   -8.723982    2.890243    2.061785
   1 C     6.0000    0    12.011   -7.713046    2.484543   -0.578907
   2 O     8.0000    0    15.999   -4.656057    7.255221    2.223701
   3 H     1.0000    0     1.008   -7.444207    9.642158   -0.276328
   4 O     8.0000    0    15.999   -7.483886    1.521367    3.784267
   5 C     6.0000    0    12.011   -5.222240    3.973399   -0.908500
   6 H     1.0000    0     1.008   -7.304585    0.489921   -0.878341
   7 H     1.0000    0     1.008   -9.114716    3.161023   -1.924406
   8 C     6.0000    0    12.011   -5.605207    6.590259    0.269856
   9 O     8.0000    0    15.999  -10.406243    4.311985    2.607677
  10 N     7.0000    0    14.007   -3.144630    2.581818    0.186038
  11 O     8.0000    0    15.999   -7.119345    8.043084   -1.115489
  12 H     1.0000    0     1.008   -1.543127    3.634565    0.147680
  13 H     1.0000    0     1.008   -8.108269    1.882735    5.470942
  14 H     1.0000    0     1.008   -4.857766    4.221838   -2.932120
  15 H     1.0000    0     1.008   -3.521956    2.179411    2.024070

--------------------------------
INTERNAL COORDINATES (ANGSTROEM)
--------------------------------
 C      0   0   0     0.000000000000     0.00000000     0.00000000
 C      1   0   0     1.511618083182     0.00000000     0.00000000
 O      1   2   0     3.158583570940    83.55471639     0.00000000
 H      3   1   2     2.350011094154    87.12858880    76.74725280
 O      1   2   3     1.336484480848   112.31683286   269.96273067
 C      2   1   3     1.545472883282   109.49675442    12.77152511
 H      2   1   3     1.089001969674   110.02368949   131.27771457
 H      2   1   3     1.088700643578   108.46744688   252.89816774
 C      3   1   2     1.202125917945    58.52372564    28.12280649
 O      1   2   3     1.200817998495   125.01081299    88.31951555
 N      6   2   1     1.444467200280   110.12031021    80.65534644
 O      4   3   1     0.970973620322    71.20922510   305.21250846
 H     11   6   2     1.014387070178   110.35827267   186.24795102
 H      5   1   2     0.970764815111   110.68156342   176.97326803
 H      6   2   1     1.095997142765   108.75372526   199.54728028
 H     11   6   2     1.015505913196   109.95634186   304.51461139

---------------------------
INTERNAL COORDINATES (A.U.)
---------------------------
 C      0   0   0     0.000000000000     0.00000000     0.00000000
 C      1   0   0     2.856544196297     0.00000000     0.00000000
 O      1   2   0     5.968857920180    83.55471639     0.00000000
 H      3   1   2     4.440877379628    87.12858880    76.74725280
 O      1   2   3     2.525589651039   112.31683286   269.96273067
 C      2   1   3     2.920520496805   109.49675442    12.77152511
 H      2   1   3     2.057915481985   110.02368949   131.27771457
 H      2   1   3     2.057346058185   108.46744688   252.89816774
 C      3   1   2     2.271688763405    58.52372564    28.12280649
 O      1   2   3     2.269217153839   125.01081299    88.31951555
 N      6   2   1     2.729647417961   110.12031021    80.65534644
 O      4   3   1     1.834874225670    71.20922510   305.21250846
 H     11   6   2     1.916913756427   110.35827267   186.24795102
 H      5   1   2     1.834479641006   110.68156342   176.97326803
 H      6   2   1     2.071134443386   108.75372526   199.54728028
 H     11   6   2     1.919028063319   109.95634186   304.51461139

---------------------
BASIS SET INFORMATION
---------------------
There are 4 groups of distinct atoms

 Group   1 Type C   : 10s4p1d contracted to 3s2p1d pattern {631/31/1}
 Group   2 Type O   : 10s4p1d contracted to 3s2p1d pattern {631/31/1}
 Group   3 Type H   : 4s1p contracted to 2s1p pattern {31/1}
 Group   4 Type N   : 10s4p1d contracted to 3s2p1d pattern {631/31/1}

Atom   0C    basis set group =>   1
Atom   1C    basis set group =>   1
Atom   2O    basis set group =>   2
Atom   3H    basis set group =>   3
Atom   4O    basis set group =>   2
Atom   5C    basis set group =>   1
Atom   6H    basis set group =>   3
Atom   7H    basis set group =>   3
Atom   8C    basis set group =>   1
Atom   9O    basis set group =>   2
Atom  10N    basis set group =>   4
Atom  11O    basis set group =>   2
Atom  12H    basis set group =>   3
Atom  13H    basis set group =>   3
Atom  14H    basis set group =>   3
Atom  15H    basis set group =>   3
---------------------------------
AUXILIARY/J BASIS SET INFORMATION
---------------------------------
There are 4 groups of distinct atoms

 Group   1 Type C   : 12s5p4d2f1g contracted to 6s4p3d1f1g pattern {711111/2111/211/2/1}
 Group   2 Type O   : 12s5p4d2f1g contracted to 6s4p3d1f1g pattern {711111/2111/211/2/1}
 Group   3 Type H   : 5s2p1d contracted to 3s1p1d pattern {311/2/1}
 Group   4 Type N   : 12s5p4d2f1g contracted to 6s4p3d1f1g pattern {711111/2111/211/2/1}

Atom   0C    basis set group =>   1
Atom   1C    basis set group =>   1
Atom   2O    basis set group =>   2
Atom   3H    basis set group =>   3
Atom   4O    basis set group =>   2
Atom   5C    basis set group =>   1
Atom   6H    basis set group =>   3
Atom   7H    basis set group =>   3
Atom   8C    basis set group =>   1
Atom   9O    basis set group =>   2
Atom  10N    basis set group =>   4
Atom  11O    basis set group =>   2
Atom  12H    basis set group =>   3
Atom  13H    basis set group =>   3
Atom  14H    basis set group =>   3
Atom  15H    basis set group =>   3
------------------------------------------------------------------------------
                             ORCA STARTUP CALCULATIONS
                           -- RI-GTO INTEGRALS CHOSEN --
------------------------------------------------------------------------------
------------------------------------------------------------------------------
                   ___                                                        
                  /   \      - P O W E R E D   B Y -                         
                 /     \                                                     
                 |  |  |   _    _      __       _____    __    __             
                 |  |  |  | |  | |    /  \     |  _  \  |  |  /  |          
                  \  \/   | |  | |   /    \    | | | |  |  | /  /          
                 / \  \   | |__| |  /  /\  \   | |_| |  |  |/  /          
                |  |  |   |  __  | /  /__\  \  |    /   |      \           
                |  |  |   | |  | | |   __   |  |    \   |  |\   \          
                \     /   | |  | | |  |  |  |  | |\  \  |  | \   \       
                 \___/    |_|  |_| |__|  |__|  |_| \__\ |__|  \__/        
                                                                              
                      - O R C A' S   B I G   F R I E N D -                    
                                      &                                       
                       - I N T E G R A L  F E E D E R -                       
                                                                              
 v1 FN, 2020, v2 2021, v3 2022-2024                                           
------------------------------------------------------------------------------


----------------------
SHARK INTEGRAL PACKAGE
----------------------

Number of atoms                             ...     16
Number of basis functions                   ...    161
Number of shells                            ...     75
Maximum angular momentum                    ...      2
Integral batch strategy                     ... SHARK/LIBINT Hybrid
RI-J (if used) integral strategy            ... SPLIT-RIJ (Revised 2003 algorithm where possible)
Printlevel                                  ...      1
Contraction scheme used                     ... SEGMENTED contraction
Prescreening option                         ... SCHWARTZ
   Thresh                                   ... 1.000e-10
   Tcut                                     ... 1.000e-11
   Tpresel                                  ... 1.000e-11 
Coulomb Range Separation                    ... NOT USED
Exchange Range Separation                   ... NOT USED
Multipole approximations                    ... NOT USED
Finite Nucleus Model                        ... NOT USED
CABS basis                                  ... NOT available
Auxiliary Coulomb fitting basis             ... AVAILABLE
   # of basis functions in Aux-J            ...    518
   # of shells in Aux-J                     ...    170
   Maximum angular momentum in Aux-J        ...      4
Auxiliary J/K fitting basis                 ... NOT available
Auxiliary Correlation fitting basis         ... NOT available
Auxiliary 'external' fitting basis          ... NOT available

Checking pre-screening integrals            ... done (  0.0 sec) Dimension = 75
   => SHARK Basis and OBASIS are compatible. Storing Pre-screening
Shell pair information
Shell pair cut-off parameter TPreSel        ...   1.0e-11
Total number of shell pairs                 ...      2850
Shell pairs after pre-screening             ...      2655
Total number of primitive shell pairs       ...     14745
Primitive shell pairs kept                  ...      8995
          la=0 lb=0:    784 shell pairs
          la=1 lb=0:    947 shell pairs
          la=1 lb=1:    306 shell pairs
          la=2 lb=0:    352 shell pairs
          la=2 lb=1:    221 shell pairs
          la=2 lb=2:     45 shell pairs

Checking whether 4 symmetric matrices of dimension 161 fit in memory
:Max Core in MB      =   4096.00
 MB in use           =      7.05
 MB left             =   4088.95
 MB needed           =      0.40
 Data fit in memory  = YES
Calculating RI/J V-Matrix + Cholesky decomp.... done (  0.0 sec)
Calculating Nuclear repulsion               ... done (  0.0 sec) ENN=    488.106207080415 Eh

Diagonalization of the overlap matrix:
Smallest eigenvalue                        ... 2.808e-03
Time for diagonalization                   ...    0.001 sec
Threshold for overlap eigenvalues          ... 1.000e-07
Number of eigenvalues below threshold      ... 0
Time for construction of square roots      ...    0.000 sec
Total time needed                          ...    0.002 sec

-------------------
DFT GRID GENERATION
-------------------

General Integration Accuracy     IntAcc      ... 4.388
Radial Grid Type                 RadialGrid  ... OptM3 with GC (2021)
Angular Grid (max. ang.)         AngularGrid ... 4 (Lebedev-302)
Angular grid pruning method      GridPruning ... 4 (adaptive)
Weight generation scheme         WeightScheme... mBecke (2022)
Basis function cutoff            BFCut       ... 1.0000e-10
Integration weight cutoff        WCut        ... 1.0000e-14
Partially contracted basis set               ... off
Rotationally invariant grid construction     ... off
Angular grids for H and He will be reduced by one unit

Total number of grid points                  ...    76876
Total number of batches                      ...     1211
Average number of points per batch           ...       63
Average number of grid points per atom       ...     4805
Grids setup in   0.3 sec
Initializing property integral containers    ... done (  0.0 sec)

SHARK setup successfully completed in   0.4 seconds

Maximum memory used throughout the entire STARTUP-calculation: 32.4 MB
-------------------------------------------------------------------------------
                                 ORCA GUESS
                   Start orbitals & Density for SCF / CASSCF
-------------------------------------------------------------------------------

------------
SCF SETTINGS
------------
Hamiltonian:
 Density Functional     Method          .... DFT(GTOs)
 Exchange Functional    Exchange        .... B97(D)
 Correlation Functional Correlation     .... B97(D)
 Gradients option       PostSCFGGA      .... off
 RI-approximation to the Coulomb term is turned on
   Number of AuxJ basis functions       .... 518


General Settings:
 Integral files         IntName         .... 2
 Hartree-Fock type      HFTyp           .... RHF
 Total Charge           Charge          ....    0
 Multiplicity           Mult            ....    1
 Number of Electrons    NEL             ....   70
 Basis Dimension        Dim             ....  161
 Nuclear Repulsion      ENuc            ....    488.1062070804 Eh

Convergence Acceleration:
 AO-DIIS                CNVDIIS         .... on
   Start iteration      DIISMaxIt       ....    12
   Startup error        DIISStart       ....  0.200000
   # of expansion vecs  DIISMaxEq       ....     5
   Bias factor          DIISBfac        ....   1.050
   Max. coefficient     DIISMaxC        ....  10.000
 MO-DIIS                CNVKDIIS        .... off
 Trust-Rad. Augm. Hess. CNVTRAH         .... auto
   Auto Start mean grad. ratio tolernc. ....  1.125000
   Auto Start start iteration           ....    50
   Auto Start num. interpolation iter.  ....    10
   Max. Number of Micro iterations      ....    24
   Max. Number of Macro iterations      .... Maxiter - #DIIS iter
   Number of Davidson start vectors     ....     2
   Converg. threshold    (grad. norm)   ....   5.000e-05
   Grad. Scal. Fac. for Micro threshold ....   0.100
   Minimum threshold for Micro iter.    ....   1.000e-02
   NR start threshold (gradient norm)   ....   1.000e-04
   Initial trust radius                 ....   0.400
   Minimum AH scaling param. (alpha)    ....   1.000
   Maximum AH scaling param. (alpha)    .... 1000.000
   Quad. conv. algorithm                .... NR
   White noise on init. David. guess    .... on
   Maximum white noise                  ....   0.010
   Pseudo random numbers                .... off
   Inactive MOs                         .... canonical
   Orbital update algorithm             .... Taylor
   Preconditioner                       .... Diag
   Full preconditioner red. dimension   ....   250
 SOSCF                 CNVSOSCF           .... on
   Start iteration     SOSCFMaxIt         ....   150
   Startup grad/error  SOSCFStart         ....  0.003300
   Hessian update      SOSCFHessUp        .... L-BFGS
   Autom. constraints  SOSCFAutoConstrain .... off
 Level Shifting         CNVShift        .... on
   Level shift para.    LevelShift      ....    0.2500
   Turn off err/grad.   ShiftErr        ....    0.0010
 Zerner damping         CNVZerner       .... off
 Static damping         CNVDamp         .... on
   Fraction old density DampFac         ....    0.7000
   Max. Damping (<1)    DampMax         ....    0.9800
   Min. Damping (>=0)   DampMin         ....    0.0000
   Turn off err/grad.   DampErr         ....    0.1000

SCF Procedure:
 Maximum # iterations   MaxIter         ....   125
 SCF integral mode      SCFMode         .... Direct
   Integral package                     .... SHARK and LIBINT hybrid scheme
 Reset frequency        DirectResetFreq ....    20
 Integral Threshold     Thresh          ....  1.000e-10 Eh
 Primitive CutOff       TCut            ....  1.000e-11 Eh

Convergence Tolerance:
 Convergence Check Mode ConvCheckMode   .... Total+1el-Energy
 Convergence forced     ConvForced      .... 0
 Energy Change          TolE            ....  1.000e-06 Eh
 1-El. energy change                    ....  1.000e-03 Eh
 Orbital Gradient       TolG            ....  5.000e-05
 Orbital Rotation angle TolX            ....  5.000e-05
 DIIS Error             TolErr          ....  1.000e-06

------------------------------
INITIAL GUESS: MODEL POTENTIAL
------------------------------
Loading Hartree-Fock densities                     ... done
Calculating cut-offs                               ... done
Initializing the effective Hamiltonian             ... done
Setting up the integral package (SHARK)            ... done
Starting the Coulomb interaction                   ... done (   0.0 sec)
Making the grid                                    ... done (   0.1 sec)
Mapping shells                                     ... done
Starting the XC term evaluation                    ... done (   0.1 sec)
  promolecular density results
     # of electrons  =     69.995209338
     EX              =    -61.070504797
     EC              =     -3.177953329
     EX+EC           =    -64.248458126
Transforming the Hamiltonian                       ... done (   0.0 sec)
Diagonalizing the Hamiltonian                      ... done (   0.0 sec)
Back transforming the eigenvectors                 ... done (   0.0 sec)
Now organizing SCF variables                       ... done
                      ------------------
                      INITIAL GUESS DONE (   0.2 sec)
                      ------------------
             **** ENERGY FILE WAS UPDATED (2.en.tmp) ****
Finished Guess after   0.2 sec
Maximum memory used throughout the entire GUESS-calculation: 11.8 MB

-------------------------------------------------------------------------------------------
                                      ORCA LEAN-SCF
                              memory conserving SCF solver
-------------------------------------------------------------------------------------------

----------------------------------------D-I-I-S--------------------------------------------
Iteration    Energy (Eh)           Delta-E    RMSDP     MaxDP     DIISErr   Damp  Time(sec)
-------------------------------------------------------------------------------------------
               ***  Starting incremental Fock matrix formation  ***
    1    -511.6060295233513102     0.00e+00  4.55e-03  1.02e-01  2.57e-01  0.700   0.4
    2    -511.7942370167182276    -1.88e-01  2.65e-03  5.09e-02  9.25e-02  0.700   0.4
                               ***Turning on AO-DIIS***
    3    -511.8464216245078546    -5.22e-02  9.48e-04  1.46e-02  3.08e-02  0.700   0.4
    4    -511.8833391369577726    -3.69e-02  1.26e-03  2.03e-02  1.82e-02  0.000   0.4
    5    -511.9707351390737244    -8.74e-02  4.54e-04  8.13e-03  1.18e-02  0.000   0.4
    6    -511.9716141155620903    -8.79e-04  1.62e-04  2.39e-03  3.40e-03  0.000   0.4
                              *** Initializing SOSCF ***
---------------------------------------S-O-S-C-F--------------------------------------
Iteration    Energy (Eh)           Delta-E    RMSDP     MaxDP     MaxGrad    Time(sec)
--------------------------------------------------------------------------------------
    7    -511.9716814449038225    -6.73e-05  6.05e-05  1.01e-03  1.20e-03     0.3
               *** Restarting incremental Fock matrix formation ***
    8    -511.9716917599195654    -1.03e-05  3.93e-05  8.22e-04  1.31e-04     0.4
    9    -511.9716919527194818    -1.93e-07  1.98e-05  4.11e-04  2.50e-04     0.3
                 **** Energy Check signals convergence ****

               *****************************************************
               *                     SUCCESS                       *
               *           SCF CONVERGED AFTER   9 CYCLES          *
               *****************************************************

             **** ENERGY FILE WAS UPDATED (2.en.tmp) ****

----------------
TOTAL SCF ENERGY
----------------

Total Energy       :       -511.97169240644854 Eh          -13931.45801 eV

Components:
Nuclear Repulsion  :        488.10620708041500 Eh           13282.04514 eV
Electronic Energy  :      -1000.07789948686354 Eh          -27213.50315 eV
One Electron Energy:      -1669.38660690797587 Eh          -45426.31900 eV
Two Electron Energy:        669.30870742111233 Eh           18212.81585 eV

Virial components:
Potential Energy   :      -1021.41745034656697 Eh          -27794.18185 eV
Kinetic Energy     :        509.44575794011843 Eh           13862.72384 eV
Virial Ratio       :          2.00495820099974

DFT components:
N(Alpha)           :       34.999993140004 electrons
N(Beta)            :       34.999993140004 electrons
N(Total)           :       69.999986280007 electrons
E(X)               :      -62.261347237542 Eh       
E(C)               :       -3.164793518705 Eh       
E(XC)              :      -65.426140756247 Eh       

---------------
SCF CONVERGENCE
---------------

  Last Energy change         ...    1.9280e-07  Tolerance :   1.0000e-06
  Last MAX-Density change    ...    4.1112e-04  Tolerance :   1.0000e-05
  Last RMS-Density change    ...    1.9787e-05  Tolerance :   1.0000e-06
  Last DIIS Error            ...    1.2027e-03  Tolerance :   1.0000e-06
  Last Orbital Gradient      ...    2.4971e-04  Tolerance :   5.0000e-05
  Last Orbital Rotation      ...    4.4505e-04  Tolerance :   5.0000e-05


----------------
ORBITAL ENERGIES
----------------

  NO   OCC          E(Eh)            E(eV) 
   0   2.0000     -18.821142      -512.1493 
   1   2.0000     -18.816610      -512.0260 
   2   2.0000     -18.756254      -510.3836 
   3   2.0000     -18.755789      -510.3710 
   4   2.0000     -13.987933      -380.6310 
   5   2.0000     -10.038214      -273.1537 
   6   2.0000     -10.030451      -272.9424 
   7   2.0000      -9.960550      -271.0404 
   8   2.0000      -9.928911      -270.1794 
   9   2.0000      -1.028824       -27.9957 
  10   2.0000      -1.023448       -27.8494 
  11   2.0000      -0.936734       -25.4898 
  12   2.0000      -0.935439       -25.4546 
  13   2.0000      -0.821385       -22.3510 
  14   2.0000      -0.710488       -19.3334 
  15   2.0000      -0.634200       -17.2574 
  16   2.0000      -0.574387       -15.6299 
  17   2.0000      -0.537113       -14.6156 
  18   2.0000      -0.473312       -12.8795 
  19   2.0000      -0.457736       -12.4556 
  20   2.0000      -0.426310       -11.6005 
  21   2.0000      -0.423157       -11.5147 
  22   2.0000      -0.412593       -11.2272 
  23   2.0000      -0.407780       -11.0962 
  24   2.0000      -0.385083       -10.4786 
  25   2.0000      -0.378840       -10.3088 
  26   2.0000      -0.350063        -9.5257 
  27   2.0000      -0.346070        -9.4170 
  28   2.0000      -0.330244        -8.9864 
  29   2.0000      -0.320094        -8.7102 
  30   2.0000      -0.278980        -7.5914 
  31   2.0000      -0.276493        -7.5238 
  32   2.0000      -0.230565        -6.2740 
  33   2.0000      -0.222893        -6.0652 
  34   2.0000      -0.198290        -5.3958 
  35   0.0000      -0.025067        -0.6821 
  36   0.0000      -0.018486        -0.5030 
  37   0.0000       0.045735         1.2445 
  38   0.0000       0.054605         1.4859 
  39   0.0000       0.082147         2.2353 
  40   0.0000       0.110743         3.0135 
  41   0.0000       0.125092         3.4039 
  42   0.0000       0.148571         4.0428 
  43   0.0000       0.155695         4.2367 
  44   0.0000       0.162581         4.4241 
  45   0.0000       0.197268         5.3679 
*Only the first 10 virtual orbitals were printed.

                    ********************************
                    * MULLIKEN POPULATION ANALYSIS *
                    ********************************

-----------------------
MULLIKEN ATOMIC CHARGES
-----------------------
   0 C :    0.490045
   1 C :   -0.239658
   2 O :   -0.419988
   3 H :    0.323002
   4 O :   -0.447987
   5 C :   -0.061161
   6 H :    0.153391
   7 H :    0.151592
   8 C :    0.498488
   9 O :   -0.410520
  10 N :   -0.557519
  11 O :   -0.446194
  12 H :    0.245548
  13 H :    0.323515
  14 H :    0.139728
  15 H :    0.257719
Sum of atomic charges:    0.0000000

--------------------------------
MULLIKEN REDUCED ORBITAL CHARGES
--------------------------------
  0 C s       :     2.990631  s :     2.990631
      pz      :     0.845888  p :     2.392225
      px      :     0.789994
      py      :     0.756343
      dz2     :     0.021469  d :     0.127099
      dxz     :     0.033445
      dyz     :     0.027261
      dx2y2   :     0.025700
      dxy     :     0.019225

  1 C s       :     3.246291  s :     3.246291
      pz      :     0.946492  p :     2.960227
      px      :     0.974080
      py      :     1.039655
      dz2     :     0.008178  d :     0.033141
      dxz     :     0.008635
      dyz     :     0.003492
      dx2y2   :     0.007129
      dxy     :     0.005706

  2 O s       :     3.861441  s :     3.861441
      pz      :     1.368211  p :     4.530251
      px      :     1.478830
      py      :     1.683210
      dz2     :     0.009827  d :     0.028297
      dxz     :     0.007534
      dyz     :     0.006137
      dx2y2   :     0.002171
      dxy     :     0.002626

  3 H s       :     0.638985  s :     0.638985
      pz      :     0.010762  p :     0.038013
      px      :     0.008944
      py      :     0.018307

  4 O s       :     3.821876  s :     3.821876
      pz      :     1.241716  p :     4.603651
      px      :     1.675118
      py      :     1.686818
      dz2     :     0.004160  d :     0.022460
      dxz     :     0.005379
      dyz     :     0.004059
      dx2y2   :     0.004559
      dxy     :     0.004302

  5 C s       :     3.207524  s :     3.207524
      pz      :     1.026858  p :     2.795537
      px      :     0.869594
      py      :     0.899086
      dz2     :     0.013620  d :     0.058100
      dxz     :     0.008927
      dyz     :     0.007481
      dx2y2   :     0.013683
      dxy     :     0.014389

  6 H s       :     0.834828  s :     0.834828
      pz      :     0.002450  p :     0.011782
      px      :     0.002708
      py      :     0.006623

  7 H s       :     0.836998  s :     0.836998
      pz      :     0.004053  p :     0.011410
      px      :     0.004479
      py      :     0.002877

  8 C s       :     2.985135  s :     2.985135
      pz      :     0.767574  p :     2.390506
      px      :     0.762214
      py      :     0.860718
      dz2     :     0.027130  d :     0.125870
      dxz     :     0.025400
      dyz     :     0.037286
      dx2y2   :     0.019102
      dxy     :     0.016952

  9 O s       :     3.861193  s :     3.861193
      pz      :     1.740160  p :     4.520969
      px      :     1.380320
      py      :     1.400489
      dz2     :     0.003094  d :     0.028358
      dxz     :     0.004515
      dyz     :     0.003517
      dx2y2   :     0.010120
      dxy     :     0.007113

 10 N s       :     3.582110  s :     3.582110
      pz      :     1.296504  p :     3.947413
      px      :     1.100234
      py      :     1.550675
      dz2     :     0.011006  d :     0.027996
      dxz     :     0.002237
      dyz     :     0.001922
      dx2y2   :     0.002654
      dxy     :     0.010178

 11 O s       :     3.824055  s :     3.824055
      pz      :     1.646069  p :     4.599290
      px      :     1.621933
      py      :     1.331289
      dz2     :     0.004299  d :     0.022849
      dxz     :     0.005037
      dyz     :     0.007088
      dx2y2   :     0.004462
      dxy     :     0.001964

 12 H s       :     0.730566  s :     0.730566
      pz      :     0.005635  p :     0.023886
      px      :     0.009980
      py      :     0.008271

 13 H s       :     0.638499  s :     0.638499
      pz      :     0.019256  p :     0.037986
      px      :     0.009837
      py      :     0.008894

 14 H s       :     0.849307  s :     0.849307
      pz      :     0.006524  p :     0.010965
      px      :     0.002060
      py      :     0.002381

 15 H s       :     0.717764  s :     0.717764
      pz      :     0.011900  p :     0.024517
      px      :     0.004894
      py      :     0.007723



                     *******************************
                     * LOEWDIN POPULATION ANALYSIS *
                     *******************************

----------------------
LOEWDIN ATOMIC CHARGES
----------------------
   0 C :    0.112526
   1 C :   -0.134401
   2 O :   -0.218289
   3 H :    0.185868
   4 O :   -0.134333
   5 C :   -0.041003
   6 H :    0.096196
   7 H :    0.096858
   8 C :    0.094354
   9 O :   -0.210591
  10 N :   -0.246594
  11 O :   -0.129525
  12 H :    0.128795
  13 H :    0.185376
  14 H :    0.086843
  15 H :    0.127919

-------------------------------
LOEWDIN REDUCED ORBITAL CHARGES
-------------------------------
  0 C s       :     2.847108  s :     2.847108
      pz      :     0.959754  p :     2.739103
      px      :     0.907768
      py      :     0.871581
      dz2     :     0.049504  d :     0.301264
      dxz     :     0.081252
      dyz     :     0.064959
      dx2y2   :     0.054560
      dxy     :     0.050989

  1 C s       :     2.912007  s :     2.912007
      pz      :     1.035949  p :     3.147169
      px      :     1.038678
      py      :     1.072542
      dz2     :     0.020103  d :     0.075225
      dxz     :     0.019722
      dyz     :     0.007158
      dx2y2   :     0.015078
      dxy     :     0.013164

  2 O s       :     3.553722  s :     3.553722
      pz      :     1.448552  p :     4.606203
      px      :     1.481671
      py      :     1.675981
      dz2     :     0.019079  d :     0.058364
      dxz     :     0.016616
      dyz     :     0.014096
      dx2y2   :     0.003906
      dxy     :     0.004666

  3 H s       :     0.698553  s :     0.698553
      pz      :     0.033158  p :     0.115578
      px      :     0.025029
      py      :     0.057391

  4 O s       :     3.469510  s :     3.469510
      pz      :     1.268526  p :     4.614464
      px      :     1.669311
      py      :     1.676627
      dz2     :     0.013518  d :     0.050359
      dxz     :     0.012679
      dyz     :     0.010888
      dx2y2   :     0.005827
      dxy     :     0.007448

  5 C s       :     2.882448  s :     2.882448
      pz      :     1.053141  p :     3.027027
      px      :     0.971342
      py      :     1.002544
      dz2     :     0.029742  d :     0.131527
      dxz     :     0.018917
      dyz     :     0.017757
      dx2y2   :     0.031406
      dxy     :     0.033706

  6 H s       :     0.861808  s :     0.861808
      pz      :     0.007484  p :     0.041997
      px      :     0.008063
      py      :     0.026450

  7 H s       :     0.862266  s :     0.862266
      pz      :     0.015242  p :     0.040877
      px      :     0.016415
      py      :     0.009219

  8 C s       :     2.857710  s :     2.857710
      pz      :     0.952203  p :     2.746179
      px      :     0.837679
      py      :     0.956297
      dz2     :     0.062652  d :     0.301757
      dxz     :     0.064506
      dyz     :     0.091047
      dx2y2   :     0.044642
      dxy     :     0.038910

  9 O s       :     3.553195  s :     3.553195
      pz      :     1.729522  p :     4.599016
      px      :     1.432002
      py      :     1.437492
      dz2     :     0.007370  d :     0.058380
      dxz     :     0.009792
      dyz     :     0.007203
      dx2y2   :     0.014457
      dxy     :     0.019557

 10 N s       :     3.189644  s :     3.189644
      pz      :     1.311184  p :     3.999513
      px      :     1.147741
      py      :     1.540588
      dz2     :     0.019971  d :     0.057437
      dxz     :     0.006823
      dyz     :     0.004013
      dx2y2   :     0.006396
      dxy     :     0.020233

 11 O s       :     3.465550  s :     3.465550
      pz      :     1.648414  p :     4.612354
      px      :     1.618626
      py      :     1.345313
      dz2     :     0.007290  d :     0.051622
      dxz     :     0.009934
      dyz     :     0.015027
      dx2y2   :     0.010735
      dxy     :     0.008636

 12 H s       :     0.792160  s :     0.792160
      pz      :     0.014991  p :     0.079045
      px      :     0.035355
      py      :     0.028699

 13 H s       :     0.699119  s :     0.699119
      pz      :     0.060377  p :     0.115505
      px      :     0.029342
      py      :     0.025785

 14 H s       :     0.873627  s :     0.873627
      pz      :     0.026028  p :     0.039530
      px      :     0.006634
      py      :     0.006869

 15 H s       :     0.790415  s :     0.790415
      pz      :     0.045725  p :     0.081665
      px      :     0.013025
      py      :     0.022915



                      *****************************
                      * MAYER POPULATION ANALYSIS *
                      *****************************

  NA   - Mulliken gross atomic population
  ZA   - Total nuclear charge
  QA   - Mulliken gross atomic charge
  VA   - Mayer's total valence
  BVA  - Mayer's bonded valence
  FA   - Mayer's free valence

  ATOM       NA         ZA         QA         VA         BVA        FA
  0 C      5.5100     6.0000     0.4900     4.0124     4.0124    -0.0000
  1 C      6.2397     6.0000    -0.2397     3.8057     3.8057     0.0000
  2 O      8.4200     8.0000    -0.4200     2.1072     2.1072     0.0000
  3 H      0.6770     1.0000     0.3230     0.9136     0.9136     0.0000
  4 O      8.4480     8.0000    -0.4480     2.0545     2.0545     0.0000
  5 C      6.0612     6.0000    -0.0612     3.8896     3.8896    -0.0000
  6 H      0.8466     1.0000     0.1534     0.9538     0.9538     0.0000
  7 H      0.8484     1.0000     0.1516     0.9534     0.9534    -0.0000
  8 C      5.5015     6.0000     0.4985     3.9487     3.9487    -0.0000
  9 O      8.4105     8.0000    -0.4105     2.1044     2.1044     0.0000
 10 N      7.5575     7.0000    -0.5575     2.9045     2.9045     0.0000
 11 O      8.4462     8.0000    -0.4462     2.0428     2.0428     0.0000
 12 H      0.7545     1.0000     0.2455     0.9235     0.9235     0.0000
 13 H      0.6765     1.0000     0.3235     0.9144     0.9144    -0.0000
 14 H      0.8603     1.0000     0.1397     0.9449     0.9449    -0.0000
 15 H      0.7423     1.0000     0.2577     0.9339     0.9339     0.0000

  Mayer bond orders larger than 0.100000
B(  0-C ,  1-C ) :   0.9585 B(  0-C ,  4-O ) :   1.0869 B(  0-C ,  9-O ) :   1.9151 
B(  1-C ,  5-C ) :   0.9607 B(  1-C ,  6-H ) :   0.9226 B(  1-C ,  7-H ) :   0.9358 
B(  2-O ,  8-C ) :   1.9121 B(  3-H , 11-O ) :   0.8497 B(  4-O , 13-H ) :   0.8497 
B(  5-C ,  8-C ) :   0.8830 B(  5-C , 10-N ) :   1.0703 B(  5-C , 14-H ) :   0.9248 
B(  8-C , 11-O ) :   1.0933 B( 10-N , 12-H ) :   0.9063 B( 10-N , 15-H ) :   0.8838 


-------
TIMINGS
-------

Total SCF time: 0 days 0 hours 0 min 3 sec 

Total time                  ....       3.653 sec
Sum of individual times     ....       3.332 sec  ( 91.2%)

SCF preparation             ....       0.025 sec  (  0.7%)
Fock matrix formation       ....       3.271 sec  ( 89.6%)
  Startup                   ....       0.001 sec  (  0.0% of F)
  Split-RI-J                ....       1.122 sec  ( 34.3% of F)
  XC integration            ....       2.458 sec  ( 75.1% of F)
    Basis function eval.    ....       0.827 sec  ( 33.6% of XC)
    Density eval.           ....       0.530 sec  ( 21.6% of XC)
    XC-Functional eval.     ....       0.449 sec  ( 18.3% of XC)
    XC-Potential eval.      ....       0.587 sec  ( 23.9% of XC)
Diagonalization             ....       0.000 sec  (  0.0%)
Density matrix formation    ....       0.003 sec  (  0.1%)
Total Energy calculation    ....       0.000 sec  (  0.0%)
Population analysis         ....       0.003 sec  (  0.1%)
Orbital Transformation      ....       0.004 sec  (  0.1%)
Orbital Orthonormalization  ....       0.000 sec  (  0.0%)
DIIS solution               ....       0.021 sec  (  0.6%)
SOSCF solution              ....       0.005 sec  (  0.1%)
Finished LeanSCF after   3.7 sec

Maximum memory used throughout the entire LEANSCF-calculation: 17.5 MB



-------------------------------------------------------------------------------
                          DFT DISPERSION CORRECTION                            
-------------------------------------------------------------------------------
Active option DFTDOPT                   ...         2   
Final C6-coefficient scaling factor     ...     1.250
Final VDW-radii scaling factor          ...     1.100
Damping factor alpha                    ...    20.000
-------------------------   ----------------
Dispersion correction           -0.021048061
-------------------------   ----------------


-------------------------   --------------------
FINAL SINGLE POINT ENERGY      -511.992740467769
-------------------------   --------------------


------------------------------------------------------------------------------
                              ORCA PROPERTY CALCULATIONS
------------------------------------------------------------------------------

GBWName                                 ... 2.gbw
Number of atoms                         ...     16
Number of basis functions               ...    161
Max core memory                         ...   4096 MB

Electric properties:
Dipole moment                           ... YES
Quadrupole moment                       ...  NO
Static polarizability (Dipole/Dipole)   ...  NO
Static polarizability (Dipole/Quad.)    ...  NO
Static polarizability (Quad./Quad.)     ...  NO
Static polarizability (Velocity)        ...  NO
Static hyperpolarizability              ...  NO

Atomic electric properties:
Dipole moment                           ...  NO
Quadrupole moment                       ...  NO
Static polarizability                   ...  NO

Choice of electric origin               ... Center of mass
Position of electric origin             ...    -6.674298     4.440914     1.009635

General magnetic properties:
Magnetizability                         ...  NO

EPR properties:
g-Tensor (aka g-matrix)                 ...  NO
Zero-Field splitting spin-orbit         ...  NO
Zero-field splitting spin-spin          ...  NO
Hyperfine couplings                     ...  NO (   0 nuclei)
Quadrupole couplings                    ...  NO (   0 nuclei)
Contact density                         ...  NO (   0 nuclei)

NMR properties:
Chemical shifts                         ...  NO (   0 nuclei)
Spin-rotation constants                 ...  NO (   0 nuclei)
Spin-spin couplings                     ...  NO (   0 nuclei,    0 pairs)

Choice of magnetic origin               ... GIAO
Position of magnetic origin             ...     0.000000     0.000000     0.000000

Properties with geometric perturbations:
SCF Hessian                             ...  NO
IR spectrum                             ...  NO
VCD spectrum                            ...  NO
X-ray spectroscopy properties:
SCF XES/XAS/RIXS spectra                ...  NO

SCF SOC stabilization energy            ...  NO
Diagonal Born-Oppenheimer correction    ...  NO

-------------
DIPOLE MOMENT
-------------

Method             : SCF
Type of density    : Electron Density
Multiplicity       :   1
Irrep              :   0
Energy             :  -511.9716924064485397 Eh
Basis              : AO
                                X                 Y                 Z
Electronic contribution:     -2.294867587       2.880763894       2.545266543
Nuclear contribution   :      2.382708729      -2.895643627      -2.674048122
                        -----------------------------------------
Total Dipole Moment    :      0.087841142      -0.014879732      -0.128781579
                        -----------------------------------------
Magnitude (a.u.)       :      0.156595555
Magnitude (Debye)      :      0.398034269



--------------------
Rotational spectrum 
--------------------
 
Rotational constants in cm-1:             0.070302             0.050940             0.041054 
Rotational constants in MHz :          2107.593824          1527.154802          1230.777820 

Dipole components along the rotational axes: 
x,y,z [a.u.] :     0.095606     0.089299    -0.086066 
x,y,z [Debye]:     0.243011     0.226980    -0.218763 

 

Dipole moment calculation done in   0.0 sec 

Maximum memory used throughout the entire PROP-calculation: 10.0 MB

--------------------------------
SUGGESTED CITATIONS FOR THIS RUN
--------------------------------

Below you find a list of papers that are relevant to this ORCA run
We neither can nor want to force you to cite these papers, but we appreciate if you do
You receive ORCA, which is the product of decades of hard work by many enthusiastic individuals, for free
The only thing we kindly ask in return is that you cite our papers,
We deeply appreciate it, if you show your appreciation for ORCA by not just citing the generic ORCA reference.

Please note that relegating all ORCA citations to the supporting information does *not* help us.
SI sections are not indexed - citations you put there will not count into any citation statistics
But we need these citations in order to attract the funding resources that allow us to do what we are doing

Therefore, if you are a happy ORCA user, please consider citing a few of the papers listed below in the main body of your paper

In addition to the list printed below, the program has created the file 2.bibtex that contains the list in bibtex format
You can import this file easily into all common literature databanks and citation aid programs


List of essential papers. We consider these as the minimum necessary citations

  1. Neese, F.
     Software update: the ORCA program system, version 6.0
     WIRES Comput. Molec. Sci. 2025 15(1), e70019
     doi.org/10.1002/wcms.7019

List of papers to cite with high priority. The work reported in these papers was absolutely
necessary for this run to complete.
Our perspective: the developers of density functionals and basis sets usually get cited in chemistry papers
Good! But without the algorithms to do something with them, the functionals or basis sets would not do anything.
Hence, in our opinion, the algorithm design and method developments papers are equally worthy of getting cited

  1. Neese, F.
     An improvement of the resolution of the identity approximation for the formation of the Coulomb matrix
     J. Comp. Chem. 2003 24(14), 1740-1747
     doi.org/10.1002/jcc.10318
  2. Grimme, S.
     Semiempirical GGA-type density functional constructed with a long-range dispersion correction
     J.Comput.Chem. 2006 27(15), 1787-1799
     doi.org/10.1002/jcc.20495
  3. Neese, F.
     The SHARK Integral Generation and Digestion System
     J. Comp. Chem. 2022 44(3), 381
     doi.org/10.1002/jcc.26942

List of suggested additional citations. These are papers that are important in the 'surrounding' of 
of this run, or papers that preceded the highly important papers. If you like your results we are grateful for a citation.

  1. Neese, F.
     The ORCA program system
     WIRES Comput. Molec. Sci. 2012 2(1), 73-78
     doi.org/10.1002/wcms.81
  2. Neese, F.
     Software update: the ORCA program system, version 4.0
     WIRES Comput. Molec. Sci. 2018 8(1), 1-6
     doi.org/10.1002/wcms.1327
  3. Neese, F.; Wennmohs, F.; Becker, U.; Riplinger, C.
     The ORCA quantum chemistry program package
     J. Chem. Phys. 2020 152(22), 224108
     doi.org/10.1063/5.0004608
  4. Neese, F.
     Software update: The ORCA program system—Version 5.0
     WIRES Comput. Molec. Sci. 2022 12(1), e1606
     doi.org/10.1002/wcms.1606

List of optional additional citations

  1. Neese, F.
     Approximate second-order SCF convergence for spin unrestricted wavefunctions
     Chem. Phys. Lett. 2000 325(1-3), 93-98
     doi.org/10.1016/s0009-2614(00)00662-x

Timings for individual modules:

Sum of individual times          ...        4.306 sec (=   0.072 min)
Startup calculation              ...        0.369 sec (=   0.006 min)   8.6 %
SCF iterations                   ...        3.907 sec (=   0.065 min)  90.7 %
Property calculations            ...        0.031 sec (=   0.001 min)   0.7 %
                             ****ORCA TERMINATED NORMALLY****
TOTAL RUN TIME: 0 days 0 hours 0 minutes 4 seconds 346 msec
