
                                 *****************
                                 * O   R   C   A *
                                 *****************

                                            #,                                       
                                            ###                                      
                                            ####                                     
                                            #####                                    
                                            ######                                   
                                           ########,                                 
                                     ,,################,,,,,                         
                               ,,#################################,,                 
                          ,,##########################################,,             
                       ,#########################################, ''#####,          
                    ,#############################################,,   '####,        
                  ,##################################################,,,,####,       
                ,###########''''           ''''###############################       
              ,#####''   ,,,,##########,,,,          '''####'''          '####       
            ,##' ,,,,###########################,,,                        '##       
           ' ,,###''''                  '''############,,,                           
         ,,##''                                '''############,,,,        ,,,,,,###''
      ,#''                                            '''#######################'''  
     '                                                          ''''####''''         
             ,#######,   #######,   ,#######,      ##                                
            ,#'     '#,  ##    ##  ,#'     '#,    #''#        ,####,    ,#,          
            ##       ##  ##   ,#'  ##            #'  '#       #'       ,# #          
            ##       ##  #######   ##           ,######,      #####,      #          
            '#,     ,#'  ##    ##  '#,     ,#' ,#      #,     #,   #      #          
             '#######'   ##     ##  '#######'  #'      '#     '####' #    #          



                #########################################################
                #                        -***-                          #
                #          Department of theory and spectroscopy        #
                #                                                       #
                #                      Frank Neese                      #
                #                                                       #
                #     Directorship, Architecture, Infrastructure        #
                #                    SHARK, DRIVERS                     #
                #        Core code/Algorithms in most modules           #
                #                                                       #
                #        Max Planck Institute fuer Kohlenforschung      #
                #                Kaiser Wilhelm Platz 1                 #
                #                 D-45470 Muelheim/Ruhr                 #
                #                      Germany                          #
                #                                                       #
                #                  All rights reserved                  #
                #                        -***-                          #
                #########################################################


                         Program Version 6.1.0  -  RELEASE   -
                                (GIT: $679e74b$)
                          ($2025-06-10 18:02:51 +0200$)


 With contributions from (in alphabetic order):
[Max-Planck-Institut fuer Kohlenforschung]                               
  Daniel Aravena         : Magnetic Suceptibility                        
  Michael Atanasov       : Ab Initio Ligand Field Theory (pilot matlab implementation)
  Alexander A. Auer      : GIAO ZORA, VPT2 properties, NMR spectrum      
  Ute Becker             : All parallelization in ORCA, NUMFREQ, NUMCALC 
  Giovanni Bistoni       : ED, misc. LED, open-shell LED, HFLD           
  Dmytro Bykov           : pre 5.0 version of the SCF Hessian            
  Marcos Casanova-Páez   : Triplet and SCS-CIS(D). UHF-(DLPNO)-IP/EA/STEOM-CCSD. UHF-CVS-IP/STEOM-CCSD   
  Vijay G. Chilkuri      : MRCI spin determinant printing, contributions to CSF-ICE 
  Pauline Colinet        : FMM embedding                                 
  Dipayan Datta          : RHF DLPNO-CCSD density                        
  Achintya Kumar Dutta   : EOM-CC, STEOM-CC                              
  Nicolas Foglia         : Exact transition moments, OPA infrastructure, MCD improvements    
  Dmitry Ganyushin       : Spin-Orbit,Spin-Spin,Magnetic field MRCI      
  Miquel Garcia-Rates    : C-PCM and meta-GGA Hessian, CCSD/C-PCM, Gaussian charge scheme 
  Tiago L. C. Gouveia    : GS-ROHF, GS-ROCIS                             
  Yang Guo               : DLPNO-NEVPT2, F12-NEVPT2, CIM, IAO-localization        
  Andreas Hansen         : Spin unrestricted coupled pair/coupled cluster methods 
  Ingolf Harden          : AUTO-CI MPn and infrastructure                
  Benjamin Helmich-Paris : MC-RPA, TRAH-(SCF,CASSCF), AVAS, COSX integrals, SCF dyn. polar., MC-PDFT, srDFT 
  Lee Huntington         : MR-EOM, pCC                                   
  Robert Izsak           : Overlap fitted RIJCOSX, COSX-SCS-MP3, EOM     
  Riya Kayal             : Wick's Theorem for AUTO-CI, AUTO-CI UHF-CCSDT 
  Emily Kempfer          : AUTO-CI RHF CISDT and CCSDT, approximate NEVPT4
  Christian Kollmar      : KDIIS, OOCD, Brueckner-CCSD(T), CCSD density, CASPT2, CASPT2-K, improved NEVPT2 
  Axel Koslowski         : Symmetry handling                             
  Simone Kossmann        : meta-GGA functionals, TD-DFT gradient, OOMP2, (MP2 Hessian; deprecated post 5.0) 
  Lucas Lang             : DCDCAS, Hyperfine gauge corrections, ICE-SOC+SSC
  Marvin Lechner         : AUTO-CI (C++ implementation), FIC-MRCC        
  Spencer Leger          : CASSCF response                               
  Dagmar Lenk            : GEPOL surface, SMD, ORCA-2-JSON               
  Dimitrios Liakos       : Extrapolation schemes; Compound Job, Property file
  Dimitrios Manganas     : Further ROCIS development; embedding schemes. LFT, Crystal Embedding 
  Dimitrios Pantazis     : SARC Basis sets                               
  Anastasios Papadopoulos: AUTO-CI, single reference methods and gradients 
  Taras Petrenko         : pre 6.0 DFT Hessian and TD-DFT gradient,  ECA, NRVS 
  Petra Pikulova         : Analytic Raman intensities                    
  Peter Pinski           : DLPNO-MP2, DLPNO-MP2 Gradient                 
  Shashank Vittal Rao    : ES-AILFT, MagRelax                            
  Christoph Reimann      : Effective Core Potentials                     
  Marius Retegan         : Local ZFS, SOC                                
  Christoph Riplinger    : Optimizer, TS searches, QM/MM, DLPNO-CCSD(T), (RO)-DLPNO pert. Triples 
  Michael Roemelt        : Original ROCIS implementation, recursive CI coupling coefficients
  Masaaki Saitow         : Open-shell DLPNO-CCSD energy and density      
  Barbara Sandhoefer     : DKH picture change effects                    
  Yorick L. A. Schmerwitz: GMF and freeze-and-release deltaSCF, NEB S-IDPP initial path                    
  Kantharuban Sivalingam : CASSCF convergence/infrastructure, NEVPT2, NEVPT3, NEVPT4(SD), FIC-MRCI and CEPA variants
  Bernardo de Souza      : ESD, SOC TD-DFT                               
  Georgi L. Stoychev     : AutoAux, RI-MP2 NMR, DLPNO-MP2 response, X2C  
  Van Anh Tran           : RI-MP2 g-tensors                              
  Willem Van den Heuvel  : Paramagnetic NMR                              
  Zikuan Wang            : NOTCH, Electric field optimization            
  Frank Wennmohs         : Technical directorship and infrastructure     
  Hang Xu                : AUTO-CI-Response properties                   
                                                                         
[FACCTs GmbH]                                                            
  Markus Bursch, Nicolas Foglia, Miquel Garcia-Rates, Ingolf Harden, Hagen Neugebauer, Anastasios Papadopoulos, 
  Christoph Riplinger, Bernardo de Souza, Georgi L. Stoychev                                                    
                                                                 
  APM, various basis sets, CI-OPT, improved COSX, DLPNO-Multilevel,           
  DOCKER, DRACO, updates on ESD, Fragmentator, GOAT, IRC, LR-CPCM, L-BFGS, MBIS, meta-GGA TD-DFT gradient, ML-optimized integration grids, 
  MM, NACMEs, nearIR, NEB, NEB-TS, NL-DFT gradient (VV10), 2- and 3-layer-ONIOM, interface openCOSMO-RS, QMMM,   
  Crystal-QMMM, RESP, rigid body optimization, SF, symmetry and pop. for TD-DFT, various functionals, SOLVATOR                                   
                                                                         
[Other institutions]                                                     
  V. Asgeirsson          : NEB                                           
  Christoph Bannwarth    : sTDA-DFT, sTD-DFT, PBEh-3c, B97-3c, D3        
  Giovanni Bistoni       : ETS/NOCV, ADLD/ADEX, COVALED                  
  Martin Brehm           : Molecular dynamics                            
  Ronald Cardenas        : ETS/NOCV                                      
  Martina Colucci        : COVALED                                       
  Sebastian Ehlert       : rSCAN, r2SCAN, r2SCAN-3c, D4, dhf basis sets  
  Marvin Friede          : D4 for Fr, Ra, Ac-Lr                          
  Lars Goerigk           : TD-DFT with DH, B97 family of functionals     
  Stefan Grimme          : VdW corrections, initial TS optimization, DFT functionals, gCP, sTDA/sTD-DF 
  Waldemar Hujo          : DFT-NL                                        
  H. Jonsson             : NEB                                           
  Holger Kruse           : gCP                                           
  Marcel Mueller         : wB97X-3c, vDZP basis set                      
  Hagen Neugebauer       : wr2SCAN, Native XTB                           
  Gianluca Regni         : ADLD/ADEX                                     
  Tobias Risthaus        : pre 6.0 range-separated hybrid DFT and stability analysis
  Lukas Wittmann         : regularized MP2, r2SCAN double-hybrids, wr2SCAN        
                                                                         
We gratefully acknowledge several colleagues who have allowed us to      
interface, adapt or use parts of their codes:                            
  Ed Valeev, F. Pavosevic, A. Kumar             : LibInt (2-el integral package), F12 methods 
  Garnet Chan, S. Sharma, J. Yang, R. Olivares  : DMRG                   
  Ulf Ekstrom                                   : XCFun DFT Library      
  Mihaly Kallay                                 : mrcc  (arbitrary order and MRCC methods)
  Frank Weinhold                                : gennbo (NPA and NBO analysis)           
  Simon Mueller                                 : openCOSMO-RS                            
  Christopher J. Cramer and Donald G. Truhlar   : smd solvation model                     
  S Lehtola, MJT Oliveira, MAL Marques          : LibXC Library                           
  Liviu Ungur et al                             : ANISO software                          


 Your calculation uses the libint2 library for the computation of 2-el integrals
 For citations please refer to: http://libint.valeyev.net

 Your ORCA version has been built with support for libXC version: 7.0.0
 For citations please refer to: https://libxc.gitlab.io

 This ORCA versions uses:
   CBLAS   interface :  Fast vector & matrix operations
   LAPACKE interface :  Fast linear algebra routines
   SCALAPACK package :  Parallel linear algebra routines
   Shared memory     :  Shared parallel matrices
   BLAS/LAPACK       :  OpenBLAS 0.3.29  USE64BITINT DYNAMIC_ARCH NO_AFFINITY Haswell SINGLE_THREADED
        Core in use  :  Haswell
   Copyright (c) 2011-2014, The OpenBLAS Project


  ***********************************
  * Starting time: Wed Sep  3 14:11:48 2025
  * Host name:     chemlab03
  * Process ID:    121428
  * Working dir.:  /home/vivek/mm-project/vivek/xtb-goat/MP2-opt/h/2
  ***********************************



***************************************
The coordinates will be read from file: /home/vivek/mm-project/vivek/xtb-goat/xtb-goat/h/H_CONF/2.xyz
***************************************


================================================================================

----- Orbital basis set information -----
Your calculation utilizes the basis: 6-31G**
   H-He, Li-Ne : W. J. Hehre, R. Ditchfield and J.A. Pople, J. Chem. Phys. 56, 2257 (1972).
                 Note: He and Ne are unpublished basis sets taken from the Gaussian program.
                 Note: Li and B from J. D. Dill and J. A. Pople, J. Chem. Phys. 62, 2921 (1975).
   Na - Ar     : M. M. Francl, W. J. Pietro, W. J. Hehre, J. S. Binkley, M. S. Gordon, 
                 D. J. DeFrees and J. A. Pople, J. Chem. Phys. 77, 3654 (1982).
   K - Zn      : V. A. Rassolov, J. A. Pople, M. A. Ratner, and T. L. Windus, J. Chem. Phys. 109, 1223 (1998).

================================================================================
                                        WARNINGS
                       Please study these warnings very carefully!
================================================================================


WARNING: The frozen-core approximation for MP2-gradient calculations is turned on by default.

WARNING: Geometry Optimization
  ===> : Switching off AutoStart
         For restart on a previous wavefunction, please use MOREAD

WARNING: Post HF methods need fully converged wavefunctions
  ===> : Setting SCFConvForced true
         You can overwrite this default with %scf ConvForced false 


================================================================================
                                       INPUT FILE
================================================================================
NAME = 2.inp
|  1> ! MP2 6-31G** opt
|  2> 
|  3> * xyzfile 0 1 /home/vivek/mm-project/vivek/xtb-goat/xtb-goat/h/H_CONF/2.xyz
|  4> 
|  5>                          ****END OF INPUT****
================================================================================

                       *****************************
                       * Geometry Optimization Run *
                       *****************************

Geometry optimization settings:
Update method            Update   .... BFGS
Choice of coordinates    CoordSys .... (2022) Redundant Internals
Initial Hessian          InHess   .... Almloef's Model
Max. no of cycles        MaxIter  .... 72

Convergence Tolerances:
Energy Change            TolE     ....  5.0000e-06 Eh
Max. Gradient            TolMAXG  ....  3.0000e-04 Eh/bohr
RMS Gradient             TolRMSG  ....  1.0000e-04 Eh/bohr
Max. Displacement        TolMAXD  ....  4.0000e-03 bohr
RMS Displacement         TolRMSD  ....  2.0000e-03 bohr
Strict Convergence                .... False

------------------------------------------------------------------------------
                        ORCA OPTIMIZATION COORDINATE SETUP
------------------------------------------------------------------------------

The optimization will be done in redundant internal coordinates (2022)
Making redundant internal coordinates   ...  (2022 redundants) done
Evaluating the initial hessian          ...  (Almloef) done
Evaluating the coordinates              ...  done
Calculating the B-matrix                .... done
Calculating the G-matrix                .... done
The number of degrees of freedom        ....  118

    -----------------------------------------------------------------
                    Redundant Internal Coordinates


    -----------------------------------------------------------------
         Definition                    Initial Value    Approx d2E/dq
    -----------------------------------------------------------------
      1. B(N   1,C   0)                  1.4618         0.429874   
      2. B(C   3,N   1)                  1.4559         0.439265   
      3. B(N   4,C   0)                  1.4398         0.466120   
      4. B(N   4,H   2)                  1.0165         0.422457   
      5. B(H   5,C   0)                  1.0920         0.357454   
      6. B(H   6,C   0)                  1.1017         0.344976   
      7. B(C   7,C   3)                  1.5531         0.343119   
      8. B(C   7,N   4)                  1.4565         0.438234   
      9. B(H   8,N   1)                  1.0118         0.429812   
     10. B(H   9,C   7)                  1.0875         0.363445   
     11. B(H  10,C   7)                  1.0948         0.353835   
     12. B(C  11,C   3)                  1.5317         0.371187   
     13. B(H  12,C   3)                  1.0991         0.348203   
     14. B(C  13,C  11)                  1.5345         0.367435   
     15. B(H  14,C  11)                  1.0893         0.360994   
     16. B(H  15,C  11)                  1.0906         0.359242   
     17. B(C  16,C  13)                  1.5376         0.363260   
     18. B(N  18,H  17)                  1.0148         0.425165   
     19. B(N  18,C  13)                  1.4514         0.446569   
     20. B(H  19,N  18)                  1.0149         0.425054   
     21. B(O  20,C  16)                  1.3571         0.631506   
     22. B(H  21,C  13)                  1.0959         0.352394   
     23. B(H  22,O  20)                  0.9684         0.504174   
     24. B(O  23,H   2)                  2.4318         0.010000   
     25. B(O  23,C  16)                  1.2144         1.066683   
     26. A(N   4,C   0,H   6)          109.2630         0.332000   
     27. A(N   1,C   0,N   4)          104.6939         0.381877   
     28. A(N   1,C   0,H   5)          110.2138         0.329515   
     29. A(N   4,C   0,H   5)          111.0448         0.333962   
     30. A(H   5,C   0,H   6)          109.8150         0.288555   
     31. A(N   1,C   0,H   6)          111.7211         0.327588   
     32. A(C   3,N   1,H   8)          114.7576         0.338055   
     33. A(C   0,N   1,H   8)          114.9091         0.336840   
     34. A(C   0,N   1,C   3)          107.8882         0.377969   
     35. A(C  11,C   3,H  12)          108.4507         0.322198   
     36. A(N   1,C   3,H  12)          112.1123         0.329264   
     37. A(C   7,C   3,C  11)          115.9411         0.357731   
     38. A(N   1,C   3,C   7)          102.7188         0.365874   
     39. A(N   1,C   3,C  11)          108.0650         0.370846   
     40. A(C   7,C   3,H  12)          109.5290         0.318084   
     41. A(C   0,N   4,H   2)          107.5654         0.340438   
     42. A(H   2,N   4,C   7)          110.7412         0.336952   
     43. A(C   0,N   4,C   7)          103.9860         0.383156   
     44. A(C   3,C   7,H   9)          112.8228         0.320316   
     45. A(C   3,C   7,N   4)          106.5240         0.365727   
     46. A(N   4,C   7,H  10)          107.6530         0.330010   
     47. A(C   3,C   7,H  10)          109.4313         0.318918   
     48. A(N   4,C   7,H   9)          111.7432         0.331476   
     49. A(H   9,C   7,H  10)          108.5253         0.290460   
     50. A(H  14,C  11,H  15)          108.7213         0.290844   
     51. A(C  13,C  11,H  15)          108.2317         0.323311   
     52. A(C   3,C  11,H  15)          108.2295         0.323851   
     53. A(C  13,C  11,H  14)          108.9894         0.323569   
     54. A(C   3,C  11,H  14)          110.8025         0.324110   
     55. A(C   3,C  11,C  13)          111.7831         0.361928   
     56. A(C  11,C  13,C  16)          111.8860         0.360598   
     57. A(N  18,C  13,H  21)          107.1773         0.330816   
     58. A(C  16,C  13,H  21)          105.8990         0.321690   
     59. A(C  11,C  13,H  21)          107.9649         0.322293   
     60. A(C  16,C  13,N  18)          112.3409         0.370521   
     61. A(C  11,C  13,N  18)          111.2176         0.371250   
     62. A(O  20,C  16,O  23)          121.7429         0.474361   
     63. A(C  13,C  16,O  23)          123.2940         0.431846   
     64. A(C  13,C  16,O  20)          111.7264         0.393489   
     65. A(H  17,N  18,H  19)          106.1937         0.301546   
     66. A(C  13,N  18,H  19)          109.5595         0.338358   
     67. A(C  13,N  18,H  17)          110.0870         0.338372   
     68. A(C  16,O  20,H  22)          108.8577         0.369326   
     69. D(C   3,N   1,C   0,H   5)    153.1866         0.015755   
     70. D(H   8,N   1,C   0,N   4)    163.1291         0.015755   
     71. D(C   3,N   1,C   0,N   4)     33.7039         0.015755   
     72. D(H   8,N   1,C   0,H   5)    -77.3882         0.015755   
     73. D(C   3,N   1,C   0,H   6)    -84.4339         0.015755   
     74. D(C  11,C   3,N   1,H   8)     92.4059         0.016453   
     75. D(H  12,C   3,N   1,C   0)    102.4536         0.016453   
     76. D(C   7,C   3,N   1,C   0)    -15.0371         0.016453   
     77. D(C  11,C   3,N   1,C   0)   -138.0838         0.016453   
     78. D(C   7,C   3,N   1,H   8)   -144.5474         0.016453   
     79. D(C   7,N   4,C   0,N   1)    -38.0842         0.018556   
     80. D(H   2,N   4,C   0,H   5)    -39.5130         0.018556   
     81. D(H   2,N   4,C   0,N   1)     79.4100         0.018556   
     82. D(C   7,N   4,C   0,H   5)   -157.0072         0.018556   
     83. D(H   2,N   4,C   0,H   6)   -160.7925         0.018556   
     84. D(H  10,C   7,N   4,C   0)    -88.6330         0.016375   
     85. D(H   9,C   7,N   4,H   2)     37.0265         0.016375   
     86. D(H   9,C   7,N   4,C   0)    152.2966         0.016375   
     87. D(C   3,C   7,N   4,C   0)     28.6616         0.016375   
     88. D(H   9,C   7,C   3,H  12)    109.3753         0.010000   
     89. D(H   9,C   7,C   3,C  11)    -13.7159         0.010000   
     90. D(C   3,C   7,N   4,H   2)    -86.6085         0.016375   
     91. D(N   4,C   7,C   3,H  12)   -127.6632         0.010000   
     92. D(N   4,C   7,C   3,C  11)    109.2456         0.010000   
     93. D(N   4,C   7,C   3,N   1)     -8.3554         0.010000   
     94. D(H   9,C   7,C   3,N   1)   -131.3169         0.010000   
     95. D(H  14,C  11,C   3,N   1)    162.8611         0.011010   
     96. D(C  13,C  11,C   3,H  12)    162.8304         0.011010   
     97. D(C  13,C  11,C   3,C   7)    -73.5150         0.011010   
     98. D(H  14,C  11,C   3,C   7)     48.2662         0.011010   
     99. D(C  13,C  11,C   3,N   1)     41.0800         0.011010   
    100. D(H  14,C  11,C   3,H  12)    -75.3884         0.011010   
    101. D(N  18,C  13,C  11,H  15)   -152.6993         0.010802   
    102. D(N  18,C  13,C  11,H  14)    -34.6175         0.010802   
    103. D(N  18,C  13,C  11,C   3)     88.2017         0.010802   
    104. D(C  16,C  13,C  11,H  15)     80.7607         0.010802   
    105. D(C  16,C  13,C  11,H  14)   -161.1576         0.010802   
    106. D(C  16,C  13,C  11,C   3)    -38.3383         0.010802   
    107. D(O  23,C  16,C  13,N  18)     -3.4122         0.010000   
    108. D(O  23,C  16,C  13,C  11)    122.5153         0.010000   
    109. D(O  20,C  16,C  13,H  21)     39.8296         0.010000   
    110. D(O  20,C  16,C  13,N  18)    156.5128         0.010000   
    111. D(O  20,C  16,C  13,C  11)    -77.5597         0.010000   
    112. D(H  19,N  18,C  13,C  16)    -62.5558         0.017009   
    113. D(H  19,N  18,C  13,C  11)    171.1547         0.017009   
    114. D(H  17,N  18,C  13,H  21)    169.7864         0.017009   
    115. D(H  17,N  18,C  13,C  16)     53.8713         0.017009   
    116. D(H  17,N  18,C  13,C  11)    -72.4181         0.017009   
    117. D(H  22,O  20,C  16,O  23)     -9.8688         0.029339   
    118. D(H  22,O  20,C  16,C  13)   -170.1516         0.029339   
    -----------------------------------------------------------------

Number of atoms                         .... 24
Number of degrees of freedom            .... 118


         *************************************************************
         *                GEOMETRY OPTIMIZATION CYCLE   1            *
         *************************************************************
---------------------------------
CARTESIAN COORDINATES (ANGSTROEM)
---------------------------------
  C     -8.606099    2.078623    0.321795
  N     -7.249428    2.371592    0.780529
  H     -8.667391    3.380960   -1.191398
  C     -7.214992    3.760129    1.216924
  N     -9.069041    3.311458   -0.260177
  H     -8.588853    1.277125   -0.419678
  H     -9.267827    1.800152    1.157421
  C     -8.523853    4.340353    0.614848
  H     -6.872011    1.708938    1.445541
  H     -8.365654    5.277029    0.085479
  H     -9.248799    4.512289    1.416988
  C     -5.910701    4.384566    0.711804
  H     -7.242676    3.850468    2.312001
  C     -5.584318    3.941068   -0.720505
  H     -5.965176    5.472098    0.742399
  H     -5.100336    4.056180    1.363713
  C     -5.939998    2.464173   -0.958315
  H     -7.203009    4.663596   -1.723457
  N     -6.200882    4.821062   -1.696247
  H     -5.853867    4.596784   -2.623186
  O     -5.013554    1.631356   -0.419967
  H     -4.499604    4.014565   -0.858215
  H     -5.190021    0.728836   -0.723441
  O     -6.704200    2.093971   -1.826480

----------------------------
CARTESIAN COORDINATES (A.U.)
----------------------------
  NO LB      ZA    FRAG     MASS         X           Y           Z
   0 C     6.0000    0    12.011  -16.263171    3.928028    0.608105
   1 N     7.0000    0    14.007  -13.699433    4.481660    1.474986
   2 H     1.0000    0     1.008  -16.378995    6.389089   -2.251416
   3 C     6.0000    0    12.011  -13.634359    7.105614    2.299654
   4 N     7.0000    0    14.007  -17.138004    6.257748   -0.491663
   5 H     1.0000    0     1.008  -16.230581    2.413416   -0.793077
   6 H     1.0000    0     1.008  -17.513654    3.401794    2.187208
   7 C     6.0000    0    12.011  -16.107747    8.202079    1.161895
   8 H     1.0000    0     1.008  -12.986218    3.229424    2.731676
   9 H     1.0000    0     1.008  -15.808795    9.972140    0.161532
  10 H     1.0000    0     1.008  -17.477698    8.526991    2.677719
  11 C     6.0000    0    12.011  -11.169606    8.285630    1.345114
  12 H     1.0000    0     1.008  -13.686674    7.276330    4.369049
  13 C     6.0000    0    12.011  -10.552833    7.447540   -1.361558
  14 H     1.0000    0     1.008  -11.272549   10.340767    1.402931
  15 H     1.0000    0     1.008   -9.638237    7.665069    2.577045
  16 C     6.0000    0    12.011  -11.224969    4.656612   -1.810953
  17 H     1.0000    0     1.008  -13.611713    8.812918   -3.256861
  18 N     7.0000    0    14.007  -11.717969    9.110486   -3.205442
  19 H     1.0000    0     1.008  -11.062206    8.686663   -4.957104
  20 O     8.0000    0    15.999   -9.474244    3.082817   -0.793623
  21 H     1.0000    0     1.008   -8.503020    7.586429   -1.621791
  22 H     1.0000    0     1.008   -9.807718    1.377300   -1.367105
  23 O     8.0000    0    15.999  -12.669103    3.957032   -3.451547

--------------------------------
INTERNAL COORDINATES (ANGSTROEM)
--------------------------------
 C      0   0   0     0.000000000000     0.00000000     0.00000000
 N      1   0   0     1.461788454954     0.00000000     0.00000000
 H      1   2   0     1.997396527913    97.79012319     0.00000000
 C      2   1   3     1.455905786382   107.88816626    62.47914268
 N      3   1   2     1.016526555962    43.40931772   253.67355731
 H      1   2   3     1.092007199470   110.21384567    90.70743424
 H      1   2   3     1.101679899888   111.72113543   213.08693439
 C      5   3   1     1.456545969482   110.74116291   113.01348162
 H      2   1   3     1.011827815015   114.90906262   191.90432150
 H      8   5   3     1.087483347278   111.74324202    37.02648198
 H      8   5   3     1.094777371892   107.65303329   156.09682691
 C      4   2   1     1.531745275699   108.06496470   221.91618093
 H      4   2   1     1.099145255901   112.11229983   102.45361403
 C     12   4   2     1.534511241230   111.78313460    41.07996816
 H     12   4   2     1.089324890780   110.80254403   162.86110668
 H     12   4   2     1.090649687932   108.22947135   281.97959969
 C     14  12   4     1.537621800870   111.88601128   321.66165765
 H      3   1   2     2.018082013840   126.28987316   358.49728325
 N     18   3   1     1.014787154902   143.91371245    25.71146796
 H     19  18   3     1.014857883195   106.19373014   102.56894588
 O     17  14  12     1.357092534318   111.72640032   282.44029310
 H     14  12   4     1.095888113152   107.96488309   205.51930942
 H     21  17  14     0.968390425187   108.85773455   189.84837249
 O     17  14  12     1.214399123295   123.29395737   122.51532517

---------------------------
INTERNAL COORDINATES (A.U.)
---------------------------
 C      0   0   0     0.000000000000     0.00000000     0.00000000
 N      1   0   0     2.762379845591     0.00000000     0.00000000
 H      1   2   0     3.774532418600    97.79012319     0.00000000
 C      2   1   3     2.751263213054   107.88816626    62.47914268
 N      3   1   2     1.920956798626    43.40931772   253.67355731
 H      1   2   3     2.063594543268   110.21384567    90.70743424
 H      1   2   3     2.081873298034   111.72113543   213.08693439
 C      5   3   1     2.752472983787   110.74116291   113.01348162
 H      2   1   3     1.912077465063   114.90906262   191.90432150
 H      8   5   3     2.055045701556   111.74324202    37.02648198
 H      8   5   3     2.068829410490   107.65303329   156.09682691
 C      4   2   1     2.894579077999   108.06496470   221.91618093
 H      4   2   1     2.077083515052   112.11229983   102.45361403
 C     12   4   2     2.899805995348   111.78313460    41.07996816
 H     12   4   2     2.058525714438   110.80254403   162.86110668
 H     12   4   2     2.061029218238   108.22947135   281.97959969
 C     14  12   4     2.905684101192   111.88601128   321.66165765
 H      3   1   2     3.813622321950   126.28987316   358.49728325
 N     18   3   1     1.917669806985   143.91371245    25.71146796
 H     19  18   3     1.917803464089   106.19373014   102.56894588
 O     17  14  12     2.564533228251   111.72640032   282.44029310
 H     14  12   4     2.070928407277   107.96488309   205.51930942
 H     21  17  14     1.829992694315   108.85773455   189.84837249
 O     17  14  12     2.294881760302   123.29395737   122.51532517

---------------------
BASIS SET INFORMATION
---------------------
There are 4 groups of distinct atoms

 Group   1 Type C   : 10s4p1d contracted to 3s2p1d pattern {631/31/1}
 Group   2 Type N   : 10s4p1d contracted to 3s2p1d pattern {631/31/1}
 Group   3 Type H   : 4s1p contracted to 2s1p pattern {31/1}
 Group   4 Type O   : 10s4p1d contracted to 3s2p1d pattern {631/31/1}

Atom   0C    basis set group =>   1
Atom   1N    basis set group =>   2
Atom   2H    basis set group =>   3
Atom   3C    basis set group =>   1
Atom   4N    basis set group =>   2
Atom   5H    basis set group =>   3
Atom   6H    basis set group =>   3
Atom   7C    basis set group =>   1
Atom   8H    basis set group =>   3
Atom   9H    basis set group =>   3
Atom  10H    basis set group =>   3
Atom  11C    basis set group =>   1
Atom  12H    basis set group =>   3
Atom  13C    basis set group =>   1
Atom  14H    basis set group =>   3
Atom  15H    basis set group =>   3
Atom  16C    basis set group =>   1
Atom  17H    basis set group =>   3
Atom  18N    basis set group =>   2
Atom  19H    basis set group =>   3
Atom  20O    basis set group =>   4
Atom  21H    basis set group =>   3
Atom  22H    basis set group =>   3
Atom  23O    basis set group =>   4
------------------------------------------------------------------------------
                             ORCA STARTUP CALCULATIONS
------------------------------------------------------------------------------
------------------------------------------------------------------------------
                   ___                                                        
                  /   \      - P O W E R E D   B Y -                         
                 /     \                                                     
                 |  |  |   _    _      __       _____    __    __             
                 |  |  |  | |  | |    /  \     |  _  \  |  |  /  |          
                  \  \/   | |  | |   /    \    | | | |  |  | /  /          
                 / \  \   | |__| |  /  /\  \   | |_| |  |  |/  /          
                |  |  |   |  __  | /  /__\  \  |    /   |      \           
                |  |  |   | |  | | |   __   |  |    \   |  |\   \          
                \     /   | |  | | |  |  |  |  | |\  \  |  | \   \       
                 \___/    |_|  |_| |__|  |__|  |_| \__\ |__|  \__/        
                                                                              
                      - O R C A' S   B I G   F R I E N D -                    
                                      &                                       
                       - I N T E G R A L  F E E D E R -                       
                                                                              
 v1 FN, 2020, v2 2021, v3 2022-2024                                           
------------------------------------------------------------------------------


----------------------
SHARK INTEGRAL PACKAGE
----------------------

Number of atoms                             ...     24
Number of basis functions                   ...    219
Number of shells                            ...    105
Maximum angular momentum                    ...      2
Integral batch strategy                     ... SHARK/LIBINT Hybrid
RI-J (if used) integral strategy            ... SPLIT-RIJ (Revised 2003 algorithm where possible)
Printlevel                                  ...      1
Contraction scheme used                     ... SEGMENTED contraction
Prescreening option                         ... SCHWARTZ
   Thresh                                   ... 2.500e-11
   Tcut                                     ... 2.500e-12
   Tpresel                                  ... 2.500e-12 
Coulomb Range Separation                    ... NOT USED
Exchange Range Separation                   ... NOT USED
Multipole approximations                    ... NOT USED
Finite Nucleus Model                        ... NOT USED
CABS basis                                  ... NOT available
Auxiliary Coulomb fitting basis             ... NOT available
Auxiliary J/K fitting basis                 ... NOT available
Auxiliary Correlation fitting basis         ... NOT available
Auxiliary 'external' fitting basis          ... NOT available

Checking pre-screening integrals            ... done (  0.0 sec) Dimension = 105
   => SHARK Basis and OBASIS are compatible. Storing Pre-screening
Shell pair information
Shell pair cut-off parameter TPreSel        ...   2.5e-12
Total number of shell pairs                 ...      5565
Shell pairs after pre-screening             ...      5159
Total number of primitive shell pairs       ...     26835
Primitive shell pairs kept                  ...     16276
          la=0 lb=0:   1632 shell pairs
          la=1 lb=0:   1897 shell pairs
          la=1 lb=1:    575 shell pairs
          la=2 lb=0:    620 shell pairs
          la=2 lb=1:    369 shell pairs
          la=2 lb=2:     66 shell pairs

Checking whether 4 symmetric matrices of dimension 219 fit in memory
:Max Core in MB      =   4096.00
 MB in use           =      8.14
 MB left             =   4087.86
 MB needed           =      0.74
 Data fit in memory  = YES
Calculating Nuclear repulsion               ... done (  0.0 sec) ENN=    721.644287811114 Eh

Diagonalization of the overlap matrix:
Smallest eigenvalue                        ... 2.438e-03
Time for diagonalization                   ...    0.003 sec
Threshold for overlap eigenvalues          ... 1.000e-07
Number of eigenvalues below threshold      ... 0
Time for construction of square roots      ...    0.001 sec
Total time needed                          ...    0.004 sec

-------------------
DFT GRID GENERATION
-------------------

General Integration Accuracy     IntAcc      ... 4.388
Radial Grid Type                 RadialGrid  ... OptM3 with GC (2021)
Angular Grid (max. ang.)         AngularGrid ... 4 (Lebedev-302)
Angular grid pruning method      GridPruning ... 4 (adaptive)
Weight generation scheme         WeightScheme... mBecke (2022)
Basis function cutoff            BFCut       ... 1.0000e-11
Integration weight cutoff        WCut        ... 1.0000e-14
Partially contracted basis set               ... off
Rotationally invariant grid construction     ... off
Angular grids for H and He will be reduced by one unit

Total number of grid points                  ...   107015
Total number of batches                      ...     1683
Average number of points per batch           ...       63
Average number of grid points per atom       ...     4459
Grids setup in   0.5 sec
Initializing property integral containers    ... done (  0.0 sec)

SHARK setup successfully completed in   0.6 seconds

Maximum memory used throughout the entire STARTUP-calculation: 44.3 MB
-------------------------------------------------------------------------------
                                 ORCA GUESS
                   Start orbitals & Density for SCF / CASSCF
-------------------------------------------------------------------------------

------------
SCF SETTINGS
------------
Hamiltonian:
 Ab initio Hamiltonian  Method          .... Hartree-Fock(GTOs)


General Settings:
 Integral files         IntName         .... 2
 Hartree-Fock type      HFTyp           .... RHF
 Total Charge           Charge          ....    0
 Multiplicity           Mult            ....    1
 Number of Electrons    NEL             ....   86
 Basis Dimension        Dim             ....  219
 Nuclear Repulsion      ENuc            ....    721.6442878111 Eh

Convergence Acceleration:
 AO-DIIS                CNVDIIS         .... on
   Start iteration      DIISMaxIt       ....    12
   Startup error        DIISStart       ....  0.200000
   # of expansion vecs  DIISMaxEq       ....     5
   Bias factor          DIISBfac        ....   1.050
   Max. coefficient     DIISMaxC        ....  10.000
 MO-DIIS                CNVKDIIS        .... off
 Trust-Rad. Augm. Hess. CNVTRAH         .... auto
   Auto Start mean grad. ratio tolernc. ....  1.125000
   Auto Start start iteration           ....    50
   Auto Start num. interpolation iter.  ....    10
   Max. Number of Micro iterations      ....    24
   Max. Number of Macro iterations      .... Maxiter - #DIIS iter
   Number of Davidson start vectors     ....     2
   Converg. threshold    (grad. norm)   ....   1.000e-05
   Grad. Scal. Fac. for Micro threshold ....   0.100
   Minimum threshold for Micro iter.    ....   1.000e-02
   NR start threshold (gradient norm)   ....   1.000e-04
   Initial trust radius                 ....   0.400
   Minimum AH scaling param. (alpha)    ....   1.000
   Maximum AH scaling param. (alpha)    .... 1000.000
   Quad. conv. algorithm                .... NR
   White noise on init. David. guess    .... on
   Maximum white noise                  ....   0.010
   Pseudo random numbers                .... off
   Inactive MOs                         .... canonical
   Orbital update algorithm             .... Taylor
   Preconditioner                       .... Diag
   Full preconditioner red. dimension   ....   250
 SOSCF                 CNVSOSCF           .... on
   Start iteration     SOSCFMaxIt         ....   150
   Startup grad/error  SOSCFStart         ....  0.003300
   Hessian update      SOSCFHessUp        .... L-BFGS
   Autom. constraints  SOSCFAutoConstrain .... off
 Level Shifting         CNVShift        .... on
   Level shift para.    LevelShift      ....    0.2500
   Turn off err/grad.   ShiftErr        ....    0.0010
 Zerner damping         CNVZerner       .... off
 Static damping         CNVDamp         .... on
   Fraction old density DampFac         ....    0.7000
   Max. Damping (<1)    DampMax         ....    0.9800
   Min. Damping (>=0)   DampMin         ....    0.0000
   Turn off err/grad.   DampErr         ....    0.1000

SCF Procedure:
 Maximum # iterations   MaxIter         ....   125
 SCF integral mode      SCFMode         .... Direct
   Integral package                     .... SHARK and LIBINT hybrid scheme
 Reset frequency        DirectResetFreq ....    20
 Integral Threshold     Thresh          ....  2.500e-11 Eh
 Primitive CutOff       TCut            ....  2.500e-12 Eh

Convergence Tolerance:
 Convergence Check Mode ConvCheckMode   .... Total+1el-Energy
 Convergence forced     ConvForced      .... 1
 Energy Change          TolE            ....  1.000e-08 Eh
 1-El. energy change                    ....  1.000e-05 Eh
 Orbital Gradient       TolG            ....  1.000e-05
 Orbital Rotation angle TolX            ....  1.000e-05
 DIIS Error             TolErr          ....  5.000e-07

------------------------------
INITIAL GUESS: MODEL POTENTIAL
------------------------------
Loading Hartree-Fock densities                     ... done
Calculating cut-offs                               ... done
Initializing the effective Hamiltonian             ... done
Setting up the integral package (SHARK)            ... done
Starting the Coulomb interaction                   ... done (   0.1 sec)
Making the grid                                    ... done (   0.1 sec)
Mapping shells                                     ... done
Starting the XC term evaluation                    ... done (   0.1 sec)
Transforming the Hamiltonian                       ... done (   0.0 sec)
Diagonalizing the Hamiltonian                      ... done (   0.0 sec)
Back transforming the eigenvectors                 ... done (   0.0 sec)
Now organizing SCF variables                       ... done
                      ------------------
                      INITIAL GUESS DONE (   0.3 sec)
                      ------------------
             **** ENERGY FILE WAS UPDATED (2.en.tmp) ****
Finished Guess after   0.3 sec
Maximum memory used throughout the entire GUESS-calculation: 14.7 MB

-------------------------------------------------------------------------------------------
                                      ORCA LEAN-SCF
                              memory conserving SCF solver
-------------------------------------------------------------------------------------------

----------------------------------------D-I-I-S--------------------------------------------
Iteration    Energy (Eh)           Delta-E    RMSDP     MaxDP     DIISErr   Damp  Time(sec)
-------------------------------------------------------------------------------------------
               ***  Starting incremental Fock matrix formation  ***
    1    -547.3806618446427592     0.00e+00  2.36e-03  6.27e-02  2.45e-01  0.700   3.8
    2    -547.5479148371797464    -1.67e-01  1.76e-03  4.45e-02  1.53e-01  0.700   3.5
                               ***Turning on AO-DIIS***
    3    -547.6460517572321578    -9.81e-02  9.78e-04  2.12e-02  8.88e-02  0.700   3.5
    4    -547.7081632264561222    -6.21e-02  2.30e-03  4.72e-02  6.10e-02  0.000   3.5
    5    -547.8472300371923893    -1.39e-01  2.72e-04  4.73e-03  4.96e-03  0.000   3.6
                              *** Initializing SOSCF ***
---------------------------------------S-O-S-C-F--------------------------------------
Iteration    Energy (Eh)           Delta-E    RMSDP     MaxDP     MaxGrad    Time(sec)
--------------------------------------------------------------------------------------
    6    -547.8478265744848841    -5.97e-04  1.43e-04  2.58e-03  2.51e-03     3.3
               *** Restarting incremental Fock matrix formation ***
    7    -547.8479564047019039    -1.30e-04  7.81e-05  1.83e-03  1.26e-03     3.8
    8    -547.8479877514936334    -3.13e-05  7.48e-05  1.98e-03  4.67e-04     3.1
    9    -547.8479967497931966    -9.00e-06  1.36e-05  2.89e-04  1.87e-04     3.1
   10    -547.8479976642662450    -9.14e-07  4.82e-06  1.18e-04  3.21e-05     2.8
   11    -547.8479977483096945    -8.40e-08  2.16e-06  7.15e-05  1.22e-05     2.6
   12    -547.8479977669002210    -1.86e-08  5.01e-07  9.13e-06  2.85e-06     2.4
   13    -547.8479977697714958    -2.87e-09  1.88e-07  3.54e-06  1.25e-06     2.1
                 **** Energy Check signals convergence ****

               *****************************************************
               *                     SUCCESS                       *
               *           SCF CONVERGED AFTER  13 CYCLES          *
               *****************************************************

             **** ENERGY FILE WAS UPDATED (2.en.tmp) ****

----------------
TOTAL SCF ENERGY
----------------

Total Energy       :       -547.84799777132082 Eh          -14907.70191 eV

Components:
Nuclear Repulsion  :        721.64428781111440 Eh           19636.93939 eV
Electronic Energy  :      -1269.49228558243522 Eh          -34544.64131 eV
One Electron Energy:      -2181.61773363837665 Eh          -59364.83658 eV
Two Electron Energy:        912.12544805594143 Eh           24820.19528 eV

Virial components:
Potential Energy   :      -1095.23966190257443 Eh          -29802.98635 eV
Kinetic Energy     :        547.39166413125372 Eh           14895.28444 eV
Virial Ratio       :          2.00083365105823

---------------
SCF CONVERGENCE
---------------

  Last Energy change         ...    2.8713e-09  Tolerance :   1.0000e-08
  Last MAX-Density change    ...    3.5435e-06  Tolerance :   1.0000e-07
  Last RMS-Density change    ...    1.8811e-07  Tolerance :   5.0000e-09
  Last DIIS Error            ...    2.5074e-03  Tolerance :   5.0000e-07
  Last Orbital Gradient      ...    1.2484e-06  Tolerance :   1.0000e-05
  Last Orbital Rotation      ...    2.7574e-06  Tolerance :   1.0000e-05


----------------
ORBITAL ENERGIES
----------------

  NO   OCC          E(Eh)            E(eV) 
   0   2.0000     -20.592443      -560.3489 
   1   2.0000     -20.518388      -558.3337 
   2   2.0000     -15.560021      -423.4097 
   3   2.0000     -15.544460      -422.9863 
   4   2.0000     -15.543728      -422.9663 
   5   2.0000     -11.375789      -309.5509 
   6   2.0000     -11.275682      -306.8269 
   7   2.0000     -11.264311      -306.5175 
   8   2.0000     -11.262359      -306.4644 
   9   2.0000     -11.252034      -306.1834 
  10   2.0000     -11.225603      -305.4642 
  11   2.0000      -1.439852       -39.1804 
  12   2.0000      -1.334126       -36.3034 
  13   2.0000      -1.283393       -34.9229 
  14   2.0000      -1.191188       -32.4139 
  15   2.0000      -1.153880       -31.3987 
  16   2.0000      -1.047608       -28.5069 
  17   2.0000      -0.975482       -26.5442 
  18   2.0000      -0.899471       -24.4758 
  19   2.0000      -0.845362       -23.0035 
  20   2.0000      -0.806941       -21.9580 
  21   2.0000      -0.772079       -21.0093 
  22   2.0000      -0.722090       -19.6491 
  23   2.0000      -0.699359       -19.0305 
  24   2.0000      -0.678295       -18.4574 
  25   2.0000      -0.672217       -18.2920 
  26   2.0000      -0.653011       -17.7693 
  27   2.0000      -0.633775       -17.2459 
  28   2.0000      -0.607564       -16.5327 
  29   2.0000      -0.600786       -16.3482 
  30   2.0000      -0.566852       -15.4248 
  31   2.0000      -0.562433       -15.3046 
  32   2.0000      -0.549685       -14.9577 
  33   2.0000      -0.534158       -14.5352 
  34   2.0000      -0.524503       -14.2724 
  35   2.0000      -0.504650       -13.7322 
  36   2.0000      -0.495779       -13.4908 
  37   2.0000      -0.474254       -12.9051 
  38   2.0000      -0.460992       -12.5442 
  39   2.0000      -0.427864       -11.6428 
  40   2.0000      -0.399802       -10.8792 
  41   2.0000      -0.383909       -10.4467 
  42   2.0000      -0.367241        -9.9931 
  43   0.0000       0.202532         5.5112 
  44   0.0000       0.217531         5.9193 
  45   0.0000       0.229300         6.2396 
  46   0.0000       0.233699         6.3593 
  47   0.0000       0.266473         7.2511 
  48   0.0000       0.272938         7.4270 
  49   0.0000       0.282301         7.6818 
  50   0.0000       0.294646         8.0177 
  51   0.0000       0.310009         8.4358 
  52   0.0000       0.320557         8.7228 
  53   0.0000       0.334915         9.1135 
*Only the first 10 virtual orbitals were printed.

                    ********************************
                    * MULLIKEN POPULATION ANALYSIS *
                    ********************************

-----------------------
MULLIKEN ATOMIC CHARGES
-----------------------
   0 C :    0.181257
   1 N :   -0.746487
   2 H :    0.293174
   3 C :    0.060347
   4 N :   -0.633146
   5 H :    0.148911
   6 H :    0.109902
   7 C :   -0.071616
   8 H :    0.292798
   9 H :    0.138797
  10 H :    0.133600
  11 C :   -0.207269
  12 H :    0.121030
  13 C :   -0.036173
  14 H :    0.144957
  15 H :    0.128057
  16 C :    0.889762
  17 H :    0.265630
  18 N :   -0.678507
  19 H :    0.279115
  20 O :   -0.668210
  21 H :    0.161074
  22 H :    0.358294
  23 O :   -0.665296
Sum of atomic charges:    0.0000000

--------------------------------
MULLIKEN REDUCED ORBITAL CHARGES
--------------------------------
  0 C s       :     3.122200  s :     3.122200
      pz      :     0.996728  p :     2.615424
      px      :     0.737470
      py      :     0.881225
      dz2     :     0.008648  d :     0.081120
      dxz     :     0.019344
      dyz     :     0.018398
      dx2y2   :     0.022678
      dxy     :     0.012053

  1 N s       :     3.645721  s :     3.645721
      pz      :     1.553667  p :     4.063109
      px      :     1.353947
      py      :     1.155495
      dz2     :     0.004656  d :     0.037657
      dxz     :     0.004037
      dyz     :     0.010980
      dx2y2   :     0.011915
      dxy     :     0.006070

  2 H s       :     0.680438  s :     0.680438
      pz      :     0.014534  p :     0.026388
      px      :     0.008308
      py      :     0.003546

  3 C s       :     3.172582  s :     3.172582
      pz      :     1.022337  p :     2.698518
      px      :     0.934699
      py      :     0.741483
      dz2     :     0.018364  d :     0.068553
      dxz     :     0.008102
      dyz     :     0.010161
      dx2y2   :     0.018649
      dxy     :     0.013277

  4 N s       :     3.625928  s :     3.625928
      pz      :     1.154032  p :     3.965044
      px      :     1.741944
      py      :     1.069067
      dz2     :     0.006344  d :     0.042175
      dxz     :     0.011106
      dyz     :     0.009765
      dx2y2   :     0.005166
      dxy     :     0.009795

  5 H s       :     0.838765  s :     0.838765
      pz      :     0.005669  p :     0.012324
      px      :     0.001241
      py      :     0.005413

  6 H s       :     0.878592  s :     0.878592
      pz      :     0.005665  p :     0.011506
      px      :     0.004268
      py      :     0.001573

  7 C s       :     3.199427  s :     3.199427
      pz      :     0.967994  p :     2.809578
      px      :     0.921198
      py      :     0.920386
      dz2     :     0.006194  d :     0.062611
      dxz     :     0.016973
      dyz     :     0.016105
      dx2y2   :     0.013830
      dxy     :     0.009510

  8 H s       :     0.681714  s :     0.681714
      pz      :     0.009896  p :     0.025488
      px      :     0.006699
      py      :     0.008892

  9 H s       :     0.848627  s :     0.848627
      pz      :     0.003225  p :     0.012576
      px      :     0.001940
      py      :     0.007411

 10 H s       :     0.854450  s :     0.854450
      pz      :     0.005345  p :     0.011951
      px      :     0.005129
      py      :     0.001476

 11 C s       :     3.235542  s :     3.235542
      pz      :     0.915930  p :     2.924871
      px      :     0.961953
      py      :     1.046988
      dz2     :     0.011135  d :     0.046857
      dxz     :     0.011880
      dyz     :     0.005373
      dx2y2   :     0.012597
      dxy     :     0.005870

 12 H s       :     0.867001  s :     0.867001
      pz      :     0.009074  p :     0.011970
      px      :     0.001621
      py      :     0.001275

 13 C s       :     3.209105  s :     3.209105
      pz      :     0.896024  p :     2.757672
      px      :     1.044092
      py      :     0.817556
      dz2     :     0.018344  d :     0.069395
      dxz     :     0.009616
      dyz     :     0.013481
      dx2y2   :     0.021126
      dxy     :     0.006828

 14 H s       :     0.842412  s :     0.842412
      pz      :     0.001600  p :     0.012631
      px      :     0.001714
      py      :     0.009317

 15 H s       :     0.859383  s :     0.859383
      pz      :     0.004274  p :     0.012560
      px      :     0.005890
      py      :     0.002395

 16 C s       :     2.935425  s :     2.935425
      pz      :     0.611780  p :     2.029957
      px      :     0.607353
      py      :     0.810824
      dz2     :     0.030463  d :     0.144856
      dxz     :     0.024750
      dyz     :     0.027048
      dx2y2   :     0.028687
      dxy     :     0.033908

 17 H s       :     0.708332  s :     0.708332
      pz      :     0.003954  p :     0.026038
      px      :     0.015093
      py      :     0.006991

 18 N s       :     3.602018  s :     3.602018
      pz      :     1.165984  p :     4.041601
      px      :     1.187505
      py      :     1.688113
      dz2     :     0.009340  d :     0.034888
      dxz     :     0.003847
      dyz     :     0.008906
      dx2y2   :     0.007657
      dxy     :     0.005138

 19 H s       :     0.694909  s :     0.694909
      pz      :     0.013724  p :     0.025976
      px      :     0.005437
      py      :     0.006814

 20 O s       :     3.850488  s :     3.850488
      pz      :     1.797647  p :     4.792821
      px      :     1.683402
      py      :     1.311772
      dz2     :     0.003223  d :     0.024901
      dxz     :     0.004800
      dyz     :     0.005004
      dx2y2   :     0.005375
      dxy     :     0.006500

 21 H s       :     0.826694  s :     0.826694
      pz      :     0.001474  p :     0.012231
      px      :     0.009190
      py      :     0.001568

 22 H s       :     0.600109  s :     0.600109
      pz      :     0.010128  p :     0.041597
      px      :     0.007827
      py      :     0.023642

 23 O s       :     3.884687  s :     3.884687
      pz      :     1.459070  p :     4.750011
      px      :     1.509352
      py      :     1.781590
      dz2     :     0.009480  d :     0.030598
      dxz     :     0.007906
      dyz     :     0.004774
      dx2y2   :     0.004409
      dxy     :     0.004029



                     *******************************
                     * LOEWDIN POPULATION ANALYSIS *
                     *******************************

----------------------
LOEWDIN ATOMIC CHARGES
----------------------
   0 C :    0.035286
   1 N :   -0.206386
   2 H :    0.128323
   3 C :   -0.008036
   4 N :   -0.236137
   5 H :    0.073157
   6 H :    0.047356
   7 C :   -0.042381
   8 H :    0.133576
   9 H :    0.068547
  10 H :    0.064816
  11 C :   -0.112393
  12 H :    0.054899
  13 C :   -0.021699
  14 H :    0.076331
  15 H :    0.068809
  16 C :    0.246868
  17 H :    0.121520
  18 N :   -0.277773
  19 H :    0.133750
  20 O :   -0.238273
  21 H :    0.083531
  22 H :    0.189991
  23 O :   -0.383680

-------------------------------
LOEWDIN REDUCED ORBITAL CHARGES
-------------------------------
  0 C s       :     2.870753  s :     2.870753
      pz      :     1.039510  p :     2.931221
      px      :     0.905400
      py      :     0.986310
      dz2     :     0.017149  d :     0.162740
      dxz     :     0.038827
      dyz     :     0.034577
      dx2y2   :     0.046892
      dxy     :     0.025296

  1 N s       :     3.166147  s :     3.166147
      pz      :     1.477635  p :     3.963366
      px      :     1.328314
      py      :     1.157418
      dz2     :     0.008065  d :     0.076873
      dxz     :     0.010244
      dyz     :     0.019414
      dx2y2   :     0.024831
      dxy     :     0.014318

  2 H s       :     0.787038  s :     0.787038
      pz      :     0.044322  p :     0.084639
      px      :     0.028798
      py      :     0.011519

  3 C s       :     2.875013  s :     2.875013
      pz      :     1.051705  p :     2.992337
      px      :     1.032933
      py      :     0.907699
      dz2     :     0.034215  d :     0.140685
      dxz     :     0.015138
      dyz     :     0.023365
      dx2y2   :     0.038853
      dxy     :     0.029115

  4 N s       :     3.175629  s :     3.175629
      pz      :     1.160817  p :     3.979407
      px      :     1.690033
      py      :     1.128557
      dz2     :     0.015499  d :     0.081101
      dxz     :     0.014889
      dyz     :     0.022726
      dx2y2   :     0.011144
      dxy     :     0.016843

  5 H s       :     0.887314  s :     0.887314
      pz      :     0.017614  p :     0.039529
      px      :     0.004389
      py      :     0.017526

  6 H s       :     0.915232  s :     0.915232
      pz      :     0.017093  p :     0.037412
      px      :     0.013432
      py      :     0.006886

  7 C s       :     2.887384  s :     2.887384
      pz      :     1.021736  p :     3.033272
      px      :     1.011847
      py      :     0.999688
      dz2     :     0.012074  d :     0.121726
      dxz     :     0.032892
      dyz     :     0.030892
      dx2y2   :     0.026821
      dxy     :     0.019048

  8 H s       :     0.780743  s :     0.780743
      pz      :     0.034893  p :     0.085682
      px      :     0.022960
      py      :     0.027828

  9 H s       :     0.891418  s :     0.891418
      pz      :     0.010932  p :     0.040036
      px      :     0.006541
      py      :     0.022563

 10 H s       :     0.896421  s :     0.896421
      pz      :     0.016612  p :     0.038762
      px      :     0.015622
      py      :     0.006529

 11 C s       :     2.897546  s :     2.897546
      pz      :     1.015519  p :     3.124981
      px      :     1.040760
      py      :     1.068703
      dz2     :     0.022057  d :     0.089866
      dxz     :     0.023271
      dyz     :     0.010516
      dx2y2   :     0.022859
      dxy     :     0.011163

 12 H s       :     0.906185  s :     0.906185
      pz      :     0.026532  p :     0.038916
      px      :     0.006798
      py      :     0.005586

 13 C s       :     2.871681  s :     2.871681
      pz      :     0.994286  p :     3.011448
      px      :     1.045680
      py      :     0.971481
      dz2     :     0.037131  d :     0.138570
      dxz     :     0.018486
      dyz     :     0.027737
      dx2y2   :     0.041608
      dxy     :     0.013608

 14 H s       :     0.882967  s :     0.882967
      pz      :     0.006293  p :     0.040702
      px      :     0.006712
      py      :     0.027697

 15 H s       :     0.891037  s :     0.891037
      pz      :     0.013608  p :     0.040154
      px      :     0.017956
      py      :     0.008591

 16 C s       :     2.858264  s :     2.858264
      pz      :     0.793337  p :     2.578745
      px      :     0.813405
      py      :     0.972004
      dz2     :     0.061612  d :     0.316122
      dxz     :     0.060220
      dyz     :     0.058555
      dx2y2   :     0.060906
      dxy     :     0.074830

 17 H s       :     0.796117  s :     0.796117
      pz      :     0.012246  p :     0.082363
      px      :     0.046438
      py      :     0.023679

 18 N s       :     3.187336  s :     3.187336
      pz      :     1.178437  p :     4.028802
      px      :     1.189450
      py      :     1.660915
      dz2     :     0.017826  d :     0.061635
      dxz     :     0.009056
      dyz     :     0.013892
      dx2y2   :     0.013302
      dxy     :     0.007560

 19 H s       :     0.784789  s :     0.784789
      pz      :     0.041575  p :     0.081461
      px      :     0.016251
      py      :     0.023635

 20 O s       :     3.466726  s :     3.466726
      pz      :     1.761362  p :     4.725127
      px      :     1.667101
      py      :     1.296664
      dz2     :     0.005461  d :     0.046420
      dxz     :     0.007251
      dyz     :     0.008508
      dx2y2   :     0.012386
      dxy     :     0.012815

 21 H s       :     0.876946  s :     0.876946
      pz      :     0.006446  p :     0.039524
      px      :     0.027253
      py      :     0.005825

 22 H s       :     0.688513  s :     0.688513
      pz      :     0.031398  p :     0.121495
      px      :     0.025190
      py      :     0.064907

 23 O s       :     3.549267  s :     3.549267
      pz      :     1.494154  p :     4.779977
      px      :     1.527859
      py      :     1.757963
      dz2     :     0.011585  d :     0.054436
      dxz     :     0.018259
      dyz     :     0.009788
      dx2y2   :     0.006897
      dxy     :     0.007907



                      *****************************
                      * MAYER POPULATION ANALYSIS *
                      *****************************

  NA   - Mulliken gross atomic population
  ZA   - Total nuclear charge
  QA   - Mulliken gross atomic charge
  VA   - Mayer's total valence
  BVA  - Mayer's bonded valence
  FA   - Mayer's free valence

  ATOM       NA         ZA         QA         VA         BVA        FA
  0 C      5.8187     6.0000     0.1813     3.7091     3.7091     0.0000
  1 N      7.7465     7.0000    -0.7465     2.6629     2.6629     0.0000
  2 H      0.7068     1.0000     0.2932     0.9108     0.9108     0.0000
  3 C      5.9397     6.0000     0.0603     3.6786     3.6786    -0.0000
  4 N      7.6331     7.0000    -0.6331     2.7448     2.7448    -0.0000
  5 H      0.8511     1.0000     0.1489     0.9548     0.9548     0.0000
  6 H      0.8901     1.0000     0.1099     0.9445     0.9445    -0.0000
  7 C      6.0716     6.0000    -0.0716     3.7722     3.7722     0.0000
  8 H      0.7072     1.0000     0.2928     0.9012     0.9012    -0.0000
  9 H      0.8612     1.0000     0.1388     0.9527     0.9527    -0.0000
 10 H      0.8664     1.0000     0.1336     0.9448     0.9448    -0.0000
 11 C      6.2073     6.0000    -0.2073     3.7679     3.7679    -0.0000
 12 H      0.8790     1.0000     0.1210     0.9472     0.9472    -0.0000
 13 C      6.0362     6.0000    -0.0362     3.7555     3.7555    -0.0000
 14 H      0.8550     1.0000     0.1450     0.9519     0.9519     0.0000
 15 H      0.8719     1.0000     0.1281     0.9488     0.9488    -0.0000
 16 C      5.1102     6.0000     0.8898     3.5908     3.5908     0.0000
 17 H      0.7344     1.0000     0.2656     0.9144     0.9144    -0.0000
 18 N      7.6785     7.0000    -0.6785     2.7739     2.7739     0.0000
 19 H      0.7209     1.0000     0.2791     0.9042     0.9042    -0.0000
 20 O      8.6682     8.0000    -0.6682     1.7626     1.7626     0.0000
 21 H      0.8389     1.0000     0.1611     0.9415     0.9415     0.0000
 22 H      0.6417     1.0000     0.3583     0.8845     0.8845     0.0000
 23 O      8.6653     8.0000    -0.6653     1.8076     1.8076    -0.0000

  Mayer bond orders larger than 0.100000
B(  0-C ,  1-N ) :   0.8532 B(  0-C ,  4-N ) :   0.9621 B(  0-C ,  5-H ) :   0.9661 
B(  0-C ,  6-H ) :   0.9722 B(  1-N ,  3-C ) :   0.8854 B(  1-N ,  8-H ) :   0.8945 
B(  2-H ,  4-N ) :   0.8856 B(  3-C ,  7-C ) :   0.9415 B(  3-C , 11-C ) :   0.9668 
B(  3-C , 12-H ) :   0.9761 B(  4-N ,  7-C ) :   0.9431 B(  7-C ,  9-H ) :   0.9760 
B(  7-C , 10-H ) :   0.9719 B( 11-C , 13-C ) :   0.9533 B( 11-C , 14-H ) :   0.9668 
B( 11-C , 15-H ) :   0.9725 B( 13-C , 16-C ) :   0.9119 B( 13-C , 18-N ) :   0.9878 
B( 13-C , 21-H ) :   0.9637 B( 16-C , 20-O ) :   0.9067 B( 16-C , 23-O ) :   1.7112 
B( 17-H , 18-N ) :   0.9016 B( 18-N , 19-H ) :   0.9074 B( 20-O , 22-H ) :   0.8509 


-------
TIMINGS
-------

Total SCF time: 0 days 0 hours 0 min 42 sec 

Total time                  ....      42.805 sec
Sum of individual times     ....      40.937 sec  ( 95.6%)

SCF preparation             ....       0.019 sec  (  0.0%)
Fock matrix formation       ....      40.839 sec  ( 95.4%)
  Startup                   ....       0.001 sec  (  0.0% of F)
  Coulomb+Exchange Fock     ....      42.691 sec  (104.5% of F)
Diagonalization             ....       0.000 sec  (  0.0%)
Density matrix formation    ....       0.006 sec  (  0.0%)
Total Energy calculation    ....       0.001 sec  (  0.0%)
Population analysis         ....       0.003 sec  (  0.0%)
Orbital Transformation      ....       0.008 sec  (  0.0%)
Orbital Orthonormalization  ....       0.000 sec  (  0.0%)
DIIS solution               ....       0.036 sec  (  0.1%)
SOSCF solution              ....       0.023 sec  (  0.1%)
Finished LeanSCF after  42.8 sec

Maximum memory used throughout the entire LEANSCF-calculation: 18.3 MB

------------------------------------------------------------------------------
                                ORCA  MP2 
------------------------------------------------------------------------------

Freezing NCore=22 chemical core electrons
MP2 will be done in the AO integral direct mode
The Q1-step will be done using symmetric double matrices
Dimension of the basis                    ...  219
Memory devoted for MP2                    ... 4096 MB   
Memory needed for all in one shot         ... 1289 MB
Number of MOs that can be treated together...  100      
MP2 density construction                  ... relaxed
The MP2 gradient is requested => amplitudes will be stored on disk
Total number of MOs              ...   32
Number of MOs treated per batch  ...   32 
Number of batches necessary      ...    1 
OPERATORS   0/  0 PASS   0
-----------------------------------------------
 MP2 CORRELATION ENERGY   :     -1.691142790 Eh
-----------------------------------------------


---------------------
MP2 DENSITY FORMATION
---------------------

Completing the external part of the density      ... done
Storing the unrelaxed density                    ... done

Calculating G(D)                                 ... done
Completing the Lagrangian                        ... done
Solving the Z-vector equations                   ... 
-------------------
SHARK CP-SCF DRIVER
-------------------

Dimension of the orbital basis          ...    219
Dimension of the CPSCF-problem          ...   7568
Number of operators                     ...      1
Max. number of iterations               ...    128
Convergence Tolerance                   ... 1.0e-04
Number of perturbations                 ...      1
Perturbation type                       ... REAL

----------------------------
POPLE LINEAR EQUATION SOLVER
----------------------------

  ITERATION   0:   ||err||_max =   1.4636e-01 (   4.8 sec)
  ITERATION   1:   ||err||_max =   4.0111e-02 (   4.9 sec)
  ITERATION   2:   ||err||_max =   1.5935e-02 (   5.0 sec)
  ITERATION   3:   ||err||_max =   4.5051e-03 (   4.9 sec)
  ITERATION   4:   ||err||_max =   1.6085e-03 (   5.0 sec)
  ITERATION   5:   ||err||_max =   5.5676e-04 (   4.9 sec)
  ITERATION   6:   ||err||_max =   2.0845e-04 (   5.0 sec)
  ITERATION   7:   ||err||_max =   7.1295e-05 (   4.9 sec)
                                                 ... done
Finalizing the relaxed density                   ... done
Transforming P to the AO basis                   ... done
Storing the relaxed density                      ... done

------------------------------------
ENERGY WEIGHTED DENSITY FINALIZATION
------------------------------------

Gathering the parts of the W-matrix              ...                                                      done
Forming the Z-density                            ... done
Transforming Z to the AO basis                   ... done
Calculating G(Z)                                 ... done
Finalizing the W-matrix                          ...                                                      done
Transforming W to the AO basis and storing       ... done

                *********************************************
                * UNRELAXED MP2 DENSITY POPULATION ANALYSIS *
                *********************************************

------------------------------------------------------------------------------
                           ORCA POPULATION ANALYSIS
------------------------------------------------------------------------------
Input electron density              ... 2.pmp2ur
BaseName (.gbw .S,...)              ... 2

                    ********************************
                    * MULLIKEN POPULATION ANALYSIS *
                    ********************************

-----------------------
MULLIKEN ATOMIC CHARGES
-----------------------
   0 C :    0.170168
   1 N :   -0.731377
   2 H :    0.290898
   3 C :    0.053910
   4 N :   -0.622035
   5 H :    0.149435
   6 H :    0.110922
   7 C :   -0.077647
   8 H :    0.291236
   9 H :    0.139653
  10 H :    0.134487
  11 C :   -0.209170
  12 H :    0.121925
  13 C :   -0.041417
  14 H :    0.145576
  15 H :    0.128984
  16 C :    0.852426
  17 H :    0.263753
  18 N :   -0.670333
  19 H :    0.277777
  20 O :   -0.654806
  21 H :    0.161691
  22 H :    0.354948
  23 O :   -0.641005
Sum of atomic charges:    0.0000000

--------------------------------
MULLIKEN REDUCED ORBITAL CHARGES
--------------------------------
  0 C s       :     3.120877  s :     3.120877
      pz      :     0.994186  p :     2.614072
      px      :     0.739603
      py      :     0.880283
      dz2     :     0.011707  d :     0.094883
      dxz     :     0.021942
      dyz     :     0.021078
      dx2y2   :     0.025141
      dxy     :     0.015015
  1 N s       :     3.639751  s :     3.639751
      pz      :     1.539579  p :     4.029247
      px      :     1.342134
      py      :     1.147534
      dz2     :     0.009748  d :     0.062378
      dxz     :     0.009352
      dyz     :     0.015798
      dx2y2   :     0.016373
      dxy     :     0.011106
  2 H s       :     0.680608  s :     0.680608
      pz      :     0.014843  p :     0.028493
      px      :     0.009203
      py      :     0.004447
  3 C s       :     3.169612  s :     3.169612
      pz      :     1.018337  p :     2.692200
      px      :     0.930597
      py      :     0.743265
      dz2     :     0.021313  d :     0.084279
      dxz     :     0.011539
      dyz     :     0.013324
      dx2y2   :     0.021589
      dxy     :     0.016514
  4 N s       :     3.620609  s :     3.620609
      pz      :     1.147328  p :     3.936215
      px      :     1.726401
      py      :     1.062486
      dz2     :     0.010969  d :     0.065211
      dxz     :     0.015761
      dyz     :     0.013877
      dx2y2   :     0.010042
      dxy     :     0.014562
  5 H s       :     0.835565  s :     0.835565
      pz      :     0.006468  p :     0.015000
      px      :     0.002303
      py      :     0.006229
  6 H s       :     0.874741  s :     0.874741
      pz      :     0.006507  p :     0.014337
      px      :     0.005213
      py      :     0.002617
  7 C s       :     3.196958  s :     3.196958
      pz      :     0.965488  p :     2.802874
      px      :     0.918930
      py      :     0.918456
      dz2     :     0.009512  d :     0.077815
      dxz     :     0.019839
      dyz     :     0.018839
      dx2y2   :     0.016910
      dxy     :     0.012715
  8 H s       :     0.681297  s :     0.681297
      pz      :     0.010549  p :     0.027466
      px      :     0.007437
      py      :     0.009480
  9 H s       :     0.845009  s :     0.845009
      pz      :     0.004182  p :     0.015338
      px      :     0.003000
      py      :     0.008156
 10 H s       :     0.850773  s :     0.850773
      pz      :     0.006206  p :     0.014740
      px      :     0.006012
      py      :     0.002522
 11 C s       :     3.232271  s :     3.232271
      pz      :     0.912865  p :     2.913570
      px      :     0.958240
      py      :     1.042465
      dz2     :     0.014256  d :     0.063329
      dxz     :     0.015179
      dyz     :     0.008831
      dx2y2   :     0.015832
      dxy     :     0.009231
 12 H s       :     0.863270  s :     0.863270
      pz      :     0.009775  p :     0.014805
      px      :     0.002670
      py      :     0.002359
 13 C s       :     3.205949  s :     3.205949
      pz      :     0.893093  p :     2.750455
      px      :     1.039907
      py      :     0.817455
      dz2     :     0.021271  d :     0.085013
      dxz     :     0.012912
      dyz     :     0.016779
      dx2y2   :     0.023918
      dxy     :     0.010135
 14 H s       :     0.839064  s :     0.839064
      pz      :     0.002656  p :     0.015359
      px      :     0.002756
      py      :     0.009947
 15 H s       :     0.855649  s :     0.855649
      pz      :     0.005213  p :     0.015367
      px      :     0.006747
      py      :     0.003406
 16 C s       :     2.937562  s :     2.937562
      pz      :     0.623807  p :     2.054599
      px      :     0.618185
      py      :     0.812607
      dz2     :     0.032231  d :     0.155412
      dxz     :     0.026535
      dyz     :     0.029567
      dx2y2   :     0.030949
      dxy     :     0.036131
 17 H s       :     0.708043  s :     0.708043
      pz      :     0.004863  p :     0.028204
      px      :     0.015401
      py      :     0.007940
 18 N s       :     3.597301  s :     3.597301
      pz      :     1.159761  p :     4.016126
      px      :     1.181447
      py      :     1.674918
      dz2     :     0.013723  d :     0.056906
      dxz     :     0.008079
      dyz     :     0.013282
      dx2y2   :     0.012167
      dxy     :     0.009655
 19 H s       :     0.694229  s :     0.694229
      pz      :     0.014097  p :     0.027994
      px      :     0.006198
      py      :     0.007699
 20 O s       :     3.846204  s :     3.846204
      pz      :     1.785080  p :     4.760493
      px      :     1.671495
      py      :     1.303918
      dz2     :     0.007897  d :     0.048108
      dxz     :     0.009394
      dyz     :     0.009678
      dx2y2   :     0.010146
      dxy     :     0.010992
 21 H s       :     0.823358  s :     0.823358
      pz      :     0.002501  p :     0.014951
      px      :     0.009826
      py      :     0.002624
 22 H s       :     0.602207  s :     0.602207
      pz      :     0.010744  p :     0.042845
      px      :     0.008481
      py      :     0.023619
 23 O s       :     3.879994  s :     3.879994
      pz      :     1.446028  p :     4.707821
      px      :     1.495232
      py      :     1.766560
      dz2     :     0.013991  d :     0.053190
      dxz     :     0.012077
      dyz     :     0.009403
      dx2y2   :     0.009050
      dxy     :     0.008668


                     *******************************
                     * LOEWDIN POPULATION ANALYSIS *
                     *******************************

----------------------
LOEWDIN ATOMIC CHARGES
----------------------
   0 C :    0.030237
   1 N :   -0.199086
   2 H :    0.127133
   3 C :   -0.011538
   4 N :   -0.230279
   5 H :    0.073360
   6 H :    0.047791
   7 C :   -0.045092
   8 H :    0.132818
   9 H :    0.068866
  10 H :    0.065116
  11 C :   -0.112650
  12 H :    0.055269
  13 C :   -0.025322
  14 H :    0.076475
  15 H :    0.069049
  16 C :    0.220680
  17 H :    0.120411
  18 N :   -0.272994
  19 H :    0.132992
  20 O :   -0.230082
  21 H :    0.083601
  22 H :    0.187453
  23 O :   -0.364209

-------------------------------
LOEWDIN REDUCED ORBITAL CHARGES
-------------------------------
  0 C s       :     2.870925  s :     2.870925
      pz      :     1.034970  p :     2.920516
      px      :     0.903409
      py      :     0.982137
      dz2     :     0.020531  d :     0.178321
      dxz     :     0.041751
      dyz     :     0.037821
      dx2y2   :     0.049720
      dxy     :     0.028497
  1 N s       :     3.164695  s :     3.164695
      pz      :     1.463910  p :     3.930070
      px      :     1.316883
      py      :     1.149278
      dz2     :     0.013552  d :     0.104321
      dxz     :     0.016102
      dyz     :     0.024896
      dx2y2   :     0.030240
      dxy     :     0.019530
  2 H s       :     0.784305  s :     0.784305
      pz      :     0.045944  p :     0.088561
      px      :     0.029964
      py      :     0.012653
  3 C s       :     2.875259  s :     2.875259
      pz      :     1.045900  p :     2.977403
      px      :     1.026419
      py      :     0.905084
      dz2     :     0.037842  d :     0.158876
      dxz     :     0.019076
      dyz     :     0.026856
      dx2y2   :     0.042417
      dxy     :     0.032685
  4 N s       :     3.174190  s :     3.174190
      pz      :     1.153700  p :     3.949541
      px      :     1.674789
      py      :     1.121052
      dz2     :     0.020492  d :     0.106547
      dxz     :     0.020073
      dyz     :     0.027392
      dx2y2   :     0.016474
      dxy     :     0.022116
  5 H s       :     0.882518  s :     0.882518
      pz      :     0.019175  p :     0.044122
      px      :     0.005711
      py      :     0.019236
  6 H s       :     0.909989  s :     0.909989
      pz      :     0.018868  p :     0.042220
      px      :     0.015061
      py      :     0.008291
  7 C s       :     2.887199  s :     2.887199
      pz      :     1.017046  p :     3.018795
      px      :     1.006794
      py      :     0.994956
      dz2     :     0.015573  d :     0.139098
      dxz     :     0.036370
      dyz     :     0.034263
      dx2y2   :     0.030285
      dxy     :     0.022608
  8 H s       :     0.777645  s :     0.777645
      pz      :     0.036286  p :     0.089536
      px      :     0.024029
      py      :     0.029221
  9 H s       :     0.886355  s :     0.886355
      pz      :     0.012427  p :     0.044780
      px      :     0.007881
      py      :     0.024472
 10 H s       :     0.891359  s :     0.891359
      pz      :     0.018367  p :     0.043525
      px      :     0.017256
      py      :     0.007902
 11 C s       :     2.897185  s :     2.897185
      pz      :     1.009640  p :     3.106444
      px      :     1.034464
      py      :     1.062340
      dz2     :     0.025810  d :     0.109021
      dxz     :     0.027163
      dyz     :     0.014309
      dx2y2   :     0.026762
      dxy     :     0.014978
 12 H s       :     0.900730  s :     0.900730
      pz      :     0.028747  p :     0.044001
      px      :     0.008212
      py      :     0.007042
 13 C s       :     2.872020  s :     2.872020
      pz      :     0.988826  p :     2.996559
      px      :     1.040017
      py      :     0.967716
      dz2     :     0.040597  d :     0.156743
      dxz     :     0.022183
      dyz     :     0.031642
      dx2y2   :     0.044997
      dxy     :     0.017324
 14 H s       :     0.878066  s :     0.878066
      pz      :     0.007627  p :     0.045459
      px      :     0.008049
      py      :     0.029783
[...]
      dxz     :     0.013142
      dyz     :     0.020868
      dx2y2   :     0.030711
      dxy     :     0.015932
  2 H s       :     0.789646  s :     0.789646
      pz      :     0.041412  p :     0.087737
      px      :     0.032761
      py      :     0.013565
  3 C s       :     2.882399  s :     2.882399
      pz      :     1.055177  p :     2.997223
      px      :     1.026361
      py      :     0.915684
      dz2     :     0.032149  d :     0.148519
      dxz     :     0.019986
      dyz     :     0.024039
      dx2y2   :     0.041919
      dxy     :     0.030426
  4 N s       :     3.193457  s :     3.193457
      pz      :     1.167115  p :     3.917835
      px      :     1.627047
      py      :     1.123673
      dz2     :     0.016183  d :     0.103045
      dxz     :     0.021889
      dyz     :     0.028168
      dx2y2   :     0.016985
      dxy     :     0.019820
  5 H s       :     0.890006  s :     0.890006
      pz      :     0.014065  p :     0.042727
      px      :     0.006220
      py      :     0.022441
  6 H s       :     0.910629  s :     0.910629
      pz      :     0.018169  p :     0.042611
      px      :     0.017242
      py      :     0.007200
  7 C s       :     2.893767  s :     2.893767
      pz      :     1.033612  p :     3.044103
      px      :     1.016377
      py      :     0.994114
      dz2     :     0.011905  d :     0.129489
      dxz     :     0.033933
      dyz     :     0.033055
      dx2y2   :     0.026612
      dxy     :     0.023984
  8 H s       :     0.788378  s :     0.788378
      pz      :     0.041324  p :     0.085599
      px      :     0.020697
      py      :     0.023578
  9 H s       :     0.876552  s :     0.876552
      pz      :     0.015092  p :     0.045956
      px      :     0.008922
      py      :     0.021942
 10 H s       :     0.889770  s :     0.889770
      pz      :     0.016947  p :     0.043715
      px      :     0.017273
      py      :     0.009496
 11 C s       :     2.901515  s :     2.901515
      pz      :     1.003400  p :     3.115229
      px      :     1.042400
      py      :     1.069429
      dz2     :     0.026152  d :     0.103717
      dxz     :     0.024346
      dyz     :     0.013658
      dx2y2   :     0.023999
      dxy     :     0.015563
 12 H s       :     0.900288  s :     0.900288
      pz      :     0.026816  p :     0.044269
      px      :     0.008555
      py      :     0.008898
 13 C s       :     2.875092  s :     2.875092
      pz      :     1.006202  p :     3.024153
      px      :     1.038253
      py      :     0.979697
      dz2     :     0.040297  d :     0.148574
      dxz     :     0.020464
      dyz     :     0.029950
      dx2y2   :     0.039553
      dxy     :     0.018309
 14 H s       :     0.879049  s :     0.879049
      pz      :     0.008418  p :     0.044744
      px      :     0.008540
      py      :     0.027787
 15 H s       :     0.881495  s :     0.881495
      pz      :     0.013697  p :     0.044731
      px      :     0.018380
      py      :     0.012654
 16 C s       :     2.860868  s :     2.860868
      pz      :     0.843570  p :     2.678050
      px      :     0.869031
      py      :     0.965448
      dz2     :     0.048671  d :     0.306960
      dxz     :     0.056613
      dyz     :     0.057836
      dx2y2   :     0.067457
      dxy     :     0.076382
 17 H s       :     0.790715  s :     0.790715
      pz      :     0.017673  p :     0.085777
      px      :     0.040682
      py      :     0.027422
 18 N s       :     3.202634  s :     3.202634
      pz      :     1.240891  p :     3.979758
      px      :     1.178317
      py      :     1.560551
      dz2     :     0.017180  d :     0.082607
      dxz     :     0.020613
      dyz     :     0.013894
      dx2y2   :     0.012600
      dxy     :     0.018320
 19 H s       :     0.785449  s :     0.785449
      pz      :     0.039148  p :     0.083746
      px      :     0.021464
      py      :     0.023133
 20 O s       :     3.477246  s :     3.477246
      pz      :     1.709018  p :     4.620537
      px      :     1.625126
      py      :     1.286393
      dz2     :     0.011068  d :     0.072434
      dxz     :     0.012586
      dyz     :     0.012918
      dx2y2   :     0.017447
      dxy     :     0.018415
 21 H s       :     0.868006  s :     0.868006
      pz      :     0.008561  p :     0.044711
      px      :     0.027786
      py      :     0.008363
 22 H s       :     0.692036  s :     0.692036
      pz      :     0.030740  p :     0.120585
      px      :     0.026756
      py      :     0.063088
 23 O s       :     3.559814  s :     3.559814
      pz      :     1.429137  p :     4.609069
      px      :     1.467269
      py      :     1.712663
      dz2     :     0.015033  d :     0.078153
      dxz     :     0.022116
      dyz     :     0.013008
      dx2y2   :     0.013454
      dxy     :     0.014543


                      *****************************
                      * MAYER POPULATION ANALYSIS *
                      *****************************

  NA   - Mulliken gross atomic population
  ZA   - Total nuclear charge
  QA   - Mulliken gross atomic charge
  VA   - Mayer's total valence
  BVA  - Mayer's bonded valence
  FA   - Mayer's free valence

  ATOM       NA         ZA         QA         VA         BVA        FA
  0 C      5.9192     6.0000     0.0808     3.9026     3.6442     0.2584
  1 N      7.5812     7.0000    -0.5812     2.9836     2.6304     0.3532
  2 H      0.7306     1.0000     0.2694     0.9313     0.8831     0.0482
  3 C      5.9860     6.0000     0.0140     3.8859     3.6018     0.2842
  4 N      7.5272     7.0000    -0.5272     3.0518     2.7098     0.3420
  5 H      0.8772     1.0000     0.1228     0.9599     0.9136     0.0463
  6 H      0.8997     1.0000     0.1003     0.9521     0.9036     0.0486
  7 C      6.1163     6.0000    -0.1163     3.9015     3.6342     0.2673
  8 H      0.7445     1.0000     0.2555     0.9229     0.8745     0.0484
  9 H      0.8550     1.0000     0.1450     0.9674     0.9209     0.0465
 10 H      0.8781     1.0000     0.1219     0.9560     0.9080     0.0480
 11 C      6.1732     6.0000    -0.1732     3.8945     3.6250     0.2694
 12 H      0.8978     1.0000     0.1022     0.9560     0.9048     0.0511
 13 C      6.0829     6.0000    -0.0829     3.9183     3.6416     0.2766
 14 H      0.8742     1.0000     0.1258     0.9630     0.9136     0.0493
 15 H      0.8809     1.0000     0.1191     0.9614     0.9115     0.0499
 16 C      5.3712     6.0000     0.6288     3.9194     3.6442     0.2752
 17 H      0.7428     1.0000     0.2572     0.9295     0.8827     0.0468
 18 N      7.6099     7.0000    -0.6099     3.0324     2.7076     0.3248
 19 H      0.7405     1.0000     0.2595     0.9154     0.8690     0.0464
 20 O      8.5279     8.0000    -0.5279     2.2005     1.8496     0.3508
 21 H      0.8532     1.0000     0.1468     0.9521     0.9033     0.0487
 22 H      0.6601     1.0000     0.3399     0.9052     0.8614     0.0439
 23 O      8.4703     8.0000    -0.4703     2.2967     1.9070     0.3897

  Mayer bond orders larger than 0.100000
B(  0-C ,  1-N ) :   0.8614 B(  0-C ,  4-N ) :   0.9523 B(  0-C ,  5-H ) :   0.9267 
B(  0-C ,  6-H ) :   0.9189 B(  1-N ,  3-C ) :   0.9004 B(  1-N ,  8-H ) :   0.8644 
B(  2-H ,  4-N ) :   0.8434 B(  3-C ,  7-C ) :   0.8949 B(  3-C , 11-C ) :   0.9279 
B(  3-C , 12-H ) :   0.9196 B(  4-N ,  7-C ) :   0.9276 B(  7-C ,  9-H ) :   0.9207 
B(  7-C , 10-H ) :   0.9242 B( 11-C , 13-C ) :   0.9129 B( 11-C , 14-H ) :   0.9145 
B( 11-C , 15-H ) :   0.9171 B( 13-C , 16-C ) :   0.8760 B( 13-C , 18-N ) :   0.9632 
B( 13-C , 21-H ) :   0.9104 B( 16-C , 20-O ) :   0.9859 B( 16-C , 23-O ) :   1.7493 
B( 17-H , 18-N ) :   0.8585 B( 18-N , 19-H ) :   0.8729 B( 20-O , 22-H ) :   0.8149 



----------------------------------
MP2 DERIVATIVE INTEGRAL GENERATION
----------------------------------

Input SCF Electron Density              ... 2.scfp
Input Correlated Electron Density       ... 2.pmp2re
Input Energy Weighted Density           ... 2.wmp2.tmp
Input Wavefunction Amplitudes           ... 2.mp2tsaa.tmp

Nuclear repulsion gradient              ... done (  0.0 sec)
HCore & Overlap gradient  (SHARK)       ... done (  0.2 sec)
Analytic two-electron gradient terms    ... 
  Batch handling in the gradient evaluation:
  General contraction                   ... not used
  Memory available                      ... 4077.4 MB
  Memory per occupied orbital in Q2     ...   11.7 MB
  Memory per occupied orbital in Q3     ...    0.0 MB
  Total memory requirement per |i>      ...   11.8 MB
  Number of orbitals treated per batch  ...     32
  Number of batches to be done          ...      1
done ( 42.1 sec)

---------------------------------------
MP2 TOTAL ENERGY:     -549.550671542 Eh
---------------------------------------

The final MP2 gradient
  0:  -0.00000352  -0.00000577   0.00001159
  1:  -0.00000240   0.00004793   0.00002410
  2:  -0.00003223   0.00000914  -0.00000749
  3:   0.00002830  -0.00010178  -0.00004656
  4:   0.00004780  -0.00002009   0.00001353
  5:  -0.00000072   0.00001531  -0.00002727
  6:   0.00000662  -0.00002221   0.00000018
  7:  -0.00000910   0.00002738   0.00000950
  8:  -0.00002682   0.00001246   0.00000997
  9:   0.00000172   0.00000276  -0.00000957
 10:   0.00000097   0.00001102  -0.00000383
 11:  -0.00003883   0.00003199   0.00008289
 12:   0.00000416   0.00000623  -0.00000042
 13:   0.00000438  -0.00004614  -0.00003964
 14:   0.00000080   0.00000073  -0.00001616
 15:   0.00001944   0.00000215  -0.00002861
 16:   0.00000801   0.00000984   0.00005143
 17:  -0.00001264  -0.00000860  -0.00001941
 18:  -0.00001502   0.00004384   0.00003246
 19:   0.00001267  -0.00001715  -0.00000109
 20:   0.00002589  -0.00001742  -0.00000152
 21:  -0.00000046   0.00001130  -0.00001074
 22:  -0.00000277   0.00000137   0.00000540
 23:  -0.00001627   0.00000569  -0.00002875

-----------------------------------
NORM OF THE MP2 GRADIENT:  0.000220
-----------------------------------

Maximum memory used throughout the entire MP2-calculation: 1373.7 MB

-------------------------   --------------------
FINAL SINGLE POINT ENERGY      -549.550671542098
-------------------------   --------------------

                                *** OPTIMIZATION RUN DONE ***


------------------------------------------------------------------------------
                              ORCA PROPERTY CALCULATIONS
------------------------------------------------------------------------------

GBWName                                 ... 2.gbw
Number of atoms                         ...     24
Number of basis functions               ...    219
Max core memory                         ...   4096 MB

Electric properties:
Dipole moment                           ... YES
Quadrupole moment                       ...  NO
Static polarizability (Dipole/Dipole)   ...  NO
Static polarizability (Dipole/Quad.)    ...  NO
Static polarizability (Quad./Quad.)     ...  NO
Static polarizability (Velocity)        ...  NO
Static hyperpolarizability              ...  NO

Atomic electric properties:
Dipole moment                           ...  NO
Quadrupole moment                       ...  NO
Static polarizability                   ...  NO

Choice of electric origin               ... Center of mass
Position of electric origin             ...   -13.003451     5.992973    -0.499339

General magnetic properties:
Magnetizability                         ...  NO

EPR properties:
g-Tensor (aka g-matrix)                 ...  NO
Zero-Field splitting spin-orbit         ...  NO
Zero-field splitting spin-spin          ...  NO
Hyperfine couplings                     ...  NO (   0 nuclei)
Quadrupole couplings                    ...  NO (   0 nuclei)
Contact density                         ...  NO (   0 nuclei)

NMR properties:
Chemical shifts                         ...  NO (   0 nuclei)
Spin-rotation constants                 ...  NO (   0 nuclei)
Spin-spin couplings                     ...  NO (   0 nuclei,    0 pairs)

Choice of magnetic origin               ... GIAO
Position of magnetic origin             ...     0.000000     0.000000     0.000000

Properties with geometric perturbations:
SCF Hessian                             ...  NO
IR spectrum                             ...  NO
VCD spectrum                            ...  NO
X-ray spectroscopy properties:
SCF XES/XAS/RIXS spectra                ...  NO

SCF SOC stabilization energy            ...  NO
Diagonal Born-Oppenheimer correction    ...  NO

-------------
DIPOLE MOMENT
-------------

Method             : SCF
Type of density    : Electron Density
Multiplicity       :   1
Irrep              :   0
Energy             :  -547.8617622373631093 Eh
Basis              : AO
                                X                 Y                 Z
Electronic contribution:      3.340629306      -4.102288966      -3.743319984
Nuclear contribution   :     -2.546971028       3.827379274       4.436931613
                        -----------------------------------------
Total Dipole Moment    :      0.793658278      -0.274909691       0.693611629
                        -----------------------------------------
Magnitude (a.u.)       :      1.089296054
Magnitude (Debye)      :      2.768770531



--------------------
Rotational spectrum 
--------------------
 
Rotational constants in cm-1:             0.050778             0.033684             0.030187 
Rotational constants in MHz :          1522.292343          1009.830623           904.986769 

Dipole components along the rotational axes: 
x,y,z [a.u.] :    -0.350483     0.208837     1.010007 
x,y,z [Debye]:    -0.890856     0.530821     2.567235 

 

-------------
DIPOLE MOMENT
-------------

Method             : MP2
Type of density    : Electron Density
Multiplicity       :   1
Level              : Unrelaxed density
Irrep              :   0
Energy             :     0.0000000000000000 Eh
Basis              : AO
                                X                 Y                 Z
Electronic contribution:      3.316458861      -4.122848671      -3.774262036
Nuclear contribution   :     -2.546971028       3.827379274       4.436931613
                        -----------------------------------------
Total Dipole Moment    :      0.769487833      -0.295469397       0.662669577
                        -----------------------------------------
Magnitude (a.u.)       :      1.057612716
Magnitude (Debye)      :      2.688237887



--------------------
Rotational spectrum 
--------------------
 
Rotational constants in cm-1:             0.050778             0.033684             0.030187 
Rotational constants in MHz :          1522.292343          1009.830623           904.986769 

Dipole components along the rotational axes: 
x,y,z [a.u.] :    -0.346812     0.231316     0.971987 
x,y,z [Debye]:    -0.881525     0.587959     2.470595 

 

-------------
DIPOLE MOMENT
-------------

Method             : MP2
Type of density    : Electron Density
Multiplicity       :   1
Level              : Relaxed density
Irrep              :   0
Energy             :     0.0000000000000000 Eh
Basis              : AO
                                X                 Y                 Z
Electronic contribution:      3.238642651      -4.217295115      -3.894730687
Nuclear contribution   :     -2.546971028       3.827379274       4.436931613
                        -----------------------------------------
Total Dipole Moment    :      0.691671623      -0.389915841       0.542200926
                        -----------------------------------------
Magnitude (a.u.)       :      0.961470666
Magnitude (Debye)      :      2.443864216



--------------------
Rotational spectrum 
--------------------
 
Rotational constants in cm-1:             0.050778             0.033684             0.030187 
Rotational constants in MHz :          1522.292343          1009.830623           904.986769 

Dipole components along the rotational axes: 
x,y,z [a.u.] :    -0.347531     0.331857     0.832778 
x,y,z [Debye]:    -0.883354     0.843513     2.116753 

 

Dipole moment calculation done in   0.0 sec 

Maximum memory used throughout the entire PROP-calculation: 13.6 MB

--------------------------------
SUGGESTED CITATIONS FOR THIS RUN
--------------------------------

Below you find a list of papers that are relevant to this ORCA run
We neither can nor want to force you to cite these papers, but we appreciate if you do
You receive ORCA, which is the product of decades of hard work by many enthusiastic individuals, for free
The only thing we kindly ask in return is that you cite our papers,
We deeply appreciate it, if you show your appreciation for ORCA by not just citing the generic ORCA reference.

Please note that relegating all ORCA citations to the supporting information does *not* help us.
SI sections are not indexed - citations you put there will not count into any citation statistics
But we need these citations in order to attract the funding resources that allow us to do what we are doing

Therefore, if you are a happy ORCA user, please consider citing a few of the papers listed below in the main body of your paper

In addition to the list printed below, the program has created the file 2.bibtex that contains the list in bibtex format
You can import this file easily into all common literature databanks and citation aid programs


List of essential papers. We consider these as the minimum necessary citations

  1. Neese, F.
     Software update: the ORCA program system, version 6.0
     WIRES Comput. Molec. Sci. 2025 15(1), e70019
     doi.org/10.1002/wcms.7019

List of papers to cite with high priority. The work reported in these papers was absolutely
necessary for this run to complete.
Our perspective: the developers of density functionals and basis sets usually get cited in chemistry papers
Good! But without the algorithms to do something with them, the functionals or basis sets would not do anything.
Hence, in our opinion, the algorithm design and method developments papers are equally worthy of getting cited

  1. Neese, F.
     The SHARK Integral Generation and Digestion System
     J. Comp. Chem. 2022 44(3), 381
     doi.org/10.1002/jcc.26942

List of suggested additional citations. These are papers that are important in the 'surrounding' of 
of this run, or papers that preceded the highly important papers. If you like your results we are grateful for a citation.

  1. Neese, F.
     The ORCA program system
     WIRES Comput. Molec. Sci. 2012 2(1), 73-78
     doi.org/10.1002/wcms.81
  2. Neese, F.
     Software update: the ORCA program system, version 4.0
     WIRES Comput. Molec. Sci. 2018 8(1), 1-6
     doi.org/10.1002/wcms.1327
  3. Neese, F.; Wennmohs, F.; Becker, U.; Riplinger, C.
     The ORCA quantum chemistry program package
     J. Chem. Phys. 2020 152(22), 224108
     doi.org/10.1063/5.0004608
  4. Neese, F.
     Software update: The ORCA program system—Version 5.0
     WIRES Comput. Molec. Sci. 2022 12(1), e1606
     doi.org/10.1002/wcms.1606

List of optional additional citations

  1. Neese, F.
     Approximate second-order SCF convergence for spin unrestricted wavefunctions
     Chem. Phys. Lett. 2000 325(1-3), 93-98
     doi.org/10.1016/s0009-2614(00)00662-x

Timings for individual modules:

Sum of individual times          ...     2303.245 sec (=  38.387 min)
Startup calculation              ...        8.454 sec (=   0.141 min)   0.4 %
SCF iterations                   ...      431.652 sec (=   7.194 min)  18.7 %
Property calculations            ...        0.043 sec (=   0.001 min)   0.0 %
MP2 module                       ...     1863.062 sec (=  31.051 min)  80.9 %
Geometry relaxation              ...        0.033 sec (=   0.001 min)   0.0 %
                             ****ORCA TERMINATED NORMALLY****
TOTAL RUN TIME: 0 days 0 hours 38 minutes 23 seconds 582 msec
