
                                 *****************
                                 * O   R   C   A *
                                 *****************

                                            #,                                       
                                            ###                                      
                                            ####                                     
                                            #####                                    
                                            ######                                   
                                           ########,                                 
                                     ,,################,,,,,                         
                               ,,#################################,,                 
                          ,,##########################################,,             
                       ,#########################################, ''#####,          
                    ,#############################################,,   '####,        
                  ,##################################################,,,,####,       
                ,###########''''           ''''###############################       
              ,#####''   ,,,,##########,,,,          '''####'''          '####       
            ,##' ,,,,###########################,,,                        '##       
           ' ,,###''''                  '''############,,,                           
         ,,##''                                '''############,,,,        ,,,,,,###''
      ,#''                                            '''#######################'''  
     '                                                          ''''####''''         
             ,#######,   #######,   ,#######,      ##                                
            ,#'     '#,  ##    ##  ,#'     '#,    #''#        ,####,    ,#,          
            ##       ##  ##   ,#'  ##            #'  '#       #'       ,# #          
            ##       ##  #######   ##           ,######,      #####,      #          
            '#,     ,#'  ##    ##  '#,     ,#' ,#      #,     #,   #      #          
             '#######'   ##     ##  '#######'  #'      '#     '####' #    #          



                #########################################################
                #                        -***-                          #
                #          Department of theory and spectroscopy        #
                #                                                       #
                #                      Frank Neese                      #
                #                                                       #
                #     Directorship, Architecture, Infrastructure        #
                #                    SHARK, DRIVERS                     #
                #        Core code/Algorithms in most modules           #
                #                                                       #
                #        Max Planck Institute fuer Kohlenforschung      #
                #                Kaiser Wilhelm Platz 1                 #
                #                 D-45470 Muelheim/Ruhr                 #
                #                      Germany                          #
                #                                                       #
                #                  All rights reserved                  #
                #                        -***-                          #
                #########################################################


                         Program Version 6.1.0  -  RELEASE   -
                                (GIT: $679e74b$)
                          ($2025-06-10 18:02:51 +0200$)


 With contributions from (in alphabetic order):
[Max-Planck-Institut fuer Kohlenforschung]                               
  Daniel Aravena         : Magnetic Suceptibility                        
  Michael Atanasov       : Ab Initio Ligand Field Theory (pilot matlab implementation)
  Alexander A. Auer      : GIAO ZORA, VPT2 properties, NMR spectrum      
  Ute Becker             : All parallelization in ORCA, NUMFREQ, NUMCALC 
  Giovanni Bistoni       : ED, misc. LED, open-shell LED, HFLD           
  Dmytro Bykov           : pre 5.0 version of the SCF Hessian            
  Marcos Casanova-Páez   : Triplet and SCS-CIS(D). UHF-(DLPNO)-IP/EA/STEOM-CCSD. UHF-CVS-IP/STEOM-CCSD   
  Vijay G. Chilkuri      : MRCI spin determinant printing, contributions to CSF-ICE 
  Pauline Colinet        : FMM embedding                                 
  Dipayan Datta          : RHF DLPNO-CCSD density                        
  Achintya Kumar Dutta   : EOM-CC, STEOM-CC                              
  Nicolas Foglia         : Exact transition moments, OPA infrastructure, MCD improvements    
  Dmitry Ganyushin       : Spin-Orbit,Spin-Spin,Magnetic field MRCI      
  Miquel Garcia-Rates    : C-PCM and meta-GGA Hessian, CCSD/C-PCM, Gaussian charge scheme 
  Tiago L. C. Gouveia    : GS-ROHF, GS-ROCIS                             
  Yang Guo               : DLPNO-NEVPT2, F12-NEVPT2, CIM, IAO-localization        
  Andreas Hansen         : Spin unrestricted coupled pair/coupled cluster methods 
  Ingolf Harden          : AUTO-CI MPn and infrastructure                
  Benjamin Helmich-Paris : MC-RPA, TRAH-(SCF,CASSCF), AVAS, COSX integrals, SCF dyn. polar., MC-PDFT, srDFT 
  Lee Huntington         : MR-EOM, pCC                                   
  Robert Izsak           : Overlap fitted RIJCOSX, COSX-SCS-MP3, EOM     
  Riya Kayal             : Wick's Theorem for AUTO-CI, AUTO-CI UHF-CCSDT 
  Emily Kempfer          : AUTO-CI RHF CISDT and CCSDT, approximate NEVPT4
  Christian Kollmar      : KDIIS, OOCD, Brueckner-CCSD(T), CCSD density, CASPT2, CASPT2-K, improved NEVPT2 
  Axel Koslowski         : Symmetry handling                             
  Simone Kossmann        : meta-GGA functionals, TD-DFT gradient, OOMP2, (MP2 Hessian; deprecated post 5.0) 
  Lucas Lang             : DCDCAS, Hyperfine gauge corrections, ICE-SOC+SSC
  Marvin Lechner         : AUTO-CI (C++ implementation), FIC-MRCC        
  Spencer Leger          : CASSCF response                               
  Dagmar Lenk            : GEPOL surface, SMD, ORCA-2-JSON               
  Dimitrios Liakos       : Extrapolation schemes; Compound Job, Property file
  Dimitrios Manganas     : Further ROCIS development; embedding schemes. LFT, Crystal Embedding 
  Dimitrios Pantazis     : SARC Basis sets                               
  Anastasios Papadopoulos: AUTO-CI, single reference methods and gradients 
  Taras Petrenko         : pre 6.0 DFT Hessian and TD-DFT gradient,  ECA, NRVS 
  Petra Pikulova         : Analytic Raman intensities                    
  Peter Pinski           : DLPNO-MP2, DLPNO-MP2 Gradient                 
  Shashank Vittal Rao    : ES-AILFT, MagRelax                            
  Christoph Reimann      : Effective Core Potentials                     
  Marius Retegan         : Local ZFS, SOC                                
  Christoph Riplinger    : Optimizer, TS searches, QM/MM, DLPNO-CCSD(T), (RO)-DLPNO pert. Triples 
  Michael Roemelt        : Original ROCIS implementation, recursive CI coupling coefficients
  Masaaki Saitow         : Open-shell DLPNO-CCSD energy and density      
  Barbara Sandhoefer     : DKH picture change effects                    
  Yorick L. A. Schmerwitz: GMF and freeze-and-release deltaSCF, NEB S-IDPP initial path                    
  Kantharuban Sivalingam : CASSCF convergence/infrastructure, NEVPT2, NEVPT3, NEVPT4(SD), FIC-MRCI and CEPA variants
  Bernardo de Souza      : ESD, SOC TD-DFT                               
  Georgi L. Stoychev     : AutoAux, RI-MP2 NMR, DLPNO-MP2 response, X2C  
  Van Anh Tran           : RI-MP2 g-tensors                              
  Willem Van den Heuvel  : Paramagnetic NMR                              
  Zikuan Wang            : NOTCH, Electric field optimization            
  Frank Wennmohs         : Technical directorship and infrastructure     
  Hang Xu                : AUTO-CI-Response properties                   
                                                                         
[FACCTs GmbH]                                                            
  Markus Bursch, Nicolas Foglia, Miquel Garcia-Rates, Ingolf Harden, Hagen Neugebauer, Anastasios Papadopoulos, 
  Christoph Riplinger, Bernardo de Souza, Georgi L. Stoychev                                                    
                                                                 
  APM, various basis sets, CI-OPT, improved COSX, DLPNO-Multilevel,           
  DOCKER, DRACO, updates on ESD, Fragmentator, GOAT, IRC, LR-CPCM, L-BFGS, MBIS, meta-GGA TD-DFT gradient, ML-optimized integration grids, 
  MM, NACMEs, nearIR, NEB, NEB-TS, NL-DFT gradient (VV10), 2- and 3-layer-ONIOM, interface openCOSMO-RS, QMMM,   
  Crystal-QMMM, RESP, rigid body optimization, SF, symmetry and pop. for TD-DFT, various functionals, SOLVATOR                                   
                                                                         
[Other institutions]                                                     
  V. Asgeirsson          : NEB                                           
  Christoph Bannwarth    : sTDA-DFT, sTD-DFT, PBEh-3c, B97-3c, D3        
  Giovanni Bistoni       : ETS/NOCV, ADLD/ADEX, COVALED                  
  Martin Brehm           : Molecular dynamics                            
  Ronald Cardenas        : ETS/NOCV                                      
  Martina Colucci        : COVALED                                       
  Sebastian Ehlert       : rSCAN, r2SCAN, r2SCAN-3c, D4, dhf basis sets  
  Marvin Friede          : D4 for Fr, Ra, Ac-Lr                          
  Lars Goerigk           : TD-DFT with DH, B97 family of functionals     
  Stefan Grimme          : VdW corrections, initial TS optimization, DFT functionals, gCP, sTDA/sTD-DF 
  Waldemar Hujo          : DFT-NL                                        
  H. Jonsson             : NEB                                           
  Holger Kruse           : gCP                                           
  Marcel Mueller         : wB97X-3c, vDZP basis set                      
  Hagen Neugebauer       : wr2SCAN, Native XTB                           
  Gianluca Regni         : ADLD/ADEX                                     
  Tobias Risthaus        : pre 6.0 range-separated hybrid DFT and stability analysis
  Lukas Wittmann         : regularized MP2, r2SCAN double-hybrids, wr2SCAN        
                                                                         
We gratefully acknowledge several colleagues who have allowed us to      
interface, adapt or use parts of their codes:                            
  Ed Valeev, F. Pavosevic, A. Kumar             : LibInt (2-el integral package), F12 methods 
  Garnet Chan, S. Sharma, J. Yang, R. Olivares  : DMRG                   
  Ulf Ekstrom                                   : XCFun DFT Library      
  Mihaly Kallay                                 : mrcc  (arbitrary order and MRCC methods)
  Frank Weinhold                                : gennbo (NPA and NBO analysis)           
  Simon Mueller                                 : openCOSMO-RS                            
  Christopher J. Cramer and Donald G. Truhlar   : smd solvation model                     
  S Lehtola, MJT Oliveira, MAL Marques          : LibXC Library                           
  Liviu Ungur et al                             : ANISO software                          


 Your calculation uses the libint2 library for the computation of 2-el integrals
 For citations please refer to: http://libint.valeyev.net

 Your ORCA version has been built with support for libXC version: 7.0.0
 For citations please refer to: https://libxc.gitlab.io

 This ORCA versions uses:
   CBLAS   interface :  Fast vector & matrix operations
   LAPACKE interface :  Fast linear algebra routines
   SCALAPACK package :  Parallel linear algebra routines
   Shared memory     :  Shared parallel matrices
   BLAS/LAPACK       :  OpenBLAS 0.3.29  USE64BITINT DYNAMIC_ARCH NO_AFFINITY Haswell SINGLE_THREADED
        Core in use  :  Haswell
   Copyright (c) 2011-2014, The OpenBLAS Project


  ***********************************
  * Starting time: Wed Sep  3 07:08:38 2025
  * Host name:     chemlab03
  * Process ID:    119932
  * Working dir.:  /home/vivek/mm-project/vivek/xtb-goat/MP2-opt/i/4
  ***********************************



***************************************
The coordinates will be read from file: /home/vivek/mm-project/vivek/xtb-goat/xtb-goat/i/I_CONF/4.xyz
***************************************


================================================================================

----- Orbital basis set information -----
Your calculation utilizes the basis: 6-31G**
   H-He, Li-Ne : W. J. Hehre, R. Ditchfield and J.A. Pople, J. Chem. Phys. 56, 2257 (1972).
                 Note: He and Ne are unpublished basis sets taken from the Gaussian program.
                 Note: Li and B from J. D. Dill and J. A. Pople, J. Chem. Phys. 62, 2921 (1975).
   Na - Ar     : M. M. Francl, W. J. Pietro, W. J. Hehre, J. S. Binkley, M. S. Gordon, 
                 D. J. DeFrees and J. A. Pople, J. Chem. Phys. 77, 3654 (1982).
   K - Zn      : V. A. Rassolov, J. A. Pople, M. A. Ratner, and T. L. Windus, J. Chem. Phys. 109, 1223 (1998).

================================================================================
                                        WARNINGS
                       Please study these warnings very carefully!
================================================================================


WARNING: The frozen-core approximation for MP2-gradient calculations is turned on by default.

WARNING: Geometry Optimization
  ===> : Switching off AutoStart
         For restart on a previous wavefunction, please use MOREAD

WARNING: Post HF methods need fully converged wavefunctions
  ===> : Setting SCFConvForced true
         You can overwrite this default with %scf ConvForced false 


================================================================================
                                       INPUT FILE
================================================================================
NAME = 4.inp
|  1> ! MP2 6-31G** opt
|  2> 
|  3> * xyzfile 0 1 /home/vivek/mm-project/vivek/xtb-goat/xtb-goat/i/I_CONF/4.xyz
|  4> 
|  5>                          ****END OF INPUT****
================================================================================

                       *****************************
                       * Geometry Optimization Run *
                       *****************************

Geometry optimization settings:
Update method            Update   .... BFGS
Choice of coordinates    CoordSys .... (2022) Redundant Internals
Initial Hessian          InHess   .... Almloef's Model
Max. no of cycles        MaxIter  .... 66

Convergence Tolerances:
Energy Change            TolE     ....  5.0000e-06 Eh
Max. Gradient            TolMAXG  ....  3.0000e-04 Eh/bohr
RMS Gradient             TolRMSG  ....  1.0000e-04 Eh/bohr
Max. Displacement        TolMAXD  ....  4.0000e-03 bohr
RMS Displacement         TolRMSD  ....  2.0000e-03 bohr
Strict Convergence                .... False

------------------------------------------------------------------------------
                        ORCA OPTIMIZATION COORDINATE SETUP
------------------------------------------------------------------------------

The optimization will be done in redundant internal coordinates (2022)
Making redundant internal coordinates   ...  (2022 redundants) done
Evaluating the initial hessian          ...  (Almloef) done
Evaluating the coordinates              ...  done
Calculating the B-matrix                .... done
Calculating the G-matrix                .... done
The number of degrees of freedom        ....   94

    -----------------------------------------------------------------
                    Redundant Internal Coordinates


    -----------------------------------------------------------------
         Definition                    Initial Value    Approx d2E/dq
    -----------------------------------------------------------------
      1. B(C   1,C   0)                  1.5241         0.381771   
      2. B(C   2,C   0)                  1.5343         0.367728   
      3. B(C   5,C   2)                  1.5450         0.353503   
      4. B(C   7,C   2)                  1.5269         0.377833   
      5. B(C   8,C   5)                  1.5214         0.385513   
      6. B(H   9,C   7)                  1.0875         0.363469   
      7. B(N  10,H   3)                  1.0161         0.423110   
      8. B(N  10,C   5)                  1.4531         0.443839   
      9. B(N  10,H   4)                  1.0146         0.425430   
     10. B(O  11,C   8)                  1.3382         0.676963   
     11. B(O  11,H   6)                  0.9711         0.499112   
     12. B(H  12,C   1)                  1.0862         0.365099   
     13. B(O  13,C   8)                  1.2038         1.109090   
     14. B(H  14,C   2)                  1.0965         0.351605   
     15. B(H  15,C   7)                  1.0879         0.362918   
     16. B(H  16,C   7)                  1.0868         0.364322   
     17. B(H  17,C   5)                  1.0932         0.355940   
     18. B(H  18,C   0)                  1.0924         0.356996   
     19. B(H  19,C   0)                  1.0904         0.359545   
     20. B(H  20,C   1)                  1.0876         0.363287   
     21. B(H  21,C   1)                  1.0867         0.364467   
     22. A(H  18,C   0,H  19)          108.1595         0.290374   
     23. A(C   1,C   0,C   2)          114.8779         0.363720   
     24. A(C   1,C   0,H  19)          109.0073         0.325395   
     25. A(C   2,C   0,H  18)          108.0471         0.323021   
     26. A(C   2,C   0,H  19)          107.7198         0.323398   
     27. A(C   1,C   0,H  18)          108.8392         0.325015   
     28. A(C   0,C   1,H  20)          109.5321         0.325950   
     29. A(H  20,C   1,H  21)          108.0713         0.291795   
     30. A(C   0,C   1,H  12)          111.0486         0.326217   
     31. A(H  12,C   1,H  20)          107.9327         0.291874   
     32. A(H  12,C   1,H  21)          108.8120         0.292023   
     33. A(C   0,C   1,H  21)          111.3358         0.326124   
     34. A(C   0,C   2,C   7)          112.4316         0.363076   
     35. A(C   0,C   2,C   5)          110.6029         0.358978   
     36. A(C   5,C   2,H  14)          106.5956         0.320143   
     37. A(C   0,C   2,H  14)          107.2517         0.322216   
     38. A(C   5,C   2,C   7)          111.2279         0.360639   
     39. A(C   7,C   2,H  14)          108.4532         0.323652   
     40. A(C   8,C   5,H  17)          108.2526         0.325378   
     41. A(C   2,C   5,H  17)          109.8280         0.320785   
     42. A(N  10,C   5,H  17)          109.0817         0.331029   
     43. A(C   2,C   5,C   8)          108.9677         0.361879   
     44. A(C   8,C   5,N  10)          111.2221         0.373939   
     45. A(C   2,C   5,N  10)          109.4699         0.368403   
     46. A(C   2,C   7,H   9)          109.9588         0.325421   
     47. A(H  15,C   7,H  16)          108.1604         0.291730   
     48. A(H   9,C   7,H  16)          108.8364         0.291800   
     49. A(C   2,C   7,H  16)          111.0040         0.325546   
     50. A(H   9,C   7,H  15)          108.0510         0.291622   
     51. A(C   2,C   7,H  15)          110.7485         0.325340   
     52. A(C   5,C   8,O  13)          124.4971         0.439571   
     53. A(C   5,C   8,O  11)          112.8706         0.402508   
     54. A(O  11,C   8,O  13)          122.6116         0.483941   
     55. A(H   3,N  10,H   4)          107.3859         0.301355   
     56. A(H   4,N  10,C   5)          110.4515         0.338061   
     57. A(H   3,N  10,C   5)          109.1179         0.337753   
     58. A(H   6,O  11,C   8)          110.6877         0.373122   
     59. D(H  20,C   1,C   0,H  19)     58.1139         0.011611   
     60. D(H  12,C   1,C   0,H  18)   -178.7656         0.011611   
     61. D(H  12,C   1,C   0,H  19)    -61.0021         0.011611   
     62. D(H  12,C   1,C   0,C   2)     59.9671         0.011611   
     63. D(H  20,C   1,C   0,H  18)    -59.6497         0.011611   
     64. D(H  20,C   1,C   0,C   2)    179.0830         0.011611   
     65. D(C   5,C   2,C   0,C   1)    -70.3458         0.010818   
     66. D(C   7,C   2,C   0,H  19)    176.3326         0.010818   
     67. D(C   7,C   2,C   0,H  18)    -67.0376         0.010818   
     68. D(C   7,C   2,C   0,C   1)     54.6610         0.010818   
     69. D(C   5,C   2,C   0,H  18)    167.9556         0.010818   
     70. D(C   5,C   2,C   0,H  19)     51.3257         0.010818   
     71. D(C   8,C   5,C   2,H  14)    -63.4633         0.010052   
     72. D(C   8,C   5,C   2,C   7)     54.5772         0.010052   
     73. D(C   8,C   5,C   2,C   0)   -179.7361         0.010052   
     74. D(N  10,C   5,C   2,H  14)     58.3726         0.010052   
     75. D(N  10,C   5,C   2,C   7)    176.4131         0.010052   
     76. D(N  10,C   5,C   2,C   0)    -57.9002         0.010052   
     77. D(H  15,C   7,C   2,H  14)     46.9906         0.011385   
     78. D(H  15,C   7,C   2,C   5)    -69.9219         0.011385   
     79. D(H  15,C   7,C   2,C   0)    165.4144         0.011385   
     80. D(H   9,C   7,C   2,H  14)    -72.3568         0.011385   
     81. D(H   9,C   7,C   2,C   5)    170.7307         0.011385   
     82. D(H   9,C   7,C   2,C   0)     46.0671         0.011385   
     83. D(O  13,C   8,C   5,N  10)    -39.9602         0.011071   
     84. D(O  13,C   8,C   5,C   2)     80.8070         0.011071   
     85. D(O  11,C   8,C   5,H  17)     18.5928         0.011071   
     86. D(O  11,C   8,C   5,N  10)    138.4174         0.011071   
     87. D(O  11,C   8,C   5,C   2)   -100.8153         0.011071   
     88. D(H   3,N  10,C   5,C   8)     54.9423         0.016800   
     89. D(H   3,N  10,C   5,C   2)    -65.5292         0.016800   
     90. D(H   4,N  10,C   5,C   8)    -62.8837         0.016800   
     91. D(H   4,N  10,C   5,C   2)    176.6448         0.016800   
     92. D(H   3,N  10,C   5,H  17)    174.2733         0.016800   
     93. D(H   6,O  11,C   8,O  13)     -1.8967         0.034106   
     94. D(H   6,O  11,C   8,C   5)    179.6906         0.034106   
    -----------------------------------------------------------------

Number of atoms                         .... 22
Number of degrees of freedom            .... 94


         *************************************************************
         *                GEOMETRY OPTIMIZATION CYCLE   1            *
         *************************************************************
---------------------------------
CARTESIAN COORDINATES (ANGSTROEM)
---------------------------------
  C     -9.648891    4.456466   -0.867344
  C     -9.849828    5.962868   -0.752301
  C     -8.498883    3.892329   -0.022781
  H     -7.002307    2.871138   -1.996708
  H     -6.155532    4.216049   -2.386864
  C     -7.134539    4.333332   -0.598289
  H     -4.807360    4.231245    1.654708
  C     -8.622761    4.264424    1.452912
  C     -6.023221    3.749499    0.261293
  H     -9.641511    4.095885    1.793973
  N     -7.023133    3.886831   -1.976580
  O     -5.508852    4.637598    1.120017
  H     -8.959881    6.500331   -1.067038
  O     -5.614450    2.620700    0.172859
  H     -8.537089    2.799946   -0.109666
  H     -7.958368    3.654516    2.061249
  H     -8.366872    5.308303    1.614255
  H     -7.054138    5.423115   -0.568062
  H    -10.569908    3.953563   -0.563932
  H     -9.450753    4.203159   -1.909262
  H    -10.671532    6.270246   -1.395106
  H    -10.092275    6.252743    0.266596

----------------------------
CARTESIAN COORDINATES (A.U.)
----------------------------
  NO LB      ZA    FRAG     MASS         X           Y           Z
   0 C     6.0000    0    12.011  -18.233762    8.421500   -1.639044
   1 C     6.0000    0    12.011  -18.613478   11.268187   -1.421643
   2 C     6.0000    0    12.011  -16.060561    7.355435   -0.043049
   3 H     1.0000    0     1.008  -13.232442    5.425665   -3.773231
   4 H     1.0000    0     1.008  -11.632270    7.967178   -4.510520
   5 C     6.0000    0    12.011  -13.482325    8.188811   -1.130603
   6 H     1.0000    0     1.008   -9.084593    7.995895    3.126945
   7 C     6.0000    0    12.011  -16.294656    8.058593    2.745605
   8 C     6.0000    0    12.011  -11.382238    7.085526    0.493773
   9 H     1.0000    0     1.008  -18.219815    7.740102    3.390118
  10 N     7.0000    0    14.007  -13.271798    7.345047   -3.735195
  11 O     8.0000    0    15.999  -10.410221    8.763790    2.116526
  12 H     1.0000    0     1.008  -16.931721   12.283846   -2.016410
  13 O     8.0000    0    15.999  -10.609773    4.952404    0.326656
  14 H     1.0000    0     1.008  -16.132761    5.291131   -0.207240
  15 H     1.0000    0     1.008  -15.039136    6.906035    3.895196
  16 H     1.0000    0     1.008  -15.811097   10.031238    3.050501
  17 H     1.0000    0     1.008  -13.330390   10.248202   -1.073482
  18 H     1.0000    0     1.008  -19.974232    7.471152   -1.065678
  19 H     1.0000    0     1.008  -17.859335    7.942820   -3.607982
  20 H     1.0000    0     1.008  -20.166273   11.849047   -2.636368
  21 H     1.0000    0     1.008  -19.071635   11.815973    0.503793

--------------------------------
INTERNAL COORDINATES (ANGSTROEM)
--------------------------------
 C      0   0   0     0.000000000000     0.00000000     0.00000000
 C      1   0   0     1.524092197653     0.00000000     0.00000000
 C      1   2   0     1.534294212420   114.87791508     0.00000000
 H      3   1   2     2.679357858337    98.81617244   240.49773540
 H      4   3   1     1.636469959407    98.71006386    85.96201020
 C      3   1   2     1.545033125094   110.60292832   289.65421745
 H      6   3   1     3.240707109423   111.47983750   157.31831142
 C      3   1   2     1.526914679384   112.43162845    54.66104625
 C      6   3   1     1.521437443273   108.96767860   180.26389424
 H      8   3   1     1.087465069818   109.95878333    46.06708818
 N      5   4   3     1.014617608685    36.33791223   334.77924620
 O      7   6   3     0.971137083391    23.84043804   266.70995878
 H      2   1   3     1.086247383733   111.04863414    59.96710566
 O      9   6   3     1.203786784895   124.49709310    80.80704030
 H      3   1   2     1.096498680636   107.25172720   173.78949276
 H      8   3   1     1.087878382377   110.74852748   165.41444073
 H      8   3   1     1.086827395012   111.00399341   285.57782109
 H      6   3   1     1.093162673992   109.82802426    61.84011225
 H      1   2   3     1.092356474047   108.83916574   121.26726152
 H      1   2   3     1.090419865839   109.00726634   239.03084364
 H      2   1   3     1.087601309503   109.53208375   179.08301294
 H      2   1   3     1.086719060182   111.33582107   298.55020585

---------------------------
INTERNAL COORDINATES (A.U.)
---------------------------
 C      0   0   0     0.000000000000     0.00000000     0.00000000
 C      1   0   0     2.880116856411     0.00000000     0.00000000
 C      1   2   0     2.899395870334   114.87791508     0.00000000
 H      3   1   2     5.063252567027    98.81617244   240.49773540
 H      4   3   1     3.092480049668    98.71006386    85.96201020
 C      3   1   2     2.919689474264   110.60292832   289.65421745
 H      6   3   1     6.124048917061   111.47983750   157.31831142
 C      3   1   2     2.885450573899   112.43162845    54.66104625
 C      6   3   1     2.875100097679   108.96767860   180.26389424
 H      8   3   1     2.055011162162   109.95878333    46.06708818
 N      5   4   3     1.917349411069    36.33791223   334.77924620
 O      7   6   3     1.835183126104    23.84043804   266.70995878
 H      2   1   3     2.052710068943   111.04863414    59.96710566
 O      9   6   3     2.274827347085   124.49709310    80.80704030
 H      3   1   2     2.072082212609   107.25172720   173.78949276
 H      8   3   1     2.055792209705   110.74852748   165.41444073
 H      8   3   1     2.053806131415   111.00399341   285.57782109
 H      6   3   1     2.065778073669   109.82802426    61.84011225
 H      1   2   3     2.064254576564   108.83916574   121.26726152
 H      1   2   3     2.060594917424   109.00726634   239.03084364
 H      2   1   3     2.055268617855   109.53208375   179.08301294
 H      2   1   3     2.053601408256   111.33582107   298.55020585

---------------------
BASIS SET INFORMATION
---------------------
There are 4 groups of distinct atoms

 Group   1 Type C   : 10s4p1d contracted to 3s2p1d pattern {631/31/1}
 Group   2 Type H   : 4s1p contracted to 2s1p pattern {31/1}
 Group   3 Type N   : 10s4p1d contracted to 3s2p1d pattern {631/31/1}
 Group   4 Type O   : 10s4p1d contracted to 3s2p1d pattern {631/31/1}

Atom   0C    basis set group =>   1
Atom   1C    basis set group =>   1
Atom   2C    basis set group =>   1
Atom   3H    basis set group =>   2
Atom   4H    basis set group =>   2
Atom   5C    basis set group =>   1
Atom   6H    basis set group =>   2
Atom   7C    basis set group =>   1
Atom   8C    basis set group =>   1
Atom   9H    basis set group =>   2
Atom  10N    basis set group =>   3
Atom  11O    basis set group =>   4
Atom  12H    basis set group =>   2
Atom  13O    basis set group =>   4
Atom  14H    basis set group =>   2
Atom  15H    basis set group =>   2
Atom  16H    basis set group =>   2
Atom  17H    basis set group =>   2
Atom  18H    basis set group =>   2
Atom  19H    basis set group =>   2
Atom  20H    basis set group =>   2
Atom  21H    basis set group =>   2
------------------------------------------------------------------------------
                             ORCA STARTUP CALCULATIONS
------------------------------------------------------------------------------
------------------------------------------------------------------------------
                   ___                                                        
                  /   \      - P O W E R E D   B Y -                         
                 /     \                                                     
                 |  |  |   _    _      __       _____    __    __             
                 |  |  |  | |  | |    /  \     |  _  \  |  |  /  |          
                  \  \/   | |  | |   /    \    | | | |  |  | /  /          
                 / \  \   | |__| |  /  /\  \   | |_| |  |  |/  /          
                |  |  |   |  __  | /  /__\  \  |    /   |      \           
                |  |  |   | |  | | |   __   |  |    \   |  |\   \          
                \     /   | |  | | |  |  |  |  | |\  \  |  | \   \       
                 \___/    |_|  |_| |__|  |__|  |_| \__\ |__|  \__/        
                                                                              
                      - O R C A' S   B I G   F R I E N D -                    
                                      &                                       
                       - I N T E G R A L  F E E D E R -                       
                                                                              
 v1 FN, 2020, v2 2021, v3 2022-2024                                           
------------------------------------------------------------------------------


----------------------
SHARK INTEGRAL PACKAGE
----------------------

Number of atoms                             ...     22
Number of basis functions                   ...    191
Number of shells                            ...     93
Maximum angular momentum                    ...      2
Integral batch strategy                     ... SHARK/LIBINT Hybrid
RI-J (if used) integral strategy            ... SPLIT-RIJ (Revised 2003 algorithm where possible)
Printlevel                                  ...      1
Contraction scheme used                     ... SEGMENTED contraction
Prescreening option                         ... SCHWARTZ
   Thresh                                   ... 2.500e-11
   Tcut                                     ... 2.500e-12
   Tpresel                                  ... 2.500e-12 
Coulomb Range Separation                    ... NOT USED
Exchange Range Separation                   ... NOT USED
Multipole approximations                    ... NOT USED
Finite Nucleus Model                        ... NOT USED
CABS basis                                  ... NOT available
Auxiliary Coulomb fitting basis             ... NOT available
Auxiliary J/K fitting basis                 ... NOT available
Auxiliary Correlation fitting basis         ... NOT available
Auxiliary 'external' fitting basis          ... NOT available

Checking pre-screening integrals            ... done (  0.0 sec) Dimension = 93
   => SHARK Basis and OBASIS are compatible. Storing Pre-screening
Shell pair information
Shell pair cut-off parameter TPreSel        ...   2.5e-12
Total number of shell pairs                 ...      4371
Shell pairs after pre-screening             ...      3989
Total number of primitive shell pairs       ...     20328
Primitive shell pairs kept                  ...     12408
          la=0 lb=0:   1313 shell pairs
          la=1 lb=0:   1491 shell pairs
          la=1 lb=1:    447 shell pairs
          la=2 lb=0:    441 shell pairs
          la=2 lb=1:    254 shell pairs
          la=2 lb=2:     43 shell pairs

Checking whether 4 symmetric matrices of dimension 191 fit in memory
:Max Core in MB      =   4096.00
 MB in use           =      6.53
 MB left             =   4089.47
 MB needed           =      0.56
 Data fit in memory  = YES
Calculating Nuclear repulsion               ... done (  0.0 sec) ENN=    495.201590789971 Eh

Diagonalization of the overlap matrix:
Smallest eigenvalue                        ... 2.769e-03
Time for diagonalization                   ...    0.002 sec
Threshold for overlap eigenvalues          ... 1.000e-07
Number of eigenvalues below threshold      ... 0
Time for construction of square roots      ...    0.001 sec
Total time needed                          ...    0.003 sec

-------------------
DFT GRID GENERATION
-------------------

General Integration Accuracy     IntAcc      ... 4.388
Radial Grid Type                 RadialGrid  ... OptM3 with GC (2021)
Angular Grid (max. ang.)         AngularGrid ... 4 (Lebedev-302)
Angular grid pruning method      GridPruning ... 4 (adaptive)
Weight generation scheme         WeightScheme... mBecke (2022)
Basis function cutoff            BFCut       ... 1.0000e-11
Integration weight cutoff        WCut        ... 1.0000e-14
Partially contracted basis set               ... off
Rotationally invariant grid construction     ... off
Angular grids for H and He will be reduced by one unit

Total number of grid points                  ...    95441
Total number of batches                      ...     1502
Average number of points per batch           ...       63
Average number of grid points per atom       ...     4338
Grids setup in   0.4 sec
Initializing property integral containers    ... done (  0.0 sec)

SHARK setup successfully completed in   0.4 seconds

Maximum memory used throughout the entire STARTUP-calculation: 38.5 MB
-------------------------------------------------------------------------------
                                 ORCA GUESS
                   Start orbitals & Density for SCF / CASSCF
-------------------------------------------------------------------------------

------------
SCF SETTINGS
------------
Hamiltonian:
 Ab initio Hamiltonian  Method          .... Hartree-Fock(GTOs)


General Settings:
 Integral files         IntName         .... 4
 Hartree-Fock type      HFTyp           .... RHF
 Total Charge           Charge          ....    0
 Multiplicity           Mult            ....    1
 Number of Electrons    NEL             ....   72
 Basis Dimension        Dim             ....  191
 Nuclear Repulsion      ENuc            ....    495.2015907900 Eh

Convergence Acceleration:
 AO-DIIS                CNVDIIS         .... on
   Start iteration      DIISMaxIt       ....    12
   Startup error        DIISStart       ....  0.200000
   # of expansion vecs  DIISMaxEq       ....     5
   Bias factor          DIISBfac        ....   1.050
   Max. coefficient     DIISMaxC        ....  10.000
 MO-DIIS                CNVKDIIS        .... off
 Trust-Rad. Augm. Hess. CNVTRAH         .... auto
   Auto Start mean grad. ratio tolernc. ....  1.125000
   Auto Start start iteration           ....    50
   Auto Start num. interpolation iter.  ....    10
   Max. Number of Micro iterations      ....    24
   Max. Number of Macro iterations      .... Maxiter - #DIIS iter
   Number of Davidson start vectors     ....     2
   Converg. threshold    (grad. norm)   ....   1.000e-05
   Grad. Scal. Fac. for Micro threshold ....   0.100
   Minimum threshold for Micro iter.    ....   1.000e-02
   NR start threshold (gradient norm)   ....   1.000e-04
   Initial trust radius                 ....   0.400
   Minimum AH scaling param. (alpha)    ....   1.000
   Maximum AH scaling param. (alpha)    .... 1000.000
   Quad. conv. algorithm                .... NR
   White noise on init. David. guess    .... on
   Maximum white noise                  ....   0.010
   Pseudo random numbers                .... off
   Inactive MOs                         .... canonical
   Orbital update algorithm             .... Taylor
   Preconditioner                       .... Diag
   Full preconditioner red. dimension   ....   250
 SOSCF                 CNVSOSCF           .... on
   Start iteration     SOSCFMaxIt         ....   150
   Startup grad/error  SOSCFStart         ....  0.003300
   Hessian update      SOSCFHessUp        .... L-BFGS
   Autom. constraints  SOSCFAutoConstrain .... off
 Level Shifting         CNVShift        .... on
   Level shift para.    LevelShift      ....    0.2500
   Turn off err/grad.   ShiftErr        ....    0.0010
 Zerner damping         CNVZerner       .... off
 Static damping         CNVDamp         .... on
   Fraction old density DampFac         ....    0.7000
   Max. Damping (<1)    DampMax         ....    0.9800
   Min. Damping (>=0)   DampMin         ....    0.0000
   Turn off err/grad.   DampErr         ....    0.1000

SCF Procedure:
 Maximum # iterations   MaxIter         ....   125
 SCF integral mode      SCFMode         .... Direct
   Integral package                     .... SHARK and LIBINT hybrid scheme
 Reset frequency        DirectResetFreq ....    20
 Integral Threshold     Thresh          ....  2.500e-11 Eh
 Primitive CutOff       TCut            ....  2.500e-12 Eh

Convergence Tolerance:
 Convergence Check Mode ConvCheckMode   .... Total+1el-Energy
 Convergence forced     ConvForced      .... 1
 Energy Change          TolE            ....  1.000e-08 Eh
 1-El. energy change                    ....  1.000e-05 Eh
 Orbital Gradient       TolG            ....  1.000e-05
 Orbital Rotation angle TolX            ....  1.000e-05
 DIIS Error             TolErr          ....  5.000e-07

------------------------------
INITIAL GUESS: MODEL POTENTIAL
------------------------------
Loading Hartree-Fock densities                     ... done
Calculating cut-offs                               ... done
Initializing the effective Hamiltonian             ... done
Setting up the integral package (SHARK)            ... done
Starting the Coulomb interaction                   ... done (   0.1 sec)
Making the grid                                    ... done (   0.1 sec)
Mapping shells                                     ... done
Starting the XC term evaluation                    ... done (   0.1 sec)
Transforming the Hamiltonian                       ... done (   0.0 sec)
Diagonalizing the Hamiltonian                      ... done (   0.0 sec)
Back transforming the eigenvectors                 ... done (   0.0 sec)
Now organizing SCF variables                       ... done
                      ------------------
                      INITIAL GUESS DONE (   0.2 sec)
                      ------------------
             **** ENERGY FILE WAS UPDATED (4.en.tmp) ****
Finished Guess after   0.3 sec
Maximum memory used throughout the entire GUESS-calculation: 11.9 MB

-------------------------------------------------------------------------------------------
                                      ORCA LEAN-SCF
                              memory conserving SCF solver
-------------------------------------------------------------------------------------------

----------------------------------------D-I-I-S--------------------------------------------
Iteration    Energy (Eh)           Delta-E    RMSDP     MaxDP     DIISErr   Damp  Time(sec)
-------------------------------------------------------------------------------------------
               ***  Starting incremental Fock matrix formation  ***
    1    -438.5375604230880526     0.00e+00  2.49e-03  6.42e-02  2.46e-01  0.700   2.1
    2    -438.7014589938263498    -1.64e-01  1.89e-03  4.62e-02  1.53e-01  0.700   2.0
                               ***Turning on AO-DIIS***
    3    -438.7973760980750058    -9.59e-02  1.02e-03  2.25e-02  8.65e-02  0.700   1.9
    4    -438.8575352502824671    -6.02e-02  2.31e-03  4.71e-02  5.85e-02  0.000   1.9
    5    -438.9903196793094367    -1.33e-01  2.74e-04  4.62e-03  4.11e-03  0.000   2.0
                              *** Initializing SOSCF ***
---------------------------------------S-O-S-C-F--------------------------------------
Iteration    Energy (Eh)           Delta-E    RMSDP     MaxDP     MaxGrad    Time(sec)
--------------------------------------------------------------------------------------
    6    -438.9908123401012290    -4.93e-04  1.34e-04  2.28e-03  2.12e-03     1.8
               *** Restarting incremental Fock matrix formation ***
    7    -438.9909209008724247    -1.09e-04  7.73e-05  1.58e-03  1.41e-03     2.1
    8    -438.9909509666296117    -3.01e-05  7.40e-05  1.68e-03  4.47e-04     1.7
    9    -438.9909614577730963    -1.05e-05  1.30e-05  2.04e-04  1.87e-04     1.7
   10    -438.9909621688465222    -7.11e-07  7.91e-06  1.51e-04  6.46e-05     1.6
   11    -438.9909623053384848    -1.36e-07  1.72e-06  4.36e-05  1.49e-05     1.5
   12    -438.9909623178490392    -1.25e-08  4.70e-07  1.19e-05  5.28e-06     1.3
   13    -438.9909623197129349    -1.86e-09  1.71e-07  3.66e-06  1.29e-06     1.2
                 **** Energy Check signals convergence ****

               *****************************************************
               *                     SUCCESS                       *
               *           SCF CONVERGED AFTER  13 CYCLES          *
               *****************************************************

             **** ENERGY FILE WAS UPDATED (4.en.tmp) ****

----------------
TOTAL SCF ENERGY
----------------

Total Energy       :       -438.99096232215220 Eh          -11945.55138 eV

Components:
Nuclear Repulsion  :        495.20159078997062 Eh           13475.12035 eV
Electronic Energy  :       -934.19255311212282 Eh          -25420.67173 eV
One Electron Energy:      -1581.00793339560323 Eh          -43021.41303 eV
Two Electron Energy:        646.81538028348041 Eh           17600.74130 eV

Virial components:
Potential Energy   :       -877.61146907684781 Eh          -23881.02216 eV
Kinetic Energy     :        438.62050675469561 Eh           11935.47078 eV
Virial Ratio       :          2.00084459244780

---------------
SCF CONVERGENCE
---------------

  Last Energy change         ...    1.8639e-09  Tolerance :   1.0000e-08
  Last MAX-Density change    ...    3.6552e-06  Tolerance :   1.0000e-07
  Last RMS-Density change    ...    1.7132e-07  Tolerance :   5.0000e-09
  Last DIIS Error            ...    2.1187e-03  Tolerance :   5.0000e-07
  Last Orbital Gradient      ...    1.2930e-06  Tolerance :   1.0000e-05
  Last Orbital Rotation      ...    2.0257e-06  Tolerance :   1.0000e-05


----------------
ORBITAL ENERGIES
----------------

  NO   OCC          E(Eh)            E(eV) 
   0   2.0000     -20.618131      -561.0479 
   1   2.0000     -20.552835      -559.2711 
   2   2.0000     -15.549841      -423.1327 
   3   2.0000     -11.381621      -309.7097 
   4   2.0000     -11.269596      -306.6613 
   5   2.0000     -11.232431      -305.6500 
   6   2.0000     -11.214638      -305.1658 
   7   2.0000     -11.210749      -305.0600 
   8   2.0000     -11.207539      -304.9727 
   9   2.0000      -1.468109       -39.9493 
  10   2.0000      -1.361434       -37.0465 
  11   2.0000      -1.200231       -32.6599 
  12   2.0000      -1.084277       -29.5047 
  13   2.0000      -0.996376       -27.1128 
  14   2.0000      -0.945477       -25.7277 
  15   2.0000      -0.883996       -24.0548 
  16   2.0000      -0.819423       -22.2976 
  17   2.0000      -0.754915       -20.5423 
  18   2.0000      -0.711432       -19.3591 
  19   2.0000      -0.696097       -18.9418 
  20   2.0000      -0.663915       -18.0660 
  21   2.0000      -0.639330       -17.3970 
  22   2.0000      -0.626656       -17.0522 
  23   2.0000      -0.607257       -16.5243 
  24   2.0000      -0.595568       -16.2062 
  25   2.0000      -0.566622       -15.4186 
  26   2.0000      -0.549937       -14.9646 
  27   2.0000      -0.534992       -14.5579 
  28   2.0000      -0.529690       -14.4136 
  29   2.0000      -0.507144       -13.8001 
  30   2.0000      -0.484703       -13.1894 
  31   2.0000      -0.466587       -12.6965 
  32   2.0000      -0.460626       -12.5343 
  33   2.0000      -0.454634       -12.3712 
  34   2.0000      -0.446432       -12.1480 
  35   2.0000      -0.395345       -10.7579 
  36   0.0000       0.183821         5.0020 
  37   0.0000       0.215321         5.8592 
  38   0.0000       0.232904         6.3376 
  39   0.0000       0.248430         6.7601 
  40   0.0000       0.251900         6.8545 
  41   0.0000       0.293186         7.9780 
  42   0.0000       0.301584         8.2065 
  43   0.0000       0.310302         8.4438 
  44   0.0000       0.318138         8.6570 
  45   0.0000       0.323207         8.7949 
  46   0.0000       0.339007         9.2248 
*Only the first 10 virtual orbitals were printed.

                    ********************************
                    * MULLIKEN POPULATION ANALYSIS *
                    ********************************

-----------------------
MULLIKEN ATOMIC CHARGES
-----------------------
   0 C :   -0.210229
   1 C :   -0.337479
   2 C :   -0.144153
   3 H :    0.286133
   4 H :    0.272935
   5 C :   -0.011585
   6 H :    0.369648
   7 C :   -0.337300
   8 C :    0.788887
   9 H :    0.119442
  10 N :   -0.687010
  11 O :   -0.636883
  12 H :    0.109114
  13 O :   -0.594983
  14 H :    0.129689
  15 H :    0.118476
  16 H :    0.124388
  17 H :    0.156658
  18 H :    0.106768
  19 H :    0.150997
  20 H :    0.116343
  21 H :    0.110142
Sum of atomic charges:   -0.0000000

--------------------------------
MULLIKEN REDUCED ORBITAL CHARGES
--------------------------------
  0 C s       :     3.234967  s :     3.234967
      pz      :     1.044837  p :     2.926360
      px      :     0.959023
      py      :     0.922499
      dz2     :     0.012885  d :     0.048903
      dxz     :     0.008142
      dyz     :     0.006078
      dx2y2   :     0.011442
      dxy     :     0.010356

  1 C s       :     3.251465  s :     3.251465
      pz      :     1.046463  p :     3.043762
      px      :     1.051081
      py      :     0.946218
      dz2     :     0.010066  d :     0.042251
      dxz     :     0.008358
      dyz     :     0.005683
      dx2y2   :     0.009169
      dxy     :     0.008974

  2 C s       :     3.234468  s :     3.234468
      pz      :     0.919410  p :     2.854771
      px      :     0.895592
      py      :     1.039769
      dz2     :     0.015016  d :     0.054914
      dxz     :     0.011581
      dyz     :     0.006065
      dx2y2   :     0.016071
      dxy     :     0.006180

  3 H s       :     0.687795  s :     0.687795
      pz      :     0.004327  p :     0.026072
      px      :     0.005817
      py      :     0.015929

  4 H s       :     0.700976  s :     0.700976
      pz      :     0.007261  p :     0.026089
      px      :     0.013023
      py      :     0.005806

  5 C s       :     3.185927  s :     3.185927
      pz      :     0.771557  p :     2.755681
      px      :     0.935747
      py      :     1.048376
      dz2     :     0.018471  d :     0.069978
      dxz     :     0.019541
      dyz     :     0.010820
      dx2y2   :     0.014286
      dxy     :     0.006860

  6 H s       :     0.588978  s :     0.588978
      pz      :     0.013654  p :     0.041374
      px      :     0.018046
      py      :     0.009673

  7 C s       :     3.249897  s :     3.249897
      pz      :     0.934709  p :     3.045514
      px      :     1.062464
      py      :     1.048342
      dz2     :     0.011077  d :     0.041889
      dxz     :     0.008022
      dyz     :     0.006549
      dx2y2   :     0.010778
      dxy     :     0.005463

  8 C s       :     2.960927  s :     2.960927
      pz      :     0.674941  p :     2.104176
      px      :     0.746954
      py      :     0.682281
      dz2     :     0.017896  d :     0.146010
      dxz     :     0.013244
      dyz     :     0.044970
      dx2y2   :     0.029892
      dxy     :     0.040008

  9 H s       :     0.867860  s :     0.867860
      pz      :     0.002542  p :     0.012698
      px      :     0.008143
      py      :     0.002013

 10 N s       :     3.606986  s :     3.606986
      pz      :     1.260783  p :     4.045471
      px      :     1.526537
      py      :     1.258150
      dz2     :     0.012721  d :     0.034553
      dxz     :     0.004340
      dyz     :     0.003149
      dx2y2   :     0.012208
      dxy     :     0.002135

 11 O s       :     3.838155  s :     3.838155
      pz      :     1.540745  p :     4.773316
      px      :     1.569928
      py      :     1.662643
      dz2     :     0.002286  d :     0.025411
      dxz     :     0.002828
      dyz     :     0.009087
      dx2y2   :     0.003691
      dxy     :     0.007519

 12 H s       :     0.878178  s :     0.878178
      pz      :     0.002530  p :     0.012708
      px      :     0.006563
      py      :     0.003614

 13 O s       :     3.875937  s :     3.875937
      pz      :     1.669506  p :     4.686440
      px      :     1.623677
      py      :     1.393257
      dz2     :     0.003233  d :     0.032607
      dxz     :     0.001424
      dyz     :     0.008591
      dx2y2   :     0.010026
      dxy     :     0.009333

 14 H s       :     0.858132  s :     0.858132
      pz      :     0.001640  p :     0.012179
      px      :     0.001531
      py      :     0.009008

 15 H s       :     0.868813  s :     0.868813
      pz      :     0.004216  p :     0.012711
      px      :     0.004416
      py      :     0.004079

 16 H s       :     0.862923  s :     0.862923
      pz      :     0.001977  p :     0.012689
      px      :     0.002211
      py      :     0.008501

 17 H s       :     0.831282  s :     0.831282
      pz      :     0.001004  p :     0.012060
      px      :     0.001609
      py      :     0.009446

 18 H s       :     0.880845  s :     0.880845
      pz      :     0.002262  p :     0.012388
      px      :     0.006883
      py      :     0.003243

 19 H s       :     0.836036  s :     0.836036
      pz      :     0.008719  p :     0.012967
      px      :     0.002223
      py      :     0.002025

 20 H s       :     0.870929  s :     0.870929
      pz      :     0.004372  p :     0.012728
      px      :     0.005926
      py      :     0.002430

 21 H s       :     0.877144  s :     0.877144
      pz      :     0.008137  p :     0.012714
      px      :     0.002234
      py      :     0.002344



                     *******************************
                     * LOEWDIN POPULATION ANALYSIS *
                     *******************************

----------------------
LOEWDIN ATOMIC CHARGES
----------------------
   0 C :   -0.112571
   1 C :   -0.185443
   2 C :   -0.059485
   3 H :    0.135943
   4 H :    0.129210
   5 C :   -0.022739
   6 H :    0.199733
   7 C :   -0.182873
   8 C :    0.230781
   9 H :    0.067785
  10 N :   -0.272506
  11 O :   -0.209143
  12 H :    0.060769
  13 O :   -0.315616
  14 H :    0.066139
  15 H :    0.065604
  16 H :    0.067306
  17 H :    0.075855
  18 H :    0.058129
  19 H :    0.075628
  20 H :    0.066649
  21 H :    0.060846

-------------------------------
LOEWDIN REDUCED ORBITAL CHARGES
-------------------------------
  0 C s       :     2.888084  s :     2.888084
      pz      :     1.073543  p :     3.131801
      px      :     1.032224
      py      :     1.026033
      dz2     :     0.022652  d :     0.092686
      dxz     :     0.015326
      dyz     :     0.011774
      dx2y2   :     0.022580
      dxy     :     0.020355

  1 C s       :     2.903907  s :     2.903907
      pz      :     1.082376  p :     3.206419
      px      :     1.082660
      py      :     1.041383
      dz2     :     0.017021  d :     0.075118
      dxz     :     0.013309
      dyz     :     0.011138
      dx2y2   :     0.017152
      dxy     :     0.016497

  2 C s       :     2.877881  s :     2.877881
      pz      :     1.021388  p :     3.073304
      px      :     0.994573
      py      :     1.057343
      dz2     :     0.029474  d :     0.108300
      dxz     :     0.024199
      dyz     :     0.011944
      dx2y2   :     0.030107
      dxy     :     0.012576

  3 H s       :     0.781791  s :     0.781791
      pz      :     0.014604  p :     0.082266
      px      :     0.019020
      py      :     0.048642

  4 H s       :     0.789271  s :     0.789271
      pz      :     0.022135  p :     0.081519
      px      :     0.042227
      py      :     0.017157

  5 C s       :     2.870119  s :     2.870119
      pz      :     0.934376  p :     3.012756
      px      :     1.024521
      py      :     1.053858
      dz2     :     0.036989  d :     0.139864
      dxz     :     0.041325
      dyz     :     0.021317
      dx2y2   :     0.026750
      dxy     :     0.013484

  6 H s       :     0.680188  s :     0.680188
      pz      :     0.038632  p :     0.120079
      px      :     0.050774
      py      :     0.030673

  7 C s       :     2.904499  s :     2.904499
      pz      :     1.033004  p :     3.203631
      px      :     1.085665
      py      :     1.084963
      dz2     :     0.021181  d :     0.074743
      dxz     :     0.015016
      dyz     :     0.012595
      dx2y2   :     0.017459
      dxy     :     0.008492

  8 C s       :     2.849728  s :     2.849728
      pz      :     0.794416  p :     2.602895
      px      :     0.846529
      py      :     0.961950
      dz2     :     0.038450  d :     0.316597
      dxz     :     0.025747
      dyz     :     0.100351
      dx2y2   :     0.066486
      dxy     :     0.085563

  9 H s       :     0.892411  s :     0.892411
      pz      :     0.008573  p :     0.039804
      px      :     0.024020
      py      :     0.007211

 10 N s       :     3.188468  s :     3.188468
      pz      :     1.291515  p :     4.022788
      px      :     1.490505
      py      :     1.240768
      dz2     :     0.022155  d :     0.061250
      dxz     :     0.009854
      dyz     :     0.008286
      dx2y2   :     0.017736
      dxy     :     0.003219

 11 O s       :     3.459564  s :     3.459564
      pz      :     1.518179  p :     4.701254
      px      :     1.533494
      py      :     1.649582
      dz2     :     0.004538  d :     0.048324
      dxz     :     0.010010
      dyz     :     0.015361
      dx2y2   :     0.007196
      dxy     :     0.011220

 12 H s       :     0.899346  s :     0.899346
      pz      :     0.008515  p :     0.039885
      px      :     0.019821
      py      :     0.011549

 13 O s       :     3.547858  s :     3.547858
      pz      :     1.634974  p :     4.710668
      px      :     1.602927
      py      :     1.472767
      dz2     :     0.007540  d :     0.057090
      dxz     :     0.001814
      dyz     :     0.012294
      dx2y2   :     0.018227
      dxy     :     0.017214

 14 H s       :     0.894396  s :     0.894396
      pz      :     0.006676  p :     0.039465
      px      :     0.006638
      py      :     0.026151

 15 H s       :     0.894298  s :     0.894298
      pz      :     0.013244  p :     0.040098
      px      :     0.013965
      py      :     0.012889

 16 H s       :     0.892229  s :     0.892229
      pz      :     0.007193  p :     0.040464
      px      :     0.007909
      py      :     0.025362

 17 H s       :     0.883792  s :     0.883792
      pz      :     0.004829  p :     0.040352
      px      :     0.007021
      py      :     0.028503

 18 H s       :     0.902865  s :     0.902865
      pz      :     0.008337  p :     0.039006
      px      :     0.020222
      py      :     0.010448

 19 H s       :     0.882686  s :     0.882686
      pz      :     0.026281  p :     0.041686
      px      :     0.007907
      py      :     0.007498

 20 H s       :     0.893762  s :     0.893762
      pz      :     0.013536  p :     0.039589
      px      :     0.017788
      py      :     0.008265

 21 H s       :     0.899218  s :     0.899218
      pz      :     0.023964  p :     0.039936
      px      :     0.007829
      py      :     0.008143



                      *****************************
                      * MAYER POPULATION ANALYSIS *
                      *****************************

  NA   - Mulliken gross atomic population
  ZA   - Total nuclear charge
  QA   - Mulliken gross atomic charge
  VA   - Mayer's total valence
  BVA  - Mayer's bonded valence
  FA   - Mayer's free valence

  ATOM       NA         ZA         QA         VA         BVA        FA
  0 C      6.2102     6.0000    -0.2102     3.7951     3.7951    -0.0000
  1 C      6.3375     6.0000    -0.3375     3.8568     3.8568     0.0000
  2 C      6.1442     6.0000    -0.1442     3.7797     3.7797    -0.0000
  3 H      0.7139     1.0000     0.2861     0.9050     0.9050     0.0000
  4 H      0.7271     1.0000     0.2729     0.9046     0.9046    -0.0000
  5 C      6.0116     6.0000    -0.0116     3.7265     3.7265    -0.0000
  6 H      0.6304     1.0000     0.3696     0.8737     0.8737    -0.0000
  7 C      6.3373     6.0000    -0.3373     3.8385     3.8385    -0.0000
  8 C      5.2111     6.0000     0.7889     3.6710     3.6710    -0.0000
  9 H      0.8806     1.0000     0.1194     0.9535     0.9535    -0.0000
 10 N      7.6870     7.0000    -0.6870     2.7722     2.7722     0.0000
 11 O      8.6369     8.0000    -0.6369     1.8274     1.8274    -0.0000
 12 H      0.8909     1.0000     0.1091     0.9507     0.9507     0.0000
 13 O      8.5950     8.0000    -0.5950     1.8865     1.8865    -0.0000
 14 H      0.8703     1.0000     0.1297     0.9470     0.9470    -0.0000
 15 H      0.8815     1.0000     0.1185     0.9550     0.9550    -0.0000
 16 H      0.8756     1.0000     0.1244     0.9504     0.9504    -0.0000
 17 H      0.8433     1.0000     0.1567     0.9421     0.9421    -0.0000
 18 H      0.8932     1.0000     0.1068     0.9492     0.9492    -0.0000
 19 H      0.8490     1.0000     0.1510     0.9496     0.9496    -0.0000
 20 H      0.8837     1.0000     0.1163     0.9526     0.9526     0.0000
 21 H      0.8899     1.0000     0.1101     0.9504     0.9504    -0.0000

  Mayer bond orders larger than 0.100000
B(  0-C ,  1-C ) :   0.9680 B(  0-C ,  2-C ) :   0.9773 B(  0-C , 18-H ) :   0.9748 
B(  0-C , 19-H ) :   0.9629 B(  1-C , 12-H ) :   0.9754 B(  1-C , 20-H ) :   0.9784 
B(  1-C , 21-H ) :   0.9750 B(  2-C ,  5-C ) :   0.9629 B(  2-C ,  7-C ) :   0.9692 
B(  2-C , 14-H ) :   0.9674 B(  3-H , 10-N ) :   0.8953 B(  4-H , 10-N ) :   0.9105 
B(  5-C ,  8-C ) :   0.9076 B(  5-C , 10-N ) :   0.9851 B(  5-C , 17-H ) :   0.9545 
B(  6-H , 11-O ) :   0.8412 B(  7-C ,  9-H ) :   0.9745 B(  7-C , 15-H ) :   0.9718 
B(  7-C , 16-H ) :   0.9699 B(  8-C , 11-O ) :   0.9659 B(  8-C , 13-O ) :   1.8230 


-------
TIMINGS
-------

Total SCF time: 0 days 0 hours 0 min 23 sec 

Total time                  ....      23.917 sec
Sum of individual times     ....      22.857 sec  ( 95.6%)

SCF preparation             ....       0.026 sec  (  0.1%)
Fock matrix formation       ....      22.773 sec  ( 95.2%)
  Startup                   ....       0.001 sec  (  0.0% of F)
  Coulomb+Exchange Fock     ....      23.817 sec  (104.6% of F)
Diagonalization             ....       0.000 sec  (  0.0%)
Density matrix formation    ....       0.005 sec  (  0.0%)
Total Energy calculation    ....       0.001 sec  (  0.0%)
Population analysis         ....       0.003 sec  (  0.0%)
Orbital Transformation      ....       0.006 sec  (  0.0%)
Orbital Orthonormalization  ....       0.000 sec  (  0.0%)
DIIS solution               ....       0.026 sec  (  0.1%)
SOSCF solution              ....       0.017 sec  (  0.1%)
Finished LeanSCF after  23.9 sec

Maximum memory used throughout the entire LEANSCF-calculation: 15.4 MB

------------------------------------------------------------------------------
                                ORCA  MP2 
------------------------------------------------------------------------------

Freezing NCore=18 chemical core electrons
MP2 will be done in the AO integral direct mode
The Q1-step will be done using symmetric double matrices
Dimension of the basis                    ...  191
Memory devoted for MP2                    ... 4096 MB   
Memory needed for all in one shot         ...  722 MB
Number of MOs that can be treated together...  152      
MP2 density construction                  ... relaxed
The MP2 gradient is requested => amplitudes will be stored on disk
Total number of MOs              ...   27
Number of MOs treated per batch  ...   27 
Number of batches necessary      ...    1 
OPERATORS   0/  0 PASS   0
-----------------------------------------------
 MP2 CORRELATION ENERGY   :     -1.371102982 Eh
-----------------------------------------------


---------------------
MP2 DENSITY FORMATION
---------------------

Completing the external part of the density      ... done
Storing the unrelaxed density                    ... done

Calculating G(D)                                 ... done
Completing the Lagrangian                        ... done
Solving the Z-vector equations                   ... 
-------------------
SHARK CP-SCF DRIVER
-------------------

Dimension of the orbital basis          ...    191
Dimension of the CPSCF-problem          ...   5580
Number of operators                     ...      1
Max. number of iterations               ...    128
Convergence Tolerance                   ... 1.0e-04
Number of perturbations                 ...      1
Perturbation type                       ... REAL

----------------------------
POPLE LINEAR EQUATION SOLVER
----------------------------

  ITERATION   0:   ||err||_max =   1.2854e-01 (   2.7 sec)
  ITERATION   1:   ||err||_max =   3.3192e-02 (   2.7 sec)
  ITERATION   2:   ||err||_max =   1.4286e-02 (   2.8 sec)
  ITERATION   3:   ||err||_max =   3.4829e-03 (   2.7 sec)
  ITERATION   4:   ||err||_max =   1.2947e-03 (   2.8 sec)
  ITERATION   5:   ||err||_max =   3.3319e-04 (   2.8 sec)
  ITERATION   6:   ||err||_max =   1.0633e-04 (   2.8 sec)
  ITERATION   7:   ||err||_max =   4.2952e-05 (   2.8 sec)
                                                 ... done
Finalizing the relaxed density                   ... done
Transforming P to the AO basis                   ... done
Storing the relaxed density                      ... done

------------------------------------
ENERGY WEIGHTED DENSITY FINALIZATION
------------------------------------

Gathering the parts of the W-matrix              ...                                                      done
Forming the Z-density                            ... done
Transforming Z to the AO basis                   ... done
Calculating G(Z)                                 ... done
Finalizing the W-matrix                          ...                                                      done
Transforming W to the AO basis and storing       ... done

                *********************************************
                * UNRELAXED MP2 DENSITY POPULATION ANALYSIS *
                *********************************************

------------------------------------------------------------------------------
                           ORCA POPULATION ANALYSIS
------------------------------------------------------------------------------
Input electron density              ... 4.pmp2ur
BaseName (.gbw .S,...)              ... 4

                    ********************************
                    * MULLIKEN POPULATION ANALYSIS *
                    ********************************

-----------------------
MULLIKEN ATOMIC CHARGES
-----------------------
   0 C :   -0.212412
   1 C :   -0.339522
   2 C :   -0.146337
   3 H :    0.284428
   4 H :    0.271770
   5 C :   -0.016808
   6 H :    0.366375
   7 C :   -0.339034
   8 C :    0.755242
   9 H :    0.120331
  10 N :   -0.678834
  11 O :   -0.623000
  12 H :    0.110073
  13 O :   -0.571856
  14 H :    0.130371
  15 H :    0.119361
  16 H :    0.125223
  17 H :    0.157166
  18 H :    0.107803
  19 H :    0.151319
  20 H :    0.117276
  21 H :    0.111062
Sum of atomic charges:   -0.0000000

--------------------------------
MULLIKEN REDUCED ORBITAL CHARGES
--------------------------------
  0 C s       :     3.231705  s :     3.231705
      pz      :     1.040683  p :     2.915662
      px      :     0.955905
      py      :     0.919075
      dz2     :     0.016002  d :     0.065045
      dxz     :     0.011267
      dyz     :     0.009586
      dx2y2   :     0.014508
      dxy     :     0.013682
  1 C s       :     3.248335  s :     3.248335
      pz      :     1.043062  p :     3.033283
      px      :     1.047600
      py      :     0.942621
      dz2     :     0.013006  d :     0.057904
      dxz     :     0.011380
      dyz     :     0.009109
      dx2y2   :     0.012139
      dxy     :     0.012270
  2 C s       :     3.230839  s :     3.230839
      pz      :     0.915743  p :     2.843942
      px      :     0.892843
      py      :     1.035357
      dz2     :     0.018200  d :     0.071556
      dxz     :     0.014976
      dyz     :     0.009613
      dx2y2   :     0.019143
      dxy     :     0.009625
  3 H s       :     0.687486  s :     0.687486
      pz      :     0.005209  p :     0.028086
      px      :     0.006697
      py      :     0.016180
  4 H s       :     0.700098  s :     0.700098
      pz      :     0.008008  p :     0.028132
      px      :     0.013554
      py      :     0.006570
  5 C s       :     3.182913  s :     3.182913
      pz      :     0.772187  p :     2.748185
      px      :     0.931980
      py      :     1.044018
      dz2     :     0.021472  d :     0.085710
      dxz     :     0.022524
      dyz     :     0.013924
      dx2y2   :     0.017518
      dxy     :     0.010273
  6 H s       :     0.591093  s :     0.591093
      pz      :     0.014021  p :     0.042531
      px      :     0.018280
      py      :     0.010229
  7 C s       :     3.246760  s :     3.246760
      pz      :     0.931304  p :     3.034509
      px      :     1.058631
      py      :     1.044575
      dz2     :     0.014032  d :     0.057765
      dxz     :     0.011404
      dyz     :     0.009891
      dx2y2   :     0.013780
      dxy     :     0.008658
  8 C s       :     2.962673  s :     2.962673
      pz      :     0.685286  p :     2.125494
      px      :     0.754436
      py      :     0.685771
      dz2     :     0.020321  d :     0.156591
      dxz     :     0.015263
      dyz     :     0.046849
      dx2y2   :     0.032089
      dxy     :     0.042070
  9 H s       :     0.864211  s :     0.864211
      pz      :     0.003576  p :     0.015458
      px      :     0.008839
      py      :     0.003043
 10 N s       :     3.602279  s :     3.602279
      pz      :     1.252552  p :     4.019940
      px      :     1.515983
      py      :     1.251405
      dz2     :     0.016824  d :     0.056615
      dxz     :     0.009081
      dyz     :     0.007555
      dx2y2   :     0.016502
      dxy     :     0.006652
 11 O s       :     3.833906  s :     3.833906
      pz      :     1.530054  p :     4.740687
      px      :     1.559265
      py      :     1.651368
      dz2     :     0.007106  d :     0.048406
      dxz     :     0.007544
      dyz     :     0.013461
      dx2y2   :     0.008296
      dxy     :     0.011999
 12 H s       :     0.874407  s :     0.874407
      pz      :     0.003544  p :     0.015520
      px      :     0.007365
      py      :     0.004611
 13 O s       :     3.871366  s :     3.871366
      pz      :     1.653781  p :     4.646210
      px      :     1.608616
      py      :     1.383813
      dz2     :     0.007555  d :     0.054279
      dxz     :     0.005823
      dyz     :     0.013066
      dx2y2   :     0.014206
      dxy     :     0.013628
 14 H s       :     0.854597  s :     0.854597
      pz      :     0.002708  p :     0.015032
      px      :     0.002617
      py      :     0.009707
 15 H s       :     0.865126  s :     0.865126
      pz      :     0.005182  p :     0.015513
      px      :     0.005334
      py      :     0.004997
 16 H s       :     0.859298  s :     0.859298
      pz      :     0.003055  p :     0.015479
      px      :     0.003244
      py      :     0.009179
 17 H s       :     0.828011  s :     0.828011
      pz      :     0.002067  p :     0.014823
      px      :     0.002690
      py      :     0.010066
 18 H s       :     0.876965  s :     0.876965
      pz      :     0.003299  p :     0.015232
      px      :     0.007697
      py      :     0.004236
 19 H s       :     0.832951  s :     0.832951
      pz      :     0.009381  p :     0.015730
      px      :     0.003285
      py      :     0.003064
 20 H s       :     0.867259  s :     0.867259
      pz      :     0.005266  p :     0.015465
      px      :     0.006742
      py      :     0.003457
 21 H s       :     0.873421  s :     0.873421
      pz      :     0.008845  p :     0.015516
      px      :     0.003272
      py      :     0.003400


                     *******************************
                     * LOEWDIN POPULATION ANALYSIS *
                     *******************************

----------------------
LOEWDIN ATOMIC CHARGES
----------------------
   0 C :   -0.113184
   1 C :   -0.185562
   2 C :   -0.060956
   3 H :    0.134995
   4 H :    0.128552
   5 C :   -0.026087
   6 H :    0.197320
   7 C :   -0.182691
   8 C :    0.206177
   9 H :    0.067977
  10 N :   -0.267710
  11 O :   -0.200346
  12 H :    0.060971
  13 O :   -0.296993
  14 H :    0.066399
  15 H :    0.065775
  16 H :    0.067479
  17 H :    0.075980
  18 H :    0.058419
  19 H :    0.075595
  20 H :    0.066850
  21 H :    0.061039

-------------------------------
LOEWDIN REDUCED ORBITAL CHARGES
-------------------------------
  0 C s       :     2.887784  s :     2.887784
      pz      :     1.067511  p :     3.114123
      px      :     1.026460
      py      :     1.020152
      dz2     :     0.026442  d :     0.111277
      dxz     :     0.018944
      dyz     :     0.015529
      dx2y2   :     0.026250
      dxy     :     0.024112
  1 C s       :     2.903121  s :     2.903121
      pz      :     1.077078  p :     3.189584
      px      :     1.077277
      py      :     1.035229
      dz2     :     0.020488  d :     0.092858
      dxz     :     0.016788
      dyz     :     0.014750
      dx2y2   :     0.020680
      dxy     :     0.020152
  2 C s       :     2.877991  s :     2.877991
      pz      :     1.015088  p :     3.055329
      px      :     0.988910
      py      :     1.051331
      dz2     :     0.033351  d :     0.127636
      dxz     :     0.028175
      dyz     :     0.015802
      dx2y2   :     0.033896
      dxy     :     0.016412
  3 H s       :     0.779060  s :     0.779060
      pz      :     0.015618  p :     0.085945
      px      :     0.019939
      py      :     0.050388
  4 H s       :     0.786167  s :     0.786167
      pz      :     0.023213  p :     0.085281
      px      :     0.043892
      py      :     0.018176
  5 C s       :     2.870383  s :     2.870383
      pz      :     0.931145  p :     2.997558
      px      :     1.018345
      py      :     1.048068
      dz2     :     0.040725  d :     0.158147
      dxz     :     0.044611
      dyz     :     0.024717
      dx2y2   :     0.030744
      dxy     :     0.017349
  6 H s       :     0.680116  s :     0.680116
      pz      :     0.039361  p :     0.122564
      px      :     0.051622
      py      :     0.031581
  7 C s       :     2.903732  s :     2.903732
      pz      :     1.026685  p :     3.186073
      px      :     1.080030
      py      :     1.079357
      dz2     :     0.024812  d :     0.092887
      dxz     :     0.018775
      dyz     :     0.016259
      dx2y2   :     0.021027
      dxy     :     0.012013
  8 C s       :     2.850469  s :     2.850469
      pz      :     0.801663  p :     2.615192
      px      :     0.851509
      py      :     0.962020
      dz2     :     0.041177  d :     0.328162
      dxz     :     0.028449
      dyz     :     0.101809
      dx2y2   :     0.069053
      dxy     :     0.087674
  9 H s       :     0.887600  s :     0.887600
      pz      :     0.009950  p :     0.044422
      px      :     0.026005
      py      :     0.008467
 10 N s       :     3.186553  s :     3.186553
      pz      :     1.282530  p :     3.995818
      px      :     1.479700
      py      :     1.233589
      dz2     :     0.027067  d :     0.085339
      dxz     :     0.014928
      dyz     :     0.012860
      dx2y2   :     0.022670
      dxy     :     0.007813
 11 O s       :     3.457628  s :     3.457628
      pz      :     1.507845  p :     4.669883
      px      :     1.523103
      py      :     1.638934
      dz2     :     0.009358  d :     0.072835
      dxz     :     0.015156
      dyz     :     0.020377
      dx2y2   :     0.011868
      dxy     :     0.016076
 12 H s       :     0.894484  s :     0.894484
      pz      :     0.009820  p :     0.044545
      px      :     0.021657
      py      :     0.013068
 13 O s       :     3.544890  s :     3.544890
      pz      :     1.620001  p :     4.670766
      px      :     1.588338
      py      :     1.462426
      dz2     :     0.012302  d :     0.081337
      dxz     :     0.006311
      dyz     :     0.017111
      dx2y2   :     0.023354
      dxy     :     0.022259
 14 H s       :     0.889080  s :     0.889080
      pz      :     0.008093  p :     0.044521
      px      :     0.008050
      py      :     0.028379
 15 H s       :     0.889447  s :     0.889447
      pz      :     0.014831  p :     0.044778
      px      :     0.015555
      py      :     0.014391
 16 H s       :     0.887402  s :     0.887402
      pz      :     0.008500  p :     0.045119
      px      :     0.009223
      py      :     0.027396
 17 H s       :     0.878757  s :     0.878757
      pz      :     0.006261  p :     0.045263
      px      :     0.008436
      py      :     0.030566
 18 H s       :     0.897698  s :     0.897698
      pz      :     0.009705  p :     0.043883
      px      :     0.022203
      py      :     0.011976
 19 H s       :     0.877976  s :     0.877976
      pz      :     0.028306  p :     0.046429
      px      :     0.009258
      py      :     0.008865
 20 H s       :     0.889000  s :     0.889000
      pz      :     0.015046  p :     0.044150
      px      :     0.019509
      py      :     0.009595
 21 H s       :     0.894381  s :     0.894381
      pz      :     0.025975  p :     0.044581
      px      :     0.009118
      py      :     0.009488


                      *****************************
                      * MAYER POPULATION ANALYSIS *
                      *****************************

  NA   - Mulliken gross atomic population
  ZA   - Total nuclear charge
  QA   - Mulliken gross atomic charge
  VA   - Mayer's total valence
  BVA  - Mayer's bonded valence
  FA   - Mayer's free valence

  ATOM       NA         ZA         QA         VA         BVA        FA
  0 C      6.2124     6.0000    -0.2124     3.8782     3.6105     0.2677
  1 C      6.3395     6.0000    -0.3395     3.9438     3.6938     0.2500
  2 C      6.1463     6.0000    -0.1463     3.8596     3.5715     0.2882
  3 H      0.7156     1.0000     0.2844     0.9125     0.8666     0.0459
  4 H      0.7282     1.0000     0.2718     0.9118     0.8657     0.0461
  5 C      6.0168     6.0000    -0.0168     3.8024     3.5216     0.2809
  6 H      0.6336     1.0000     0.3664     0.8808     0.8361     0.0447
  7 C      6.3390     6.0000    -0.3390     3.9262     3.6723     0.2539
  8 C      5.2448     6.0000     0.7552     3.7357     3.4443     0.2914
  9 H      0.8797     1.0000     0.1203     0.9626     0.9153     0.0474
 10 N      7.6788     7.0000    -0.6788     2.9665     2.6376     0.3288
 11 O      8.6230     8.0000    -0.6230     2.0867     1.7293     0.3574
 12 H      0.8899     1.0000     0.1101     0.9601     0.9131     0.0470
 13 O      8.5719     8.0000    -0.5719     2.1529     1.7542     0.3987
 14 H      0.8696     1.0000     0.1304     0.9567     0.9056     0.0511
 15 H      0.8806     1.0000     0.1194     0.9642     0.9166     0.0476
 16 H      0.8748     1.0000     0.1252     0.9595     0.9125     0.0471
 17 H      0.8428     1.0000     0.1572     0.9509     0.9023     0.0486
 18 H      0.8922     1.0000     0.1078     0.9590     0.9094     0.0496
 19 H      0.8487     1.0000     0.1513     0.9584     0.9105     0.0479
 20 H      0.8827     1.0000     0.1173     0.9618     0.9150     0.0467
 21 H      0.8889     1.0000     0.1111     0.9599     0.9129     0.0470

  Mayer bond orders larger than 0.100000
B(  0-C ,  1-C ) :   0.9165 B(  0-C ,  2-C ) :   0.9222 B(  0-C , 18-H ) :   0.9362 
B(  0-C , 19-H ) :   0.9252 B(  1-C , 12-H ) :   0.9384 B(  1-C , 20-H ) :   0.9417 
B(  1-C , 21-H ) :   0.9381 B(  2-C ,  5-C ) :   0.9073 B(  2-C ,  7-C ) :   0.9155 
B(  2-C , 14-H ) :   0.9277 B(  3-H , 10-N ) :   0.8585 B(  4-H , 10-N ) :   0.8732 
B(  5-C ,  8-C ) :   0.8578 B(  5-C , 10-N ) :   0.9281 B(  5-C , 17-H ) :   0.9166 
B(  6-H , 11-O ) :   0.8062 B(  7-C ,  9-H ) :   0.9373 B(  7-C , 15-H ) :   0.9346 
B(  7-C , 16-H ) :   0.9328 B(  8-C , 11-O ) :   0.9124 B(  8-C , 13-O ) :   1.7037 



                *******************************************
                * RELAXED MP2 DENSITY POPULATION ANALYSIS *
                *******************************************

------------------------------------------------------------------------------
                           ORCA POPULATION ANALYSIS
------------------------------------------------------------------------------
Input electron density              ... 4.pmp2re
BaseName (.gbw .S,...)              ... 4

                    ********************************
                    * MULLIKEN POPULATION ANALYSIS *
                    ********************************

-----------------------
MULLIKEN ATOMIC CHARGES
-----------------------
   0 C :   -0.200724
   1 C :   -0.335967
[...]
   5 C :   -0.045260
   6 H :    0.187086
   7 C :   -0.194571
   8 C :    0.143396
   9 H :    0.071344
  10 N :   -0.256675
  11 O :   -0.174058
  12 H :    0.070088
  13 O :   -0.233373
  14 H :    0.068859
  15 H :    0.069316
  16 H :    0.069610
  17 H :    0.077393
  18 H :    0.062384
  19 H :    0.074625
  20 H :    0.070537
  21 H :    0.063135

-------------------------------
LOEWDIN REDUCED ORBITAL CHARGES
-------------------------------
  0 C s       :     2.888973  s :     2.888973
      pz      :     1.066841  p :     3.125219
      px      :     1.030086
      py      :     1.028292
      dz2     :     0.020748  d :     0.105025
      dxz     :     0.019782
      dyz     :     0.018997
      dx2y2   :     0.026311
      dxy     :     0.019188
  1 C s       :     2.904553  s :     2.904553
      pz      :     1.083386  p :     3.207648
      px      :     1.088527
      py      :     1.035735
      dz2     :     0.014364  d :     0.086738
      dxz     :     0.016626
      dyz     :     0.019204
      dx2y2   :     0.021809
      dxy     :     0.014735
  2 C s       :     2.879722  s :     2.879722
      pz      :     1.017194  p :     3.065197
      px      :     0.993718
      py      :     1.054284
      dz2     :     0.031428  d :     0.121195
      dxz     :     0.026832
      dyz     :     0.014744
      dx2y2   :     0.032014
      dxy     :     0.016177
  3 H s       :     0.784005  s :     0.784005
      pz      :     0.015798  p :     0.084305
      px      :     0.020378
      py      :     0.048129
  4 H s       :     0.787574  s :     0.787574
      pz      :     0.021472  p :     0.083682
      px      :     0.042563
      py      :     0.019647
  5 C s       :     2.874090  s :     2.874090
      pz      :     0.936931  p :     3.020405
      px      :     1.025623
      py      :     1.057852
      dz2     :     0.040608  d :     0.150764
      dxz     :     0.041297
      dyz     :     0.022531
      dx2y2   :     0.028211
      dxy     :     0.018117
  6 H s       :     0.692881  s :     0.692881
      pz      :     0.033730  p :     0.120033
      px      :     0.048567
      py      :     0.037736
  7 C s       :     2.906730  s :     2.906730
      pz      :     1.027511  p :     3.200991
      px      :     1.085691
      py      :     1.087788
      dz2     :     0.022504  d :     0.086850
      dxz     :     0.019426
      dyz     :     0.014374
      dx2y2   :     0.019913
      dxy     :     0.010632
  8 C s       :     2.861841  s :     2.861841
      pz      :     0.843940  p :     2.689617
      px      :     0.888041
      py      :     0.957636
      dz2     :     0.044319  d :     0.305146
      dxz     :     0.027817
      dyz     :     0.093291
      dx2y2   :     0.060518
      dxy     :     0.079200
  9 H s       :     0.884666  s :     0.884666
      pz      :     0.010238  p :     0.043991
      px      :     0.024097
      py      :     0.009656
 10 N s       :     3.201552  s :     3.201552
      pz      :     1.251515  p :     3.971903
      px      :     1.485636
      py      :     1.234753
      dz2     :     0.027064  d :     0.083220
      dxz     :     0.014511
      dyz     :     0.011953
      dx2y2   :     0.020107
      dxy     :     0.009586
 11 O s       :     3.483570  s :     3.483570
      pz      :     1.490637  p :     4.618002
      px      :     1.508021
      py      :     1.619343
      dz2     :     0.011098  d :     0.072486
      dxz     :     0.014168
      dyz     :     0.020159
      dx2y2   :     0.010087
      dxy     :     0.016974
 12 H s       :     0.885482  s :     0.885482
      pz      :     0.013620  p :     0.044430
      px      :     0.020236
      py      :     0.010574
 13 O s       :     3.561624  s :     3.561624
      pz      :     1.586725  p :     4.593049
      px      :     1.558947
      py      :     1.447378
      dz2     :     0.011851  d :     0.078700
      dxz     :     0.006506
      dyz     :     0.017280
      dx2y2   :     0.022155
      dxy     :     0.020908
 14 H s       :     0.886859  s :     0.886859
      pz      :     0.008382  p :     0.044282
      px      :     0.008256
      py      :     0.027644
 15 H s       :     0.886039  s :     0.886039
      pz      :     0.014680  p :     0.044646
      px      :     0.017587
      py      :     0.012379
 16 H s       :     0.885891  s :     0.885891
      pz      :     0.008738  p :     0.044499
      px      :     0.008401
      py      :     0.027360
 17 H s       :     0.877303  s :     0.877303
      pz      :     0.006961  p :     0.045304
      px      :     0.008815
      py      :     0.029527
 18 H s       :     0.893948  s :     0.893948
      pz      :     0.011493  p :     0.043669
      px      :     0.021829
      py      :     0.010347
 19 H s       :     0.879969  s :     0.879969
      pz      :     0.025956  p :     0.045406
      px      :     0.008537
      py      :     0.010913
 20 H s       :     0.885717  s :     0.885717
      pz      :     0.012691  p :     0.043746
      px      :     0.021482
      py      :     0.009574
 21 H s       :     0.892838  s :     0.892838
      pz      :     0.023692  p :     0.044026
      px      :     0.008289
      py      :     0.012045


                      *****************************
                      * MAYER POPULATION ANALYSIS *
                      *****************************

  NA   - Mulliken gross atomic population
  ZA   - Total nuclear charge
  QA   - Mulliken gross atomic charge
  VA   - Mayer's total valence
  BVA  - Mayer's bonded valence
  FA   - Mayer's free valence

  ATOM       NA         ZA         QA         VA         BVA        FA
  0 C      6.1860     6.0000    -0.1860     3.9296     3.6648     0.2648
  1 C      6.3406     6.0000    -0.3406     3.9704     3.7215     0.2490
  2 C      6.1144     6.0000    -0.1144     3.9377     3.6539     0.2838
  3 H      0.7357     1.0000     0.2643     0.9257     0.8797     0.0461
  4 H      0.7430     1.0000     0.2570     0.9174     0.8708     0.0466
  5 C      6.0359     6.0000    -0.0359     3.8797     3.6030     0.2767
  6 H      0.6602     1.0000     0.3398     0.9040     0.8598     0.0442
  7 C      6.3317     6.0000    -0.3317     3.9542     3.7019     0.2523
  8 C      5.4378     6.0000     0.5622     3.9459     3.6668     0.2792
  9 H      0.8856     1.0000     0.1144     0.9646     0.9171     0.0476
 10 N      7.6106     7.0000    -0.6106     3.0368     2.7114     0.3254
 11 O      8.5216     8.0000    -0.5216     2.2086     1.8553     0.3533
 12 H      0.8801     1.0000     0.1199     0.9630     0.9164     0.0467
 13 O      8.4469     8.0000    -0.4469     2.3109     1.9208     0.3901
 14 H      0.8853     1.0000     0.1147     0.9608     0.9095     0.0513
 15 H      0.8857     1.0000     0.1143     0.9678     0.9203     0.0475
 16 H      0.8834     1.0000     0.1166     0.9640     0.9167     0.0474
 17 H      0.8606     1.0000     0.1394     0.9575     0.9092     0.0483
 18 H      0.9008     1.0000     0.0992     0.9610     0.9110     0.0500
 19 H      0.8701     1.0000     0.1299     0.9649     0.9168     0.0480
 20 H      0.8886     1.0000     0.1114     0.9639     0.9169     0.0470
 21 H      0.8955     1.0000     0.1045     0.9635     0.9162     0.0473

  Mayer bond orders larger than 0.100000
B(  0-C ,  1-C ) :   0.9388 B(  0-C ,  2-C ) :   0.9333 B(  0-C , 18-H ) :   0.9258 
B(  0-C , 19-H ) :   0.9203 B(  1-C , 12-H ) :   0.9319 B(  1-C , 20-H ) :   0.9360 
B(  1-C , 21-H ) :   0.9342 B(  2-C ,  5-C ) :   0.9176 B(  2-C ,  7-C ) :   0.9370 
B(  2-C , 14-H ) :   0.9137 B(  3-H , 10-N ) :   0.8606 B(  4-H , 10-N ) :   0.8731 
B(  5-C ,  8-C ) :   0.8670 B(  5-C , 10-N ) :   0.9565 B(  5-C , 17-H ) :   0.9030 
B(  6-H , 11-O ) :   0.8130 B(  7-C ,  9-H ) :   0.9307 B(  7-C , 15-H ) :   0.9272 
B(  7-C , 16-H ) :   0.9289 B(  8-C , 11-O ) :   0.9856 B(  8-C , 13-O ) :   1.7991 



----------------------------------
MP2 DERIVATIVE INTEGRAL GENERATION
----------------------------------

Input SCF Electron Density              ... 4.scfp
Input Correlated Electron Density       ... 4.pmp2re
Input Energy Weighted Density           ... 4.wmp2.tmp
Input Wavefunction Amplitudes           ... 4.mp2tsaa.tmp

Nuclear repulsion gradient              ... done (  0.0 sec)
HCore & Overlap gradient  (SHARK)       ... done (  0.1 sec)
Analytic two-electron gradient terms    ... 
  Batch handling in the gradient evaluation:
  General contraction                   ... not used
  Memory available                      ... 4081.6 MB
  Memory per occupied orbital in Q2     ...    7.5 MB
  Memory per occupied orbital in Q3     ...    0.0 MB
  Total memory requirement per |i>      ...    7.6 MB
  Number of orbitals treated per batch  ...     27
  Number of batches to be done          ...      1
done ( 22.0 sec)

---------------------------------------
MP2 TOTAL ENERGY:     -440.364621914 Eh
---------------------------------------

The final MP2 gradient
  0:  -0.00002152  -0.00003296  -0.00000051
  1:   0.00001422   0.00007238   0.00000374
  2:   0.00002209   0.00006091   0.00000931
  3:   0.00000875   0.00000051  -0.00000201
  4:  -0.00001135   0.00002079   0.00000391
  5:  -0.00000375  -0.00005337  -0.00002477
  6:   0.00000922   0.00003387   0.00002834
  7:  -0.00001705  -0.00002010   0.00002870
  8:   0.00007042   0.00006409   0.00002678
  9:   0.00000188   0.00000763  -0.00000325
 10:   0.00000258  -0.00002502   0.00002047
 11:  -0.00003675  -0.00005246  -0.00003550
 12:   0.00000071  -0.00002217  -0.00001087
 13:  -0.00002790  -0.00003712  -0.00003043
 14:  -0.00000524  -0.00000512  -0.00000544
 15:   0.00000612  -0.00000108  -0.00000951
 16:  -0.00000124   0.00000066  -0.00001518
 17:  -0.00001130   0.00000448   0.00000600
 18:  -0.00000053  -0.00000035  -0.00000382
 19:   0.00001926   0.00000344   0.00000620
 20:  -0.00000518  -0.00000730   0.00001311
 21:  -0.00001344  -0.00001171  -0.00000529

-----------------------------------
NORM OF THE MP2 GRADIENT:  0.000201
-----------------------------------

Maximum memory used throughout the entire MP2-calculation: 780.2 MB

-------------------------   --------------------
FINAL SINGLE POINT ENERGY      -440.364621913807
-------------------------   --------------------

                                *** OPTIMIZATION RUN DONE ***


------------------------------------------------------------------------------
                              ORCA PROPERTY CALCULATIONS
------------------------------------------------------------------------------

GBWName                                 ... 4.gbw
Number of atoms                         ...     22
Number of basis functions               ...    191
Max core memory                         ...   4096 MB

Electric properties:
Dipole moment                           ... YES
Quadrupole moment                       ...  NO
Static polarizability (Dipole/Dipole)   ...  NO
Static polarizability (Dipole/Quad.)    ...  NO
Static polarizability (Quad./Quad.)     ...  NO
Static polarizability (Velocity)        ...  NO
Static hyperpolarizability              ...  NO

Atomic electric properties:
Dipole moment                           ...  NO
Quadrupole moment                       ...  NO
Static polarizability                   ...  NO

Choice of electric origin               ... Center of mass
Position of electric origin             ...   -14.189707     7.941579    -0.231441

General magnetic properties:
Magnetizability                         ...  NO

EPR properties:
g-Tensor (aka g-matrix)                 ...  NO
Zero-Field splitting spin-orbit         ...  NO
Zero-field splitting spin-spin          ...  NO
Hyperfine couplings                     ...  NO (   0 nuclei)
Quadrupole couplings                    ...  NO (   0 nuclei)
Contact density                         ...  NO (   0 nuclei)

NMR properties:
Chemical shifts                         ...  NO (   0 nuclei)
Spin-rotation constants                 ...  NO (   0 nuclei)
Spin-spin couplings                     ...  NO (   0 nuclei,    0 pairs)

Choice of magnetic origin               ... GIAO
Position of magnetic origin             ...     0.000000     0.000000     0.000000

Properties with geometric perturbations:
SCF Hessian                             ...  NO
IR spectrum                             ...  NO
VCD spectrum                            ...  NO
X-ray spectroscopy properties:
SCF XES/XAS/RIXS spectra                ...  NO

SCF SOC stabilization energy            ...  NO
Diagonal Born-Oppenheimer correction    ...  NO

-------------
DIPOLE MOMENT
-------------

Method             : SCF
Type of density    : Electron Density
Multiplicity       :   1
Irrep              :   0
Energy             :  -438.9890347627698475 Eh
Basis              : AO
                                X                 Y                 Z
Electronic contribution:     10.996965733      -4.409345266       1.253099977
Nuclear contribution   :    -10.830056189       4.789657595      -0.941586070
                        -----------------------------------------
Total Dipole Moment    :      0.166909544       0.380312329       0.311513907
                        -----------------------------------------
Magnitude (a.u.)       :      0.519169700
Magnitude (Debye)      :      1.319624506



--------------------
Rotational spectrum 
--------------------
 
Rotational constants in cm-1:             0.082861             0.036311             0.031189 
Rotational constants in MHz :          2484.097454          1088.575676           935.025023 

Dipole components along the rotational axes: 
x,y,z [a.u.] :     0.098779     0.316632     0.399405 
x,y,z [Debye]:     0.251075     0.804815     1.015206 

 

-------------
DIPOLE MOMENT
-------------

Method             : MP2
Type of density    : Electron Density
Multiplicity       :   1
Level              : Unrelaxed density
Irrep              :   0
Energy             :     0.0000000000000000 Eh
Basis              : AO
                                X                 Y                 Z
Electronic contribution:     11.011680475      -4.438191114       1.248586380
Nuclear contribution   :    -10.830056189       4.789657595      -0.941586070
                        -----------------------------------------
Total Dipole Moment    :      0.181624286       0.351466481       0.307000310
                        -----------------------------------------
Magnitude (a.u.)       :      0.500764674
Magnitude (Debye)      :      1.272842647



--------------------
Rotational spectrum 
--------------------
 
Rotational constants in cm-1:             0.082861             0.036311             0.031189 
Rotational constants in MHz :          2484.097454          1088.575676           935.025023 

Dipole components along the rotational axes: 
x,y,z [a.u.] :     0.120849     0.305230     0.378147 
x,y,z [Debye]:     0.307174     0.775834     0.961174 

 

-------------
DIPOLE MOMENT
-------------

Method             : MP2
Type of density    : Electron Density
Multiplicity       :   1
Level              : Relaxed density
Irrep              :   0
Energy             :     0.0000000000000000 Eh
Basis              : AO
                                X                 Y                 Z
Electronic contribution:     11.108744370      -4.540479907       1.248151946
Nuclear contribution   :    -10.830056189       4.789657595      -0.941586070
                        -----------------------------------------
Total Dipole Moment    :      0.278688181       0.249177688       0.306565876
                        -----------------------------------------
Magnitude (a.u.)       :      0.483465882
Magnitude (Debye)      :      1.228872611



--------------------
Rotational spectrum 
--------------------
 
Rotational constants in cm-1:             0.082861             0.036311             0.031189 
Rotational constants in MHz :          2484.097454          1088.575676           935.025023 

Dipole components along the rotational axes: 
x,y,z [a.u.] :     0.243663     0.270227     0.318347 
x,y,z [Debye]:     0.619342     0.686863     0.809174 

 

Dipole moment calculation done in   0.0 sec 

Maximum memory used throughout the entire PROP-calculation: 10.6 MB

--------------------------------
SUGGESTED CITATIONS FOR THIS RUN
--------------------------------

Below you find a list of papers that are relevant to this ORCA run
We neither can nor want to force you to cite these papers, but we appreciate if you do
You receive ORCA, which is the product of decades of hard work by many enthusiastic individuals, for free
The only thing we kindly ask in return is that you cite our papers,
We deeply appreciate it, if you show your appreciation for ORCA by not just citing the generic ORCA reference.

Please note that relegating all ORCA citations to the supporting information does *not* help us.
SI sections are not indexed - citations you put there will not count into any citation statistics
But we need these citations in order to attract the funding resources that allow us to do what we are doing

Therefore, if you are a happy ORCA user, please consider citing a few of the papers listed below in the main body of your paper

In addition to the list printed below, the program has created the file 4.bibtex that contains the list in bibtex format
You can import this file easily into all common literature databanks and citation aid programs


List of essential papers. We consider these as the minimum necessary citations

  1. Neese, F.
     Software update: the ORCA program system, version 6.0
     WIRES Comput. Molec. Sci. 2025 15(1), e70019
     doi.org/10.1002/wcms.7019

List of papers to cite with high priority. The work reported in these papers was absolutely
necessary for this run to complete.
Our perspective: the developers of density functionals and basis sets usually get cited in chemistry papers
Good! But without the algorithms to do something with them, the functionals or basis sets would not do anything.
Hence, in our opinion, the algorithm design and method developments papers are equally worthy of getting cited

  1. Neese, F.
     The SHARK Integral Generation and Digestion System
     J. Comp. Chem. 2022 44(3), 381
     doi.org/10.1002/jcc.26942

List of suggested additional citations. These are papers that are important in the 'surrounding' of 
of this run, or papers that preceded the highly important papers. If you like your results we are grateful for a citation.

  1. Neese, F.
     The ORCA program system
     WIRES Comput. Molec. Sci. 2012 2(1), 73-78
     doi.org/10.1002/wcms.81
  2. Neese, F.
     Software update: the ORCA program system, version 4.0
     WIRES Comput. Molec. Sci. 2018 8(1), 1-6
     doi.org/10.1002/wcms.1327
  3. Neese, F.; Wennmohs, F.; Becker, U.; Riplinger, C.
     The ORCA quantum chemistry program package
     J. Chem. Phys. 2020 152(22), 224108
     doi.org/10.1063/5.0004608
  4. Neese, F.
     Software update: The ORCA program system—Version 5.0
     WIRES Comput. Molec. Sci. 2022 12(1), e1606
     doi.org/10.1002/wcms.1606

List of optional additional citations

  1. Neese, F.
     Approximate second-order SCF convergence for spin unrestricted wavefunctions
     Chem. Phys. Lett. 2000 325(1-3), 93-98
     doi.org/10.1016/s0009-2614(00)00662-x

Timings for individual modules:

Sum of individual times          ...      924.981 sec (=  15.416 min)
Startup calculation              ...        5.001 sec (=   0.083 min)   0.5 %
SCF iterations                   ...      180.990 sec (=   3.017 min)  19.6 %
Property calculations            ...        0.038 sec (=   0.001 min)   0.0 %
MP2 module                       ...      738.933 sec (=  12.316 min)  79.9 %
Geometry relaxation              ...        0.018 sec (=   0.000 min)   0.0 %
                             ****ORCA TERMINATED NORMALLY****
TOTAL RUN TIME: 0 days 0 hours 15 minutes 25 seconds 227 msec
