
                                 *****************
                                 * O   R   C   A *
                                 *****************

                                            #,                                       
                                            ###                                      
                                            ####                                     
                                            #####                                    
                                            ######                                   
                                           ########,                                 
                                     ,,################,,,,,                         
                               ,,#################################,,                 
                          ,,##########################################,,             
                       ,#########################################, ''#####,          
                    ,#############################################,,   '####,        
                  ,##################################################,,,,####,       
                ,###########''''           ''''###############################       
              ,#####''   ,,,,##########,,,,          '''####'''          '####       
            ,##' ,,,,###########################,,,                        '##       
           ' ,,###''''                  '''############,,,                           
         ,,##''                                '''############,,,,        ,,,,,,###''
      ,#''                                            '''#######################'''  
     '                                                          ''''####''''         
             ,#######,   #######,   ,#######,      ##                                
            ,#'     '#,  ##    ##  ,#'     '#,    #''#        ,####,    ,#,          
            ##       ##  ##   ,#'  ##            #'  '#       #'       ,# #          
            ##       ##  #######   ##           ,######,      #####,      #          
            '#,     ,#'  ##    ##  '#,     ,#' ,#      #,     #,   #      #          
             '#######'   ##     ##  '#######'  #'      '#     '####' #    #          



                #########################################################
                #                        -***-                          #
                #          Department of theory and spectroscopy        #
                #                                                       #
                #                      Frank Neese                      #
                #                                                       #
                #     Directorship, Architecture, Infrastructure        #
                #                    SHARK, DRIVERS                     #
                #        Core code/Algorithms in most modules           #
                #                                                       #
                #        Max Planck Institute fuer Kohlenforschung      #
                #                Kaiser Wilhelm Platz 1                 #
                #                 D-45470 Muelheim/Ruhr                 #
                #                      Germany                          #
                #                                                       #
                #                  All rights reserved                  #
                #                        -***-                          #
                #########################################################


                         Program Version 6.1.0  -  RELEASE   -
                                (GIT: $679e74b$)
                          ($2025-06-10 18:02:51 +0200$)


 With contributions from (in alphabetic order):
[Max-Planck-Institut fuer Kohlenforschung]                               
  Daniel Aravena         : Magnetic Suceptibility                        
  Michael Atanasov       : Ab Initio Ligand Field Theory (pilot matlab implementation)
  Alexander A. Auer      : GIAO ZORA, VPT2 properties, NMR spectrum      
  Ute Becker             : All parallelization in ORCA, NUMFREQ, NUMCALC 
  Giovanni Bistoni       : ED, misc. LED, open-shell LED, HFLD           
  Dmytro Bykov           : pre 5.0 version of the SCF Hessian            
  Marcos Casanova-Páez   : Triplet and SCS-CIS(D). UHF-(DLPNO)-IP/EA/STEOM-CCSD. UHF-CVS-IP/STEOM-CCSD   
  Vijay G. Chilkuri      : MRCI spin determinant printing, contributions to CSF-ICE 
  Pauline Colinet        : FMM embedding                                 
  Dipayan Datta          : RHF DLPNO-CCSD density                        
  Achintya Kumar Dutta   : EOM-CC, STEOM-CC                              
  Nicolas Foglia         : Exact transition moments, OPA infrastructure, MCD improvements    
  Dmitry Ganyushin       : Spin-Orbit,Spin-Spin,Magnetic field MRCI      
  Miquel Garcia-Rates    : C-PCM and meta-GGA Hessian, CCSD/C-PCM, Gaussian charge scheme 
  Tiago L. C. Gouveia    : GS-ROHF, GS-ROCIS                             
  Yang Guo               : DLPNO-NEVPT2, F12-NEVPT2, CIM, IAO-localization        
  Andreas Hansen         : Spin unrestricted coupled pair/coupled cluster methods 
  Ingolf Harden          : AUTO-CI MPn and infrastructure                
  Benjamin Helmich-Paris : MC-RPA, TRAH-(SCF,CASSCF), AVAS, COSX integrals, SCF dyn. polar., MC-PDFT, srDFT 
  Lee Huntington         : MR-EOM, pCC                                   
  Robert Izsak           : Overlap fitted RIJCOSX, COSX-SCS-MP3, EOM     
  Riya Kayal             : Wick's Theorem for AUTO-CI, AUTO-CI UHF-CCSDT 
  Emily Kempfer          : AUTO-CI RHF CISDT and CCSDT, approximate NEVPT4
  Christian Kollmar      : KDIIS, OOCD, Brueckner-CCSD(T), CCSD density, CASPT2, CASPT2-K, improved NEVPT2 
  Axel Koslowski         : Symmetry handling                             
  Simone Kossmann        : meta-GGA functionals, TD-DFT gradient, OOMP2, (MP2 Hessian; deprecated post 5.0) 
  Lucas Lang             : DCDCAS, Hyperfine gauge corrections, ICE-SOC+SSC
  Marvin Lechner         : AUTO-CI (C++ implementation), FIC-MRCC        
  Spencer Leger          : CASSCF response                               
  Dagmar Lenk            : GEPOL surface, SMD, ORCA-2-JSON               
  Dimitrios Liakos       : Extrapolation schemes; Compound Job, Property file
  Dimitrios Manganas     : Further ROCIS development; embedding schemes. LFT, Crystal Embedding 
  Dimitrios Pantazis     : SARC Basis sets                               
  Anastasios Papadopoulos: AUTO-CI, single reference methods and gradients 
  Taras Petrenko         : pre 6.0 DFT Hessian and TD-DFT gradient,  ECA, NRVS 
  Petra Pikulova         : Analytic Raman intensities                    
  Peter Pinski           : DLPNO-MP2, DLPNO-MP2 Gradient                 
  Shashank Vittal Rao    : ES-AILFT, MagRelax                            
  Christoph Reimann      : Effective Core Potentials                     
  Marius Retegan         : Local ZFS, SOC                                
  Christoph Riplinger    : Optimizer, TS searches, QM/MM, DLPNO-CCSD(T), (RO)-DLPNO pert. Triples 
  Michael Roemelt        : Original ROCIS implementation, recursive CI coupling coefficients
  Masaaki Saitow         : Open-shell DLPNO-CCSD energy and density      
  Barbara Sandhoefer     : DKH picture change effects                    
  Yorick L. A. Schmerwitz: GMF and freeze-and-release deltaSCF, NEB S-IDPP initial path                    
  Kantharuban Sivalingam : CASSCF convergence/infrastructure, NEVPT2, NEVPT3, NEVPT4(SD), FIC-MRCI and CEPA variants
  Bernardo de Souza      : ESD, SOC TD-DFT                               
  Georgi L. Stoychev     : AutoAux, RI-MP2 NMR, DLPNO-MP2 response, X2C  
  Van Anh Tran           : RI-MP2 g-tensors                              
  Willem Van den Heuvel  : Paramagnetic NMR                              
  Zikuan Wang            : NOTCH, Electric field optimization            
  Frank Wennmohs         : Technical directorship and infrastructure     
  Hang Xu                : AUTO-CI-Response properties                   
                                                                         
[FACCTs GmbH]                                                            
  Markus Bursch, Nicolas Foglia, Miquel Garcia-Rates, Ingolf Harden, Hagen Neugebauer, Anastasios Papadopoulos, 
  Christoph Riplinger, Bernardo de Souza, Georgi L. Stoychev                                                    
                                                                 
  APM, various basis sets, CI-OPT, improved COSX, DLPNO-Multilevel,           
  DOCKER, DRACO, updates on ESD, Fragmentator, GOAT, IRC, LR-CPCM, L-BFGS, MBIS, meta-GGA TD-DFT gradient, ML-optimized integration grids, 
  MM, NACMEs, nearIR, NEB, NEB-TS, NL-DFT gradient (VV10), 2- and 3-layer-ONIOM, interface openCOSMO-RS, QMMM,   
  Crystal-QMMM, RESP, rigid body optimization, SF, symmetry and pop. for TD-DFT, various functionals, SOLVATOR                                   
                                                                         
[Other institutions]                                                     
  V. Asgeirsson          : NEB                                           
  Christoph Bannwarth    : sTDA-DFT, sTD-DFT, PBEh-3c, B97-3c, D3        
  Giovanni Bistoni       : ETS/NOCV, ADLD/ADEX, COVALED                  
  Martin Brehm           : Molecular dynamics                            
  Ronald Cardenas        : ETS/NOCV                                      
  Martina Colucci        : COVALED                                       
  Sebastian Ehlert       : rSCAN, r2SCAN, r2SCAN-3c, D4, dhf basis sets  
  Marvin Friede          : D4 for Fr, Ra, Ac-Lr                          
  Lars Goerigk           : TD-DFT with DH, B97 family of functionals     
  Stefan Grimme          : VdW corrections, initial TS optimization, DFT functionals, gCP, sTDA/sTD-DF 
  Waldemar Hujo          : DFT-NL                                        
  H. Jonsson             : NEB                                           
  Holger Kruse           : gCP                                           
  Marcel Mueller         : wB97X-3c, vDZP basis set                      
  Hagen Neugebauer       : wr2SCAN, Native XTB                           
  Gianluca Regni         : ADLD/ADEX                                     
  Tobias Risthaus        : pre 6.0 range-separated hybrid DFT and stability analysis
  Lukas Wittmann         : regularized MP2, r2SCAN double-hybrids, wr2SCAN        
                                                                         
We gratefully acknowledge several colleagues who have allowed us to      
interface, adapt or use parts of their codes:                            
  Ed Valeev, F. Pavosevic, A. Kumar             : LibInt (2-el integral package), F12 methods 
  Garnet Chan, S. Sharma, J. Yang, R. Olivares  : DMRG                   
  Ulf Ekstrom                                   : XCFun DFT Library      
  Mihaly Kallay                                 : mrcc  (arbitrary order and MRCC methods)
  Frank Weinhold                                : gennbo (NPA and NBO analysis)           
  Simon Mueller                                 : openCOSMO-RS                            
  Christopher J. Cramer and Donald G. Truhlar   : smd solvation model                     
  S Lehtola, MJT Oliveira, MAL Marques          : LibXC Library                           
  Liviu Ungur et al                             : ANISO software                          


 Your calculation uses the libint2 library for the computation of 2-el integrals
 For citations please refer to: http://libint.valeyev.net

 Your ORCA version has been built with support for libXC version: 7.0.0
 For citations please refer to: https://libxc.gitlab.io

 This ORCA versions uses:
   CBLAS   interface :  Fast vector & matrix operations
   LAPACKE interface :  Fast linear algebra routines
   SCALAPACK package :  Parallel linear algebra routines
   Shared memory     :  Shared parallel matrices
   BLAS/LAPACK       :  OpenBLAS 0.3.29  USE64BITINT DYNAMIC_ARCH NO_AFFINITY Haswell SINGLE_THREADED
        Core in use  :  Haswell
   Copyright (c) 2011-2014, The OpenBLAS Project


  ***********************************
  * Starting time: Wed Aug 13 12:04:57 2025
  * Host name:     CHEMLAB02
  * Process ID:    1531797
  * Working dir.:  /home/vivek/mm-project/vivek/B97-D/e/4
  ***********************************



***************************************
The coordinates will be read from file: /home/vivek/mm-project/vivek/xtb-goat/e/E_CONF/4.xyz
***************************************


Your calculation utilizes empirical dispersion correction


Warning: RI is on but no J-basis has been assigned. Assigning Def2/J (nothing to worry about!)
================================================================================

----- Orbital basis set information -----
Your calculation utilizes the basis: 6-31G**
   H-He, Li-Ne : W. J. Hehre, R. Ditchfield and J.A. Pople, J. Chem. Phys. 56, 2257 (1972).
                 Note: He and Ne are unpublished basis sets taken from the Gaussian program.
                 Note: Li and B from J. D. Dill and J. A. Pople, J. Chem. Phys. 62, 2921 (1975).
   Na - Ar     : M. M. Francl, W. J. Pietro, W. J. Hehre, J. S. Binkley, M. S. Gordon, 
                 D. J. DeFrees and J. A. Pople, J. Chem. Phys. 77, 3654 (1982).
   K - Zn      : V. A. Rassolov, J. A. Pople, M. A. Ratner, and T. L. Windus, J. Chem. Phys. 109, 1223 (1998).

----- AuxJ basis set information -----
Your calculation utilizes the auxiliary basis: def2/J
   H-Rn: F. Weigend, Phys. Chem. Chem. Phys. 8, 1057 (2006).
   Fr-Lr: K. Eichkorn, F. Weigend, O. Treutler, R. Ahlrichs; Theor. Chem. Acc. 97, 119 (1997).

================================================================================
                                        WARNINGS
                       Please study these warnings very carefully!
================================================================================


INFO   : The exchange functional is Grimme's B97(-D)
         As described in S. Grimme, J. Comput. Chem. 27, 1787 (2006).
         Note that this functional defaults to a pure GGA. 

INFO   : The correlation functional is Grimme's B97(-D)
         As described in S. Grimme, J. Comput. Chem. 27, 1787 (2006).

================================================================================
                                       INPUT FILE
================================================================================
NAME = 4.inp
|  1> ! B97-D 6-31G** 
|  2> 
|  3> * xyzfile 0 1 /home/vivek/mm-project/vivek/xtb-goat/e/E_CONF/4.xyz
|  4> 
|  5>                          ****END OF INPUT****
================================================================================

                       ****************************
                       * Single Point Calculation *
                       ****************************

---------------------------------
CARTESIAN COORDINATES (ANGSTROEM)
---------------------------------
  C     -2.403654   -0.712675   -0.366593
  C     -1.955428    0.366790   -1.324185
  H      0.699481    2.894841    1.424932
  H     -0.926922    2.996535    1.610625
  O     -3.568183   -0.409543    0.208246
  C     -1.660356    1.672308   -0.578392
  H     -1.072933    0.017376   -1.860526
  H     -2.767490    0.539010   -2.032008
  C     -0.360018    1.612043    0.234896
  H     -1.568332    2.494143   -1.288208
  H     -2.487147    1.893962    0.098749
  C     -0.420229    0.443088    1.216626
  O     -1.212818    0.358624    2.120095
  N     -0.184407    2.878560    0.927623
  H     -3.808532   -1.075885    0.870803
  O      0.537891   -0.450650    0.991892
  H      0.494651    1.456527   -0.430731
  O     -1.808529   -1.731573   -0.133650
  H      0.443979   -1.224159    1.571702

----------------------------
CARTESIAN COORDINATES (A.U.)
----------------------------
  NO LB      ZA    FRAG     MASS         X           Y           Z
   0 C     6.0000    0    12.011   -4.542248   -1.346760   -0.692761
   1 C     6.0000    0    12.011   -3.695223    0.693133   -2.502348
   2 H     1.0000    0     1.008    1.321828    5.470456    2.692732
   3 H     1.0000    0     1.008   -1.751628    5.662631    3.043640
   4 O     8.0000    0    15.999   -6.742889   -0.773924    0.393528
   5 C     6.0000    0    12.011   -3.137618    3.160205   -1.093003
   6 H     1.0000    0     1.008   -2.027549    0.032837   -3.515885
   7 H     1.0000    0     1.008   -5.229797    1.018580   -3.839938
   8 C     6.0000    0    12.011   -0.680335    3.046319    0.443890
   9 H     1.0000    0     1.008   -2.963717    4.713247   -2.434360
  10 H     1.0000    0     1.008   -4.700027    3.579070    0.186609
  11 C     6.0000    0    12.011   -0.794118    0.837315    2.299091
  12 O     8.0000    0    15.999   -2.291894    0.677701    4.006399
  13 N     7.0000    0    14.007   -0.348479    5.439689    1.752953
  14 H     1.0000    0     1.008   -7.197082   -2.033127    1.645579
  15 O     8.0000    0    15.999    1.016467   -0.851605    1.874404
  16 H     1.0000    0     1.008    0.934755    2.752438   -0.813963
  17 O     8.0000    0    15.999   -3.417624   -3.272198   -0.252561
  18 H     1.0000    0     1.008    0.838998   -2.313325    2.970087

--------------------------------
INTERNAL COORDINATES (ANGSTROEM)
--------------------------------
 C      0   0   0     0.000000000000     0.00000000     0.00000000
 C      1   0   0     1.511004511064     0.00000000     0.00000000
 H      2   1   0     4.582273337415   100.70744613     0.00000000
 H      3   2   1     1.640125068741    61.80937980   285.66531391
 O      1   2   3     1.333587914604   111.70467439    93.34183091
 C      2   1   3     1.532204966989   110.93831832   331.60326501
 H      2   1   3     1.090206087448   108.84052174    93.88289281
 H      2   1   3     1.090924542069   107.64735173   212.49229206
 C      6   2   1     1.534910318419   112.80533707    73.04627722
 H      6   2   1     1.089824734811   109.98469100   193.23651746
 H      6   2   1     1.091436869851   109.21640308   312.02708537
 C      9   6   2     1.527702079081   109.70345161   303.37692876
 O     12   9   6     1.204818470217   124.15662669   296.41070917
 N      3   2   1     1.014318042035    36.10995306   250.75624581
 H      5   1   2     0.969927590907   110.77356084   184.47983924
 O     12   9   6     1.329386399569   112.17142095   118.81177166
 H      9   6   2     1.094396395961   110.17645082    62.43398889
 O      1   2   3     1.202742765617   125.53248198   273.11746248
 H     16  12   9     0.971244183558   111.39605890   184.84305238

---------------------------
INTERNAL COORDINATES (A.U.)
---------------------------
 C      0   0   0     0.000000000000     0.00000000     0.00000000
 C      1   0   0     2.855384713031     0.00000000     0.00000000
 H      2   1   0     8.659241678483   100.70744613     0.00000000
 H      3   2   1     3.099387205299    61.80937980   285.66531391
 O      1   2   3     2.520115934108   111.70467439    93.34183091
 C      2   1   3     2.895447768642   110.93831832   331.60326501
 H      2   1   3     2.060190934810   108.84052174    93.88289281
 H      2   1   3     2.061548617284   107.64735173   212.49229206
 C      6   2   1     2.900560141942   112.80533707    73.04627722
 H      6   2   1     2.059470282766   109.98469100   193.23651746
 H      6   2   1     2.062516776483   109.21640308   312.02708537
 C      9   6   2     2.886938543685   109.70345161   303.37692876
 O     12   9   6     2.276776949801   124.15662669   296.41070917
 N      3   2   1     1.916783312142    36.10995306   250.75624581
 H      5   1   2     1.832897516549   110.77356084   184.47983924
 O     12   9   6     2.512176221346   112.17142095   118.81177166
 H      9   6   2     2.068109470316   110.17645082    62.43398889
 O      1   2   3     2.272854436571   125.53248198   273.11746248
 H     16  12   9     1.835385516089   111.39605890   184.84305238

---------------------
BASIS SET INFORMATION
---------------------
There are 4 groups of distinct atoms

 Group   1 Type C   : 10s4p1d contracted to 3s2p1d pattern {631/31/1}
 Group   2 Type H   : 4s1p contracted to 2s1p pattern {31/1}
 Group   3 Type O   : 10s4p1d contracted to 3s2p1d pattern {631/31/1}
 Group   4 Type N   : 10s4p1d contracted to 3s2p1d pattern {631/31/1}

Atom   0C    basis set group =>   1
Atom   1C    basis set group =>   1
Atom   2H    basis set group =>   2
Atom   3H    basis set group =>   2
Atom   4O    basis set group =>   3
Atom   5C    basis set group =>   1
Atom   6H    basis set group =>   2
Atom   7H    basis set group =>   2
Atom   8C    basis set group =>   1
Atom   9H    basis set group =>   2
Atom  10H    basis set group =>   2
Atom  11C    basis set group =>   1
Atom  12O    basis set group =>   3
Atom  13N    basis set group =>   4
Atom  14H    basis set group =>   2
Atom  15O    basis set group =>   3
Atom  16H    basis set group =>   2
Atom  17O    basis set group =>   3
Atom  18H    basis set group =>   2
---------------------------------
AUXILIARY/J BASIS SET INFORMATION
---------------------------------
There are 4 groups of distinct atoms

 Group   1 Type C   : 12s5p4d2f1g contracted to 6s4p3d1f1g pattern {711111/2111/211/2/1}
 Group   2 Type H   : 5s2p1d contracted to 3s1p1d pattern {311/2/1}
 Group   3 Type O   : 12s5p4d2f1g contracted to 6s4p3d1f1g pattern {711111/2111/211/2/1}
 Group   4 Type N   : 12s5p4d2f1g contracted to 6s4p3d1f1g pattern {711111/2111/211/2/1}

Atom   0C    basis set group =>   1
Atom   1C    basis set group =>   1
Atom   2H    basis set group =>   2
Atom   3H    basis set group =>   2
Atom   4O    basis set group =>   3
Atom   5C    basis set group =>   1
Atom   6H    basis set group =>   2
Atom   7H    basis set group =>   2
Atom   8C    basis set group =>   1
Atom   9H    basis set group =>   2
Atom  10H    basis set group =>   2
Atom  11C    basis set group =>   1
Atom  12O    basis set group =>   3
Atom  13N    basis set group =>   4
Atom  14H    basis set group =>   2
Atom  15O    basis set group =>   3
Atom  16H    basis set group =>   2
Atom  17O    basis set group =>   3
Atom  18H    basis set group =>   2
------------------------------------------------------------------------------
                             ORCA STARTUP CALCULATIONS
                           -- RI-GTO INTEGRALS CHOSEN --
------------------------------------------------------------------------------
------------------------------------------------------------------------------
                   ___                                                        
                  /   \      - P O W E R E D   B Y -                         
                 /     \                                                     
                 |  |  |   _    _      __       _____    __    __             
                 |  |  |  | |  | |    /  \     |  _  \  |  |  /  |          
                  \  \/   | |  | |   /    \    | | | |  |  | /  /          
                 / \  \   | |__| |  /  /\  \   | |_| |  |  |/  /          
                |  |  |   |  __  | /  /__\  \  |    /   |      \           
                |  |  |   | |  | | |   __   |  |    \   |  |\   \          
                \     /   | |  | | |  |  |  |  | |\  \  |  | \   \       
                 \___/    |_|  |_| |__|  |__|  |_| \__\ |__|  \__/        
                                                                              
                      - O R C A' S   B I G   F R I E N D -                    
                                      &                                       
                       - I N T E G R A L  F E E D E R -                       
                                                                              
 v1 FN, 2020, v2 2021, v3 2022-2024                                           
------------------------------------------------------------------------------


----------------------
SHARK INTEGRAL PACKAGE
----------------------

Number of atoms                             ...     19
Number of basis functions                   ...    185
Number of shells                            ...     87
Maximum angular momentum                    ...      2
Integral batch strategy                     ... SHARK/LIBINT Hybrid
RI-J (if used) integral strategy            ... SPLIT-RIJ (Revised 2003 algorithm where possible)
Printlevel                                  ...      1
Contraction scheme used                     ... SEGMENTED contraction
Prescreening option                         ... SCHWARTZ
   Thresh                                   ... 1.000e-10
   Tcut                                     ... 1.000e-11
   Tpresel                                  ... 1.000e-11 
Coulomb Range Separation                    ... NOT USED
Exchange Range Separation                   ... NOT USED
Multipole approximations                    ... NOT USED
Finite Nucleus Model                        ... NOT USED
CABS basis                                  ... NOT available
Auxiliary Coulomb fitting basis             ... AVAILABLE
   # of basis functions in Aux-J            ...    589
   # of shells in Aux-J                     ...    195
   Maximum angular momentum in Aux-J        ...      4
Auxiliary J/K fitting basis                 ... NOT available
Auxiliary Correlation fitting basis         ... NOT available
Auxiliary 'external' fitting basis          ... NOT available

Checking pre-screening integrals            ... done (  0.0 sec) Dimension = 87
   => SHARK Basis and OBASIS are compatible. Storing Pre-screening
Shell pair information
Shell pair cut-off parameter TPreSel        ...   1.0e-11
Total number of shell pairs                 ...      3828
Shell pairs after pre-screening             ...      3475
Total number of primitive shell pairs       ...     19347
Primitive shell pairs kept                  ...     11373
          la=0 lb=0:   1052 shell pairs
          la=1 lb=0:   1254 shell pairs
          la=1 lb=1:    398 shell pairs
          la=2 lb=0:    449 shell pairs
          la=2 lb=1:    269 shell pairs
          la=2 lb=2:     53 shell pairs

Checking whether 4 symmetric matrices of dimension 185 fit in memory
:Max Core in MB      =   4096.00
 MB in use           =      8.15
 MB left             =   4087.85
 MB needed           =      0.53
 Data fit in memory  = YES
Calculating RI/J V-Matrix + Cholesky decomp.... done (  0.0 sec)
Calculating Nuclear repulsion               ... done (  0.0 sec) ENN=    585.456807533265 Eh

Diagonalization of the overlap matrix:
Smallest eigenvalue                        ... 2.894e-03
Time for diagonalization                   ...    0.002 sec
Threshold for overlap eigenvalues          ... 1.000e-07
Number of eigenvalues below threshold      ... 0
Time for construction of square roots      ...    0.001 sec
Total time needed                          ...    0.002 sec

-------------------
DFT GRID GENERATION
-------------------

General Integration Accuracy     IntAcc      ... 4.388
Radial Grid Type                 RadialGrid  ... OptM3 with GC (2021)
Angular Grid (max. ang.)         AngularGrid ... 4 (Lebedev-302)
Angular grid pruning method      GridPruning ... 4 (adaptive)
Weight generation scheme         WeightScheme... mBecke (2022)
Basis function cutoff            BFCut       ... 1.0000e-10
Integration weight cutoff        WCut        ... 1.0000e-14
Partially contracted basis set               ... off
Rotationally invariant grid construction     ... off
Angular grids for H and He will be reduced by one unit

Total number of grid points                  ...    89129
Total number of batches                      ...     1403
Average number of points per batch           ...       63
Average number of grid points per atom       ...     4691
Grids setup in   0.4 sec
Initializing property integral containers    ... done (  0.0 sec)

SHARK setup successfully completed in   0.4 seconds

Maximum memory used throughout the entire STARTUP-calculation: 37.8 MB
-------------------------------------------------------------------------------
                                 ORCA GUESS
                   Start orbitals & Density for SCF / CASSCF
-------------------------------------------------------------------------------

------------
SCF SETTINGS
------------
Hamiltonian:
 Density Functional     Method          .... DFT(GTOs)
 Exchange Functional    Exchange        .... B97(D)
 Correlation Functional Correlation     .... B97(D)
 Gradients option       PostSCFGGA      .... off
 RI-approximation to the Coulomb term is turned on
   Number of AuxJ basis functions       .... 589


General Settings:
 Integral files         IntName         .... 4
 Hartree-Fock type      HFTyp           .... RHF
 Total Charge           Charge          ....    0
 Multiplicity           Mult            ....    1
 Number of Electrons    NEL             ....   78
 Basis Dimension        Dim             ....  185
 Nuclear Repulsion      ENuc            ....    585.4568075333 Eh

Convergence Acceleration:
 AO-DIIS                CNVDIIS         .... on
   Start iteration      DIISMaxIt       ....    12
   Startup error        DIISStart       ....  0.200000
   # of expansion vecs  DIISMaxEq       ....     5
   Bias factor          DIISBfac        ....   1.050
   Max. coefficient     DIISMaxC        ....  10.000
 MO-DIIS                CNVKDIIS        .... off
 Trust-Rad. Augm. Hess. CNVTRAH         .... auto
   Auto Start mean grad. ratio tolernc. ....  1.125000
   Auto Start start iteration           ....    50
   Auto Start num. interpolation iter.  ....    10
   Max. Number of Micro iterations      ....    24
   Max. Number of Macro iterations      .... Maxiter - #DIIS iter
   Number of Davidson start vectors     ....     2
   Converg. threshold    (grad. norm)   ....   5.000e-05
   Grad. Scal. Fac. for Micro threshold ....   0.100
   Minimum threshold for Micro iter.    ....   1.000e-02
   NR start threshold (gradient norm)   ....   1.000e-04
   Initial trust radius                 ....   0.400
   Minimum AH scaling param. (alpha)    ....   1.000
   Maximum AH scaling param. (alpha)    .... 1000.000
   Quad. conv. algorithm                .... NR
   White noise on init. David. guess    .... on
   Maximum white noise                  ....   0.010
   Pseudo random numbers                .... off
   Inactive MOs                         .... canonical
   Orbital update algorithm             .... Taylor
   Preconditioner                       .... Diag
   Full preconditioner red. dimension   ....   250
 SOSCF                 CNVSOSCF           .... on
   Start iteration     SOSCFMaxIt         ....   150
   Startup grad/error  SOSCFStart         ....  0.003300
   Hessian update      SOSCFHessUp        .... L-BFGS
   Autom. constraints  SOSCFAutoConstrain .... off
 Level Shifting         CNVShift        .... on
   Level shift para.    LevelShift      ....    0.2500
   Turn off err/grad.   ShiftErr        ....    0.0010
 Zerner damping         CNVZerner       .... off
 Static damping         CNVDamp         .... on
   Fraction old density DampFac         ....    0.7000
   Max. Damping (<1)    DampMax         ....    0.9800
   Min. Damping (>=0)   DampMin         ....    0.0000
   Turn off err/grad.   DampErr         ....    0.1000

SCF Procedure:
 Maximum # iterations   MaxIter         ....   125
 SCF integral mode      SCFMode         .... Direct
   Integral package                     .... SHARK and LIBINT hybrid scheme
 Reset frequency        DirectResetFreq ....    20
 Integral Threshold     Thresh          ....  1.000e-10 Eh
 Primitive CutOff       TCut            ....  1.000e-11 Eh

Convergence Tolerance:
 Convergence Check Mode ConvCheckMode   .... Total+1el-Energy
 Convergence forced     ConvForced      .... 0
 Energy Change          TolE            ....  1.000e-06 Eh
 1-El. energy change                    ....  1.000e-03 Eh
 Orbital Gradient       TolG            ....  5.000e-05
 Orbital Rotation angle TolX            ....  5.000e-05
 DIIS Error             TolErr          ....  1.000e-06

------------------------------
INITIAL GUESS: MODEL POTENTIAL
------------------------------
Loading Hartree-Fock densities                     ... done
Calculating cut-offs                               ... done
Initializing the effective Hamiltonian             ... done
Setting up the integral package (SHARK)            ... done
Starting the Coulomb interaction                   ... done (   0.1 sec)
Making the grid                                    ... done (   0.1 sec)
Mapping shells                                     ... done
Starting the XC term evaluation                    ... done (   0.1 sec)
  promolecular density results
     # of electrons  =     77.993680533
     EX              =    -66.728251796
     EC              =     -3.511537195
     EX+EC           =    -70.239788991
Transforming the Hamiltonian                       ... done (   0.0 sec)
Diagonalizing the Hamiltonian                      ... done (   0.0 sec)
Back transforming the eigenvectors                 ... done (   0.0 sec)
Now organizing SCF variables                       ... done
                      ------------------
                      INITIAL GUESS DONE (   0.3 sec)
                      ------------------
             **** ENERGY FILE WAS UPDATED (4.en.tmp) ****
Finished Guess after   0.3 sec
Maximum memory used throughout the entire GUESS-calculation: 13.5 MB

-------------------------------------------------------------------------------------------
                                      ORCA LEAN-SCF
                              memory conserving SCF solver
-------------------------------------------------------------------------------------------

----------------------------------------D-I-I-S--------------------------------------------
Iteration    Energy (Eh)           Delta-E    RMSDP     MaxDP     DIISErr   Damp  Time(sec)
-------------------------------------------------------------------------------------------
               ***  Starting incremental Fock matrix formation  ***
    1    -550.8630681512219098     0.00e+00  3.97e-03  1.00e-01  2.58e-01  0.700   0.5
    2    -551.0613172893994260    -1.98e-01  2.39e-03  5.14e-02  9.69e-02  0.700   0.5
                               ***Turning on AO-DIIS***
    3    -551.1189716333914248    -5.77e-02  8.84e-04  1.58e-02  2.73e-02  0.700   0.5
    4    -551.1582980570902919    -3.93e-02  1.18e-03  2.05e-02  1.61e-02  0.000   0.5
    5    -551.2505176389882990    -9.22e-02  4.07e-04  8.86e-03  9.97e-03  0.000   0.5
                              *** Initializing SOSCF ***
---------------------------------------S-O-S-C-F--------------------------------------
Iteration    Energy (Eh)           Delta-E    RMSDP     MaxDP     MaxGrad    Time(sec)
--------------------------------------------------------------------------------------
    6    -551.2514236504415521    -9.06e-04  1.43e-04  2.51e-03  2.93e-03     0.5
               *** Restarting incremental Fock matrix formation ***
    7    -551.2514894604422580    -6.58e-05  1.28e-04  2.90e-03  6.67e-04     0.5
    8    -551.2514613110710116     2.81e-05  7.13e-05  2.08e-03  1.79e-03     0.4
    9    -551.2515002661340304    -3.90e-05  4.58e-05  9.86e-04  1.88e-04     0.4
   10    -551.2514974349966224     2.83e-06  2.68e-05  5.59e-04  3.07e-04     0.4
   11    -551.2515019628432356    -4.53e-06  1.02e-05  2.81e-04  4.97e-05     0.4
   12    -551.2515017586450767     2.04e-07  6.37e-06  1.82e-04  9.09e-05     0.4
                 **** Energy Check signals convergence ****

               *****************************************************
               *                     SUCCESS                       *
               *           SCF CONVERGED AFTER  12 CYCLES          *
               *****************************************************

             **** ENERGY FILE WAS UPDATED (4.en.tmp) ****

----------------
TOTAL SCF ENERGY
----------------

Total Energy       :       -551.25150205532407 Eh          -15000.31597 eV

Components:
Nuclear Repulsion  :        585.45680753326531 Eh           15931.08965 eV
Electronic Energy  :      -1136.70830958858960 Eh          -30931.40563 eV
One Electron Energy:      -1916.19274296883282 Eh          -52142.25540 eV
Two Electron Energy:        779.48443338024333 Eh           21210.84977 eV

Virial components:
Potential Energy   :      -1099.78885944034892 Eh          -29926.77631 eV
Kinetic Energy     :        548.53735738502473 Eh           14926.46034 eV
Virial Ratio       :          2.00494796686818

DFT components:
N(Alpha)           :       39.000030818451 electrons
N(Beta)            :       39.000030818451 electrons
N(Total)           :       78.000061636901 electrons
E(X)               :      -68.098654287914 Eh       
E(C)               :       -3.499536355324 Eh       
E(XC)              :      -71.598190643238 Eh       

---------------
SCF CONVERGENCE
---------------

  Last Energy change         ...   -2.0420e-07  Tolerance :   1.0000e-06
  Last MAX-Density change    ...    1.8243e-04  Tolerance :   1.0000e-05
  Last RMS-Density change    ...    6.3664e-06  Tolerance :   1.0000e-06
  Last DIIS Error            ...    2.9271e-03  Tolerance :   1.0000e-06
  Last Orbital Gradient      ...    9.0916e-05  Tolerance :   5.0000e-05
  Last Orbital Rotation      ...    1.2694e-04  Tolerance :   5.0000e-05


----------------
ORBITAL ENERGIES
----------------

  NO   OCC          E(Eh)            E(eV) 
   0   2.0000     -18.810147      -511.8501 
   1   2.0000     -18.808526      -511.8060 
   2   2.0000     -18.750270      -510.2208 
   3   2.0000     -18.747556      -510.1469 
   4   2.0000     -13.995072      -380.8253 
   5   2.0000     -10.029896      -272.9273 
   6   2.0000     -10.025115      -272.7972 
   7   2.0000      -9.948804      -270.7207 
   8   2.0000      -9.922251      -269.9982 
   9   2.0000      -9.917741      -269.8755 
  10   2.0000      -1.020411       -27.7668 
  11   2.0000      -1.015512       -27.6335 
  12   2.0000      -0.929352       -25.2889 
  13   2.0000      -0.927137       -25.2287 
  14   2.0000      -0.821329       -22.3495 
  15   2.0000      -0.729368       -19.8471 
  16   2.0000      -0.650891       -17.7116 
  17   2.0000      -0.603009       -16.4087 
  18   2.0000      -0.555538       -15.1170 
  19   2.0000      -0.523412       -14.2428 
  20   2.0000      -0.469441       -12.7741 
  21   2.0000      -0.440646       -11.9906 
  22   2.0000      -0.435210       -11.8427 
  23   2.0000      -0.420127       -11.4322 
  24   2.0000      -0.415214       -11.2985 
  25   2.0000      -0.410676       -11.1751 
  26   2.0000      -0.387045       -10.5320 
  27   2.0000      -0.376840       -10.2543 
  28   2.0000      -0.356702        -9.7064 
  29   2.0000      -0.351873        -9.5750 
  30   2.0000      -0.332548        -9.0491 
  31   2.0000      -0.320214        -8.7135 
  32   2.0000      -0.315374        -8.5818 
  33   2.0000      -0.303967        -8.2714 
  34   2.0000      -0.272165        -7.4060 
  35   2.0000      -0.265560        -7.2263 
  36   2.0000      -0.229675        -6.2498 
  37   2.0000      -0.216166        -5.8822 
  38   2.0000      -0.195823        -5.3286 
  39   0.0000      -0.028605        -0.7784 
  40   0.0000      -0.004289        -0.1167 
  41   0.0000       0.055449         1.5088 
  42   0.0000       0.064236         1.7479 
  43   0.0000       0.076865         2.0916 
  44   0.0000       0.094848         2.5810 
  45   0.0000       0.102034         2.7765 
  46   0.0000       0.134524         3.6606 
  47   0.0000       0.141540         3.8515 
  48   0.0000       0.153257         4.1703 
  49   0.0000       0.165416         4.5012 
*Only the first 10 virtual orbitals were printed.

                    ********************************
                    * MULLIKEN POPULATION ANALYSIS *
                    ********************************

-----------------------
MULLIKEN ATOMIC CHARGES
-----------------------
   0 C :    0.506434
   1 C :   -0.255482
   2 H :    0.243957
   3 H :    0.249272
   4 O :   -0.447703
   5 C :   -0.201683
   6 H :    0.136966
   7 H :    0.136165
   8 C :   -0.026009
   9 H :    0.127134
  10 H :    0.135897
  11 C :    0.498635
  12 O :   -0.436545
  13 N :   -0.561505
  14 H :    0.322648
  15 O :   -0.444206
  16 H :    0.121850
  17 O :   -0.427947
  18 H :    0.322126
Sum of atomic charges:    0.0000000

--------------------------------
MULLIKEN REDUCED ORBITAL CHARGES
--------------------------------
  0 C s       :     2.985008  s :     2.985008
      pz      :     0.806265  p :     2.381192
      px      :     0.735879
      py      :     0.839049
      dz2     :     0.013768  d :     0.127367
      dxz     :     0.020192
      dyz     :     0.024948
      dx2y2   :     0.039140
      dxy     :     0.029319

  1 C s       :     3.246838  s :     3.246838
      pz      :     0.983998  p :     2.974520
      px      :     1.044997
      py      :     0.945525
      dz2     :     0.002799  d :     0.034125
      dxz     :     0.009512
      dyz     :     0.009185
      dx2y2   :     0.007111
      dxy     :     0.005518

  2 H s       :     0.732104  s :     0.732104
      pz      :     0.007340  p :     0.023939
      px      :     0.010241
      py      :     0.006358

  3 H s       :     0.726890  s :     0.726890
      pz      :     0.008778  p :     0.023838
      px      :     0.008675
      py      :     0.006385

  4 O s       :     3.822045  s :     3.822045
      pz      :     1.502886  p :     4.602917
      px      :     1.471449
      py      :     1.628582
      dz2     :     0.002137  d :     0.022741
      dxz     :     0.003506
      dyz     :     0.006018
      dx2y2   :     0.006197
      dxy     :     0.004883

  5 C s       :     3.237570  s :     3.237570
      pz      :     1.002909  p :     2.928080
      px      :     0.971666
      py      :     0.953505
      dz2     :     0.002853  d :     0.036033
      dxz     :     0.010023
      dyz     :     0.009767
      dx2y2   :     0.009329
      dxy     :     0.004062

  6 H s       :     0.851700  s :     0.851700
      pz      :     0.003353  p :     0.011335
      px      :     0.005181
      py      :     0.002801

  7 H s       :     0.851956  s :     0.851956
      pz      :     0.004319  p :     0.011880
      px      :     0.004789
      py      :     0.002772

  8 C s       :     3.196571  s :     3.196571
      pz      :     0.924725  p :     2.772127
      px      :     1.014112
      py      :     0.833290
      dz2     :     0.007576  d :     0.057311
      dxz     :     0.011004
      dyz     :     0.015923
      dx2y2   :     0.016304
      dxy     :     0.006505

  9 H s       :     0.861336  s :     0.861336
      pz      :     0.004016  p :     0.011530
      px      :     0.002508
      py      :     0.005007

 10 H s       :     0.852433  s :     0.852433
      pz      :     0.004098  p :     0.011669
      px      :     0.004992
      py      :     0.002580

 11 C s       :     2.996745  s :     2.996745
      pz      :     0.846053  p :     2.378588
      px      :     0.724059
      py      :     0.808476
      dz2     :     0.025437  d :     0.126032
      dxz     :     0.021034
      dyz     :     0.027091
      dx2y2   :     0.023425
      dxy     :     0.029045

 12 O s       :     3.866399  s :     3.866399
      pz      :     1.409538  p :     4.542207
      px      :     1.454127
      py      :     1.678542
      dz2     :     0.008514  d :     0.027940
      dxz     :     0.007409
      dyz     :     0.004607
      dx2y2   :     0.003767
      dxy     :     0.003644

 13 N s       :     3.600449  s :     3.600449
      pz      :     1.374824  p :     3.932477
      px      :     1.146367
      py      :     1.411286
      dz2     :     0.002892  d :     0.028579
      dxz     :     0.012011
      dyz     :     0.003524
      dx2y2   :     0.007609
      dxy     :     0.002543

 14 H s       :     0.639262  s :     0.639262
      pz      :     0.015029  p :     0.038090
      px      :     0.008338
      py      :     0.014723

 15 O s       :     3.824699  s :     3.824699
      pz      :     1.661457  p :     4.596461
      px      :     1.607705
      py      :     1.327298
      dz2     :     0.002628  d :     0.023047
      dxz     :     0.003910
      dyz     :     0.006582
      dx2y2   :     0.005302
      dxy     :     0.004625

 16 H s       :     0.867324  s :     0.867324
      pz      :     0.003808  p :     0.010826
      px      :     0.004997
      py      :     0.002021

 17 O s       :     3.861321  s :     3.861321
      pz      :     1.559687  p :     4.538618
      px      :     1.588415
      py      :     1.390516
      dz2     :     0.002977  d :     0.028008
      dxz     :     0.002904
      dyz     :     0.006411
      dx2y2   :     0.008446
      dxy     :     0.007269

 18 H s       :     0.640069  s :     0.640069
      pz      :     0.013254  p :     0.037806
      px      :     0.007860
      py      :     0.016692



                     *******************************
                     * LOEWDIN POPULATION ANALYSIS *
                     *******************************

----------------------
LOEWDIN ATOMIC CHARGES
----------------------
   0 C :    0.110810
   1 C :   -0.145159
   2 H :    0.127187
   3 H :    0.128946
   4 O :   -0.132071
   5 C :   -0.110284
   6 H :    0.087315
   7 H :    0.093279
   8 C :   -0.045202
   9 H :    0.081024
  10 H :    0.081329
  11 C :    0.093220
  12 O :   -0.231900
  13 N :   -0.240157
  14 H :    0.184980
  15 O :   -0.122764
  16 H :    0.077903
  17 O :   -0.223265
  18 H :    0.184809

-------------------------------
LOEWDIN REDUCED ORBITAL CHARGES
-------------------------------
  0 C s       :     2.847548  s :     2.847548
      pz      :     0.870744  p :     2.739742
      px      :     0.884362
      py      :     0.984636
      dz2     :     0.031804  d :     0.301901
      dxz     :     0.046056
      dyz     :     0.058753
      dx2y2   :     0.091695
      dxy     :     0.073592

  1 C s       :     2.906610  s :     2.906610
      pz      :     1.050562  p :     3.161667
      px      :     1.081259
      py      :     1.029846
      dz2     :     0.005444  d :     0.076882
      dxz     :     0.019952
      dyz     :     0.023123
      dx2y2   :     0.016480
      dxy     :     0.011883

  2 H s       :     0.793857  s :     0.793857
      pz      :     0.023933  p :     0.078956
      px      :     0.036288
      py      :     0.018736

  3 H s       :     0.791581  s :     0.791581
      pz      :     0.030691  p :     0.079473
      px      :     0.029658
      py      :     0.019123

  4 O s       :     3.465404  s :     3.465404
      pz      :     1.500773  p :     4.615973
      px      :     1.493797
      py      :     1.621403
      dz2     :     0.004914  d :     0.050694
      dxz     :     0.011364
      dyz     :     0.011591
      dx2y2   :     0.012834
      dxy     :     0.009990

  5 C s       :     2.903469  s :     2.903469
      pz      :     1.056150  p :     3.126135
      px      :     1.042418
      py      :     1.027567
      dz2     :     0.005618  d :     0.080680
      dxz     :     0.022668
      dyz     :     0.021963
      dx2y2   :     0.021982
      dxy     :     0.008449

  6 H s       :     0.872508  s :     0.872508
      pz      :     0.011567  p :     0.040176
      px      :     0.019839
      py      :     0.008770

  7 H s       :     0.865971  s :     0.865971
      pz      :     0.015203  p :     0.040750
      px      :     0.017352
      py      :     0.008195

  8 C s       :     2.884006  s :     2.884006
      pz      :     1.011223  p :     3.031303
      px      :     1.059215
      py      :     0.960865
      dz2     :     0.014877  d :     0.129893
      dxz     :     0.025220
      dyz     :     0.039194
      dx2y2   :     0.038573
      dxy     :     0.012029

  9 H s       :     0.878661  s :     0.878661
      pz      :     0.014687  p :     0.040315
      px      :     0.007306
      py      :     0.018322

 10 H s       :     0.877683  s :     0.877683
      pz      :     0.014671  p :     0.040987
      px      :     0.018723
      py      :     0.007594

 11 C s       :     2.858265  s :     2.858265
      pz      :     0.957395  p :     2.747518
      px      :     0.882173
      py      :     0.907951
      dz2     :     0.058350  d :     0.300996
      dxz     :     0.053321
      dyz     :     0.064283
      dx2y2   :     0.053675
      dxy     :     0.071367

 12 O s       :     3.554035  s :     3.554035
      pz      :     1.464935  p :     4.619930
      px      :     1.494732
      py      :     1.660264
      dz2     :     0.014499  d :     0.057935
      dxz     :     0.020832
      dyz     :     0.008429
      dx2y2   :     0.007686
      dxy     :     0.006489

 13 N s       :     3.200517  s :     3.200517
      pz      :     1.385523  p :     3.981867
      px      :     1.167013
      py      :     1.429331
      dz2     :     0.004835  d :     0.057774
      dxz     :     0.021884
      dyz     :     0.008128
      dx2y2   :     0.017201
      dxy     :     0.005726

 14 H s       :     0.699274  s :     0.699274
      pz      :     0.045547  p :     0.115746
      px      :     0.023409
      py      :     0.046790

 15 O s       :     3.465687  s :     3.465687
      pz      :     1.644978  p :     4.604913
      px      :     1.613232
      py      :     1.346703
      dz2     :     0.005423  d :     0.052165
      dxz     :     0.006251
      dyz     :     0.014201
      dx2y2   :     0.011839
      dxy     :     0.014451

 16 H s       :     0.882513  s :     0.882513
      pz      :     0.014653  p :     0.039583
      px      :     0.018949
      py      :     0.005982

 17 O s       :     3.552706  s :     3.552706
      pz      :     1.549296  p :     4.612792
      px      :     1.597274
      py      :     1.466222
      dz2     :     0.007103  d :     0.057767
      dxz     :     0.004643
      dyz     :     0.011648
      dx2y2   :     0.015896
      dxy     :     0.018478

 18 H s       :     0.699807  s :     0.699807
      pz      :     0.041710  p :     0.115384
      px      :     0.022577
      py      :     0.051098



                      *****************************
                      * MAYER POPULATION ANALYSIS *
                      *****************************

  NA   - Mulliken gross atomic population
  ZA   - Total nuclear charge
  QA   - Mulliken gross atomic charge
  VA   - Mayer's total valence
  BVA  - Mayer's bonded valence
  FA   - Mayer's free valence

  ATOM       NA         ZA         QA         VA         BVA        FA
  0 C      5.4936     6.0000     0.5064     4.0163     4.0163     0.0000
  1 C      6.2555     6.0000    -0.2555     3.8273     3.8273     0.0000
  2 H      0.7560     1.0000     0.2440     0.9177     0.9177     0.0000
  3 H      0.7507     1.0000     0.2493     0.9272     0.9272     0.0000
  4 O      8.4477     8.0000    -0.4477     2.0511     2.0511    -0.0000
  5 C      6.2017     6.0000    -0.2017     3.8685     3.8685     0.0000
  6 H      0.8630     1.0000     0.1370     0.9541     0.9541     0.0000
  7 H      0.8638     1.0000     0.1362     0.9503     0.9503    -0.0000
  8 C      6.0260     6.0000    -0.0260     3.8678     3.8678     0.0000
  9 H      0.8729     1.0000     0.1271     0.9534     0.9534     0.0000
 10 H      0.8641     1.0000     0.1359     0.9596     0.9596     0.0000
 11 C      5.5014     6.0000     0.4986     3.9458     3.9458    -0.0000
 12 O      8.4365     8.0000    -0.4365     2.0755     2.0755    -0.0000
 13 N      7.5615     7.0000    -0.5615     2.9042     2.9042     0.0000
 14 H      0.6774     1.0000     0.3226     0.9151     0.9151     0.0000
 15 O      8.4442     8.0000    -0.4442     2.0684     2.0684     0.0000
 16 H      0.8782     1.0000     0.1218     0.9507     0.9507    -0.0000
 17 O      8.4279     8.0000    -0.4279     2.0903     2.0903    -0.0000
 18 H      0.6779     1.0000     0.3221     0.9159     0.9159     0.0000

  Mayer bond orders larger than 0.100000
B(  0-C ,  1-C ) :   0.9623 B(  0-C ,  4-O ) :   1.1019 B(  0-C , 17-O ) :   1.8938 
B(  1-C ,  5-C ) :   0.9792 B(  1-C ,  6-H ) :   0.9416 B(  1-C ,  7-H ) :   0.9277 
B(  2-H , 13-N ) :   0.9073 B(  3-H , 13-N ) :   0.8962 B(  4-O , 14-H ) :   0.8524 
B(  5-C ,  8-C ) :   0.9850 B(  5-C ,  9-H ) :   0.9401 B(  5-C , 10-H ) :   0.9317 
B(  8-C , 11-C ) :   0.8955 B(  8-C , 13-N ) :   1.0352 B(  8-C , 16-H ) :   0.9259 
B( 11-C , 12-O ) :   1.8663 B( 11-C , 15-O ) :   1.1064 B( 15-O , 18-H ) :   0.8491 


-------
TIMINGS
-------

Total SCF time: 0 days 0 hours 0 min 5 sec 

Total time                  ....       5.976 sec
Sum of individual times     ....       5.575 sec  ( 93.3%)

SCF preparation             ....       0.025 sec  (  0.4%)
Fock matrix formation       ....       5.497 sec  ( 92.0%)
  Startup                   ....       0.001 sec  (  0.0% of F)
  Split-RI-J                ....       1.995 sec  ( 36.3% of F)
  XC integration            ....       3.886 sec  ( 70.7% of F)
    Basis function eval.    ....       1.353 sec  ( 34.8% of XC)
    Density eval.           ....       0.858 sec  ( 22.1% of XC)
    XC-Functional eval.     ....       0.678 sec  ( 17.4% of XC)
    XC-Potential eval.      ....       0.894 sec  ( 23.0% of XC)
Diagonalization             ....       0.000 sec  (  0.0%)
Density matrix formation    ....       0.004 sec  (  0.1%)
Total Energy calculation    ....       0.001 sec  (  0.0%)
Population analysis         ....       0.003 sec  (  0.0%)
Orbital Transformation      ....       0.006 sec  (  0.1%)
Orbital Orthonormalization  ....       0.000 sec  (  0.0%)
DIIS solution               ....       0.025 sec  (  0.4%)
SOSCF solution              ....       0.014 sec  (  0.2%)
Finished LeanSCF after   6.0 sec

Maximum memory used throughout the entire LEANSCF-calculation: 20.6 MB



-------------------------------------------------------------------------------
                          DFT DISPERSION CORRECTION                            
-------------------------------------------------------------------------------
Active option DFTDOPT                   ...         2   
Final C6-coefficient scaling factor     ...     1.250
Final VDW-radii scaling factor          ...     1.100
Damping factor alpha                    ...    20.000
-------------------------   ----------------
Dispersion correction           -0.028372809
-------------------------   ----------------


-------------------------   --------------------
FINAL SINGLE POINT ENERGY      -551.279874864090
-------------------------   --------------------


------------------------------------------------------------------------------
                              ORCA PROPERTY CALCULATIONS
------------------------------------------------------------------------------

GBWName                                 ... 4.gbw
Number of atoms                         ...     19
Number of basis functions               ...    185
Max core memory                         ...   4096 MB

Electric properties:
Dipole moment                           ... YES
Quadrupole moment                       ...  NO
Static polarizability (Dipole/Dipole)   ...  NO
Static polarizability (Dipole/Quad.)    ...  NO
Static polarizability (Quad./Quad.)     ...  NO
Static polarizability (Velocity)        ...  NO
Static hyperpolarizability              ...  NO

Atomic electric properties:
Dipole moment                           ...  NO
Quadrupole moment                       ...  NO
Static polarizability                   ...  NO

Choice of electric origin               ... Center of mass
Position of electric origin             ...    -2.468028     0.710013     0.695108

General magnetic properties:
Magnetizability                         ...  NO

EPR properties:
g-Tensor (aka g-matrix)                 ...  NO
Zero-Field splitting spin-orbit         ...  NO
Zero-field splitting spin-spin          ...  NO
Hyperfine couplings                     ...  NO (   0 nuclei)
Quadrupole couplings                    ...  NO (   0 nuclei)
Contact density                         ...  NO (   0 nuclei)

NMR properties:
Chemical shifts                         ...  NO (   0 nuclei)
Spin-rotation constants                 ...  NO (   0 nuclei)
Spin-spin couplings                     ...  NO (   0 nuclei,    0 pairs)

Choice of magnetic origin               ... GIAO
Position of magnetic origin             ...     0.000000     0.000000     0.000000

Properties with geometric perturbations:
SCF Hessian                             ...  NO
IR spectrum                             ...  NO
VCD spectrum                            ...  NO
X-ray spectroscopy properties:
SCF XES/XAS/RIXS spectra                ...  NO

SCF SOC stabilization energy            ...  NO
Diagonal Born-Oppenheimer correction    ...  NO

-------------
DIPOLE MOMENT
-------------

Method             : SCF
Type of density    : Electron Density
Multiplicity       :   1
Irrep              :   0
Energy             :  -551.2515020553240674 Eh
Basis              : AO
                                X                 Y                 Z
Electronic contribution:     -0.676743424      -6.038641775       3.122307091
Nuclear contribution   :      0.707867145       6.160669399      -3.109920011
                        -----------------------------------------
Total Dipole Moment    :      0.031123720       0.122027624       0.012387079
                        -----------------------------------------
Magnitude (a.u.)       :      0.126541956
Magnitude (Debye)      :      0.321644091



--------------------
Rotational spectrum 
--------------------
 
Rotational constants in cm-1:             0.063023             0.038236             0.031495 
Rotational constants in MHz :          1889.369147          1146.281657           944.187771 

Dipole components along the rotational axes: 
x,y,z [a.u.] :     0.108223    -0.063293     0.017164 
x,y,z [Debye]:     0.275081    -0.160879     0.043629 

 

Dipole moment calculation done in   0.0 sec 

Maximum memory used throughout the entire PROP-calculation: 11.9 MB

--------------------------------
SUGGESTED CITATIONS FOR THIS RUN
--------------------------------

Below you find a list of papers that are relevant to this ORCA run
We neither can nor want to force you to cite these papers, but we appreciate if you do
You receive ORCA, which is the product of decades of hard work by many enthusiastic individuals, for free
The only thing we kindly ask in return is that you cite our papers,
We deeply appreciate it, if you show your appreciation for ORCA by not just citing the generic ORCA reference.

Please note that relegating all ORCA citations to the supporting information does *not* help us.
SI sections are not indexed - citations you put there will not count into any citation statistics
But we need these citations in order to attract the funding resources that allow us to do what we are doing

Therefore, if you are a happy ORCA user, please consider citing a few of the papers listed below in the main body of your paper

In addition to the list printed below, the program has created the file 4.bibtex that contains the list in bibtex format
You can import this file easily into all common literature databanks and citation aid programs


List of essential papers. We consider these as the minimum necessary citations

  1. Neese, F.
     Software update: the ORCA program system, version 6.0
     WIRES Comput. Molec. Sci. 2025 15(1), e70019
     doi.org/10.1002/wcms.7019

List of papers to cite with high priority. The work reported in these papers was absolutely
necessary for this run to complete.
Our perspective: the developers of density functionals and basis sets usually get cited in chemistry papers
Good! But without the algorithms to do something with them, the functionals or basis sets would not do anything.
Hence, in our opinion, the algorithm design and method developments papers are equally worthy of getting cited

  1. Neese, F.
     An improvement of the resolution of the identity approximation for the formation of the Coulomb matrix
     J. Comp. Chem. 2003 24(14), 1740-1747
     doi.org/10.1002/jcc.10318
  2. Grimme, S.
     Semiempirical GGA-type density functional constructed with a long-range dispersion correction
     J.Comput.Chem. 2006 27(15), 1787-1799
     doi.org/10.1002/jcc.20495
  3. Neese, F.
     The SHARK Integral Generation and Digestion System
     J. Comp. Chem. 2022 44(3), 381
     doi.org/10.1002/jcc.26942

List of suggested additional citations. These are papers that are important in the 'surrounding' of 
of this run, or papers that preceded the highly important papers. If you like your results we are grateful for a citation.

  1. Neese, F.
     The ORCA program system
     WIRES Comput. Molec. Sci. 2012 2(1), 73-78
     doi.org/10.1002/wcms.81
  2. Neese, F.
     Software update: the ORCA program system, version 4.0
     WIRES Comput. Molec. Sci. 2018 8(1), 1-6
     doi.org/10.1002/wcms.1327
  3. Neese, F.; Wennmohs, F.; Becker, U.; Riplinger, C.
     The ORCA quantum chemistry program package
     J. Chem. Phys. 2020 152(22), 224108
     doi.org/10.1063/5.0004608
  4. Neese, F.
     Software update: The ORCA program system—Version 5.0
     WIRES Comput. Molec. Sci. 2022 12(1), e1606
     doi.org/10.1002/wcms.1606

List of optional additional citations

  1. Neese, F.
     Approximate second-order SCF convergence for spin unrestricted wavefunctions
     Chem. Phys. Lett. 2000 325(1-3), 93-98
     doi.org/10.1016/s0009-2614(00)00662-x

Timings for individual modules:

Sum of individual times          ...        6.757 sec (=   0.113 min)
Startup calculation              ...        0.443 sec (=   0.007 min)   6.6 %
SCF iterations                   ...        6.283 sec (=   0.105 min)  93.0 %
Property calculations            ...        0.031 sec (=   0.001 min)   0.5 %
                             ****ORCA TERMINATED NORMALLY****
TOTAL RUN TIME: 0 days 0 hours 0 minutes 6 seconds 797 msec
