
                                 *****************
                                 * O   R   C   A *
                                 *****************

                                            #,                                       
                                            ###                                      
                                            ####                                     
                                            #####                                    
                                            ######                                   
                                           ########,                                 
                                     ,,################,,,,,                         
                               ,,#################################,,                 
                          ,,##########################################,,             
                       ,#########################################, ''#####,          
                    ,#############################################,,   '####,        
                  ,##################################################,,,,####,       
                ,###########''''           ''''###############################       
              ,#####''   ,,,,##########,,,,          '''####'''          '####       
            ,##' ,,,,###########################,,,                        '##       
           ' ,,###''''                  '''############,,,                           
         ,,##''                                '''############,,,,        ,,,,,,###''
      ,#''                                            '''#######################'''  
     '                                                          ''''####''''         
             ,#######,   #######,   ,#######,      ##                                
            ,#'     '#,  ##    ##  ,#'     '#,    #''#        ,####,    ,#,          
            ##       ##  ##   ,#'  ##            #'  '#       #'       ,# #          
            ##       ##  #######   ##           ,######,      #####,      #          
            '#,     ,#'  ##    ##  '#,     ,#' ,#      #,     #,   #      #          
             '#######'   ##     ##  '#######'  #'      '#     '####' #    #          



                #########################################################
                #                        -***-                          #
                #          Department of theory and spectroscopy        #
                #                                                       #
                #                      Frank Neese                      #
                #                                                       #
                #     Directorship, Architecture, Infrastructure        #
                #                    SHARK, DRIVERS                     #
                #        Core code/Algorithms in most modules           #
                #                                                       #
                #        Max Planck Institute fuer Kohlenforschung      #
                #                Kaiser Wilhelm Platz 1                 #
                #                 D-45470 Muelheim/Ruhr                 #
                #                      Germany                          #
                #                                                       #
                #                  All rights reserved                  #
                #                        -***-                          #
                #########################################################


                         Program Version 6.1.0  -  RELEASE   -
                                (GIT: $679e74b$)
                          ($2025-06-10 18:02:51 +0200$)


 With contributions from (in alphabetic order):
[Max-Planck-Institut fuer Kohlenforschung]                               
  Daniel Aravena         : Magnetic Suceptibility                        
  Michael Atanasov       : Ab Initio Ligand Field Theory (pilot matlab implementation)
  Alexander A. Auer      : GIAO ZORA, VPT2 properties, NMR spectrum      
  Ute Becker             : All parallelization in ORCA, NUMFREQ, NUMCALC 
  Giovanni Bistoni       : ED, misc. LED, open-shell LED, HFLD           
  Dmytro Bykov           : pre 5.0 version of the SCF Hessian            
  Marcos Casanova-Páez   : Triplet and SCS-CIS(D). UHF-(DLPNO)-IP/EA/STEOM-CCSD. UHF-CVS-IP/STEOM-CCSD   
  Vijay G. Chilkuri      : MRCI spin determinant printing, contributions to CSF-ICE 
  Pauline Colinet        : FMM embedding                                 
  Dipayan Datta          : RHF DLPNO-CCSD density                        
  Achintya Kumar Dutta   : EOM-CC, STEOM-CC                              
  Nicolas Foglia         : Exact transition moments, OPA infrastructure, MCD improvements    
  Dmitry Ganyushin       : Spin-Orbit,Spin-Spin,Magnetic field MRCI      
  Miquel Garcia-Rates    : C-PCM and meta-GGA Hessian, CCSD/C-PCM, Gaussian charge scheme 
  Tiago L. C. Gouveia    : GS-ROHF, GS-ROCIS                             
  Yang Guo               : DLPNO-NEVPT2, F12-NEVPT2, CIM, IAO-localization        
  Andreas Hansen         : Spin unrestricted coupled pair/coupled cluster methods 
  Ingolf Harden          : AUTO-CI MPn and infrastructure                
  Benjamin Helmich-Paris : MC-RPA, TRAH-(SCF,CASSCF), AVAS, COSX integrals, SCF dyn. polar., MC-PDFT, srDFT 
  Lee Huntington         : MR-EOM, pCC                                   
  Robert Izsak           : Overlap fitted RIJCOSX, COSX-SCS-MP3, EOM     
  Riya Kayal             : Wick's Theorem for AUTO-CI, AUTO-CI UHF-CCSDT 
  Emily Kempfer          : AUTO-CI RHF CISDT and CCSDT, approximate NEVPT4
  Christian Kollmar      : KDIIS, OOCD, Brueckner-CCSD(T), CCSD density, CASPT2, CASPT2-K, improved NEVPT2 
  Axel Koslowski         : Symmetry handling                             
  Simone Kossmann        : meta-GGA functionals, TD-DFT gradient, OOMP2, (MP2 Hessian; deprecated post 5.0) 
  Lucas Lang             : DCDCAS, Hyperfine gauge corrections, ICE-SOC+SSC
  Marvin Lechner         : AUTO-CI (C++ implementation), FIC-MRCC        
  Spencer Leger          : CASSCF response                               
  Dagmar Lenk            : GEPOL surface, SMD, ORCA-2-JSON               
  Dimitrios Liakos       : Extrapolation schemes; Compound Job, Property file
  Dimitrios Manganas     : Further ROCIS development; embedding schemes. LFT, Crystal Embedding 
  Dimitrios Pantazis     : SARC Basis sets                               
  Anastasios Papadopoulos: AUTO-CI, single reference methods and gradients 
  Taras Petrenko         : pre 6.0 DFT Hessian and TD-DFT gradient,  ECA, NRVS 
  Petra Pikulova         : Analytic Raman intensities                    
  Peter Pinski           : DLPNO-MP2, DLPNO-MP2 Gradient                 
  Shashank Vittal Rao    : ES-AILFT, MagRelax                            
  Christoph Reimann      : Effective Core Potentials                     
  Marius Retegan         : Local ZFS, SOC                                
  Christoph Riplinger    : Optimizer, TS searches, QM/MM, DLPNO-CCSD(T), (RO)-DLPNO pert. Triples 
  Michael Roemelt        : Original ROCIS implementation, recursive CI coupling coefficients
  Masaaki Saitow         : Open-shell DLPNO-CCSD energy and density      
  Barbara Sandhoefer     : DKH picture change effects                    
  Yorick L. A. Schmerwitz: GMF and freeze-and-release deltaSCF, NEB S-IDPP initial path                    
  Kantharuban Sivalingam : CASSCF convergence/infrastructure, NEVPT2, NEVPT3, NEVPT4(SD), FIC-MRCI and CEPA variants
  Bernardo de Souza      : ESD, SOC TD-DFT                               
  Georgi L. Stoychev     : AutoAux, RI-MP2 NMR, DLPNO-MP2 response, X2C  
  Van Anh Tran           : RI-MP2 g-tensors                              
  Willem Van den Heuvel  : Paramagnetic NMR                              
  Zikuan Wang            : NOTCH, Electric field optimization            
  Frank Wennmohs         : Technical directorship and infrastructure     
  Hang Xu                : AUTO-CI-Response properties                   
                                                                         
[FACCTs GmbH]                                                            
  Markus Bursch, Nicolas Foglia, Miquel Garcia-Rates, Ingolf Harden, Hagen Neugebauer, Anastasios Papadopoulos, 
  Christoph Riplinger, Bernardo de Souza, Georgi L. Stoychev                                                    
                                                                 
  APM, various basis sets, CI-OPT, improved COSX, DLPNO-Multilevel,           
  DOCKER, DRACO, updates on ESD, Fragmentator, GOAT, IRC, LR-CPCM, L-BFGS, MBIS, meta-GGA TD-DFT gradient, ML-optimized integration grids, 
  MM, NACMEs, nearIR, NEB, NEB-TS, NL-DFT gradient (VV10), 2- and 3-layer-ONIOM, interface openCOSMO-RS, QMMM,   
  Crystal-QMMM, RESP, rigid body optimization, SF, symmetry and pop. for TD-DFT, various functionals, SOLVATOR                                   
                                                                         
[Other institutions]                                                     
  V. Asgeirsson          : NEB                                           
  Christoph Bannwarth    : sTDA-DFT, sTD-DFT, PBEh-3c, B97-3c, D3        
  Giovanni Bistoni       : ETS/NOCV, ADLD/ADEX, COVALED                  
  Martin Brehm           : Molecular dynamics                            
  Ronald Cardenas        : ETS/NOCV                                      
  Martina Colucci        : COVALED                                       
  Sebastian Ehlert       : rSCAN, r2SCAN, r2SCAN-3c, D4, dhf basis sets  
  Marvin Friede          : D4 for Fr, Ra, Ac-Lr                          
  Lars Goerigk           : TD-DFT with DH, B97 family of functionals     
  Stefan Grimme          : VdW corrections, initial TS optimization, DFT functionals, gCP, sTDA/sTD-DF 
  Waldemar Hujo          : DFT-NL                                        
  H. Jonsson             : NEB                                           
  Holger Kruse           : gCP                                           
  Marcel Mueller         : wB97X-3c, vDZP basis set                      
  Hagen Neugebauer       : wr2SCAN, Native XTB                           
  Gianluca Regni         : ADLD/ADEX                                     
  Tobias Risthaus        : pre 6.0 range-separated hybrid DFT and stability analysis
  Lukas Wittmann         : regularized MP2, r2SCAN double-hybrids, wr2SCAN        
                                                                         
We gratefully acknowledge several colleagues who have allowed us to      
interface, adapt or use parts of their codes:                            
  Ed Valeev, F. Pavosevic, A. Kumar             : LibInt (2-el integral package), F12 methods 
  Garnet Chan, S. Sharma, J. Yang, R. Olivares  : DMRG                   
  Ulf Ekstrom                                   : XCFun DFT Library      
  Mihaly Kallay                                 : mrcc  (arbitrary order and MRCC methods)
  Frank Weinhold                                : gennbo (NPA and NBO analysis)           
  Simon Mueller                                 : openCOSMO-RS                            
  Christopher J. Cramer and Donald G. Truhlar   : smd solvation model                     
  S Lehtola, MJT Oliveira, MAL Marques          : LibXC Library                           
  Liviu Ungur et al                             : ANISO software                          


 Your calculation uses the libint2 library for the computation of 2-el integrals
 For citations please refer to: http://libint.valeyev.net

 Your ORCA version has been built with support for libXC version: 7.0.0
 For citations please refer to: https://libxc.gitlab.io

 This ORCA versions uses:
   CBLAS   interface :  Fast vector & matrix operations
   LAPACKE interface :  Fast linear algebra routines
   SCALAPACK package :  Parallel linear algebra routines
   Shared memory     :  Shared parallel matrices
   BLAS/LAPACK       :  OpenBLAS 0.3.29  USE64BITINT DYNAMIC_ARCH NO_AFFINITY Haswell SINGLE_THREADED
        Core in use  :  Haswell
   Copyright (c) 2011-2014, The OpenBLAS Project


  ***********************************
  * Starting time: Sun Aug 31 14:27:52 2025
  * Host name:     chemlab03
  * Process ID:    93398
  * Working dir.:  /home/vivek/mm-project/vivek/xtb-goat/MP2-opt/e/0
  ***********************************



***************************************
The coordinates will be read from file: /home/vivek/mm-project/vivek/xtb-goat/xtb-goat/e/E_CONF/0.xyz
***************************************


================================================================================

----- Orbital basis set information -----
Your calculation utilizes the basis: 6-31G**
   H-He, Li-Ne : W. J. Hehre, R. Ditchfield and J.A. Pople, J. Chem. Phys. 56, 2257 (1972).
                 Note: He and Ne are unpublished basis sets taken from the Gaussian program.
                 Note: Li and B from J. D. Dill and J. A. Pople, J. Chem. Phys. 62, 2921 (1975).
   Na - Ar     : M. M. Francl, W. J. Pietro, W. J. Hehre, J. S. Binkley, M. S. Gordon, 
                 D. J. DeFrees and J. A. Pople, J. Chem. Phys. 77, 3654 (1982).
   K - Zn      : V. A. Rassolov, J. A. Pople, M. A. Ratner, and T. L. Windus, J. Chem. Phys. 109, 1223 (1998).

================================================================================
                                        WARNINGS
                       Please study these warnings very carefully!
================================================================================


WARNING: The frozen-core approximation for MP2-gradient calculations is turned on by default.

WARNING: Geometry Optimization
  ===> : Switching off AutoStart
         For restart on a previous wavefunction, please use MOREAD

WARNING: Post HF methods need fully converged wavefunctions
  ===> : Setting SCFConvForced true
         You can overwrite this default with %scf ConvForced false 


================================================================================
                                       INPUT FILE
================================================================================
NAME = 0.inp
|  1> ! MP2 6-31G** opt
|  2> 
|  3> * xyzfile 0 1 /home/vivek/mm-project/vivek/xtb-goat/xtb-goat/e/E_CONF/0.xyz
|  4> 
|  5>                          ****END OF INPUT****
================================================================================

                       *****************************
                       * Geometry Optimization Run *
                       *****************************

Geometry optimization settings:
Update method            Update   .... BFGS
Choice of coordinates    CoordSys .... (2022) Redundant Internals
Initial Hessian          InHess   .... Almloef's Model
Max. no of cycles        MaxIter  .... 57

Convergence Tolerances:
Energy Change            TolE     ....  5.0000e-06 Eh
Max. Gradient            TolMAXG  ....  3.0000e-04 Eh/bohr
RMS Gradient             TolRMSG  ....  1.0000e-04 Eh/bohr
Max. Displacement        TolMAXD  ....  4.0000e-03 bohr
RMS Displacement         TolRMSD  ....  2.0000e-03 bohr
Strict Convergence                .... False

------------------------------------------------------------------------------
                        ORCA OPTIMIZATION COORDINATE SETUP
------------------------------------------------------------------------------

The optimization will be done in redundant internal coordinates (2022)
Making redundant internal coordinates   ...  (2022 redundants) done
Evaluating the initial hessian          ...  (Almloef) done
Evaluating the coordinates              ...  done
Calculating the B-matrix                .... done
Calculating the G-matrix                .... done
The number of degrees of freedom        ....   78

    -----------------------------------------------------------------
                    Redundant Internal Coordinates


    -----------------------------------------------------------------
         Definition                    Initial Value    Approx d2E/dq
    -----------------------------------------------------------------
      1. B(C   1,C   0)                  1.5098         0.402349   
      2. B(O   4,C   0)                  1.3339         0.687623   
      3. B(C   5,C   1)                  1.5309         0.372363   
      4. B(H   6,C   1)                  1.0921         0.357338   
      5. B(H   7,C   1)                  1.0887         0.361832   
      6. B(C   8,C   5)                  1.5423         0.357126   
      7. B(H   9,C   5)                  1.0907         0.359188   
      8. B(H  10,C   5)                  1.0896         0.360569   
      9. B(C  11,C   8)                  1.5280         0.376326   
     10. B(O  12,C  11)                  1.2045         1.106050   
     11. B(N  13,C   8)                  1.4497         0.449472   
     12. B(N  13,H   3)                  1.0163         0.422785   
     13. B(N  13,H   2)                  1.0140         0.426416   
     14. B(H  14,O   4)                  0.9706         0.500100   
     15. B(O  15,C  11)                  1.3293         0.699292   
     16. B(H  16,C   8)                  1.0955         0.352917   
     17. B(O  17,C   0)                  1.2030         1.112130   
     18. B(H  18,O  15)                  0.9707         0.499916   
     19. A(O   4,C   0,O  17)          122.8533         0.485586   
     20. A(C   1,C   0,O  17)          125.2910         0.443198   
     21. A(C   1,C   0,O   4)          111.8557         0.406677   
     22. A(C   0,C   1,H   6)          107.6480         0.327888   
     23. A(C   0,C   1,H   7)          109.1943         0.328564   
     24. A(C   5,C   1,H   7)          110.8008         0.324401   
     25. A(H   6,C   1,H   7)          108.9291         0.290707   
     26. A(C   0,C   1,C   5)          111.5223         0.367793   
     27. A(C   5,C   1,H   6)          108.6590         0.323736   
     28. A(C   0,O   4,H  14)          110.9640         0.374256   
     29. A(C   8,C   5,H  10)          108.0237         0.322001   
     30. A(C   1,C   5,H  10)          108.5045         0.324215   
     31. A(C   8,C   5,H   9)          108.3646         0.321799   
     32. A(H   9,C   5,H  10)          109.1661         0.290783   
     33. A(C   1,C   5,H   9)          109.6242         0.324011   
     34. A(C   1,C   5,C   8)          113.0876         0.360370   
     35. A(C   5,C   8,C  11)          109.2458         0.361021   
     36. A(N  13,C   8,H  16)          109.0694         0.331252   
     37. A(C  11,C   8,H  16)          107.3814         0.323637   
     38. A(C   5,C   8,H  16)          107.5048         0.320873   
     39. A(C  11,C   8,N  13)          112.5434         0.373198   
     40. A(C   5,C   8,N  13)          110.9093         0.369849   
     41. A(C   8,C  11,O  12)          123.9256         0.437446   
     42. A(O  12,C  11,O  15)          123.6409         0.486606   
     43. A(C   8,C  11,O  15)          112.4311         0.403100   
     44. A(H   3,N  13,C   8)          109.2415         0.338421   
     45. A(H   2,N  13,C   8)          110.2743         0.338904   
     46. A(H   2,N  13,H   3)          106.5806         0.301430   
     47. A(C  11,O  15,H  18)          110.9093         0.375320   
     48. D(C   5,C   1,C   0,O  17)    -51.4364         0.012008   
     49. D(H   6,C   1,C   0,O  17)     67.6653         0.012008   
     50. D(H   6,C   1,C   0,O   4)   -112.2730         0.012008   
     51. D(H   7,C   1,C   0,O   4)      5.8399         0.012008   
     52. D(C   5,C   1,C   0,O   4)    128.6253         0.012008   
     53. D(H  14,O   4,C   0,O  17)      3.5599         0.035289   
     54. D(H  14,O   4,C   0,C   1)   -176.5001         0.035289   
     55. D(H   9,C   5,C   1,H   7)   -177.7178         0.011076   
     56. D(H   9,C   5,C   1,H   6)    -58.0779         0.011076   
     57. D(H   9,C   5,C   1,C   0)     60.4208         0.011076   
     58. D(C   8,C   5,C   1,H   7)     61.2440         0.011076   
     59. D(C   8,C   5,C   1,H   6)   -179.1161         0.011076   
     60. D(C   8,C   5,C   1,C   0)    -60.6174         0.011076   
     61. D(C  11,C   8,C   5,H   9)    -51.6820         0.010244   
     62. D(C  11,C   8,C   5,C   1)     70.0667         0.010244   
     63. D(N  13,C   8,C   5,H  10)     65.5500         0.010244   
     64. D(N  13,C   8,C   5,H   9)   -176.2993         0.010244   
     65. D(N  13,C   8,C   5,C   1)    -54.5505         0.010244   
     66. D(C  11,C   8,C   5,H  10)   -169.8327         0.010244   
     67. D(O  15,C  11,C   8,N  13)   -168.3108         0.010581   
     68. D(O  15,C  11,C   8,C   5)     68.0325         0.010581   
     69. D(O  12,C  11,C   8,H  16)    131.1791         0.010581   
     70. D(O  12,C  11,C   8,N  13)     11.1390         0.010581   
     71. D(O  12,C  11,C   8,C   5)   -112.5177         0.010581   
     72. D(H   3,N  13,C   8,C  11)    -44.6725         0.017234   
     73. D(H   3,N  13,C   8,C   5)     78.0548         0.017234   
     74. D(H   2,N  13,C   8,H  16)    -46.9145         0.017234   
     75. D(H   2,N  13,C   8,C  11)     72.1451         0.017234   
     76. D(H   2,N  13,C   8,C   5)   -165.1276         0.017234   
     77. D(H  18,O  15,C  11,O  12)      6.7187         0.036613   
     78. D(H  18,O  15,C  11,C   8)   -173.8297         0.036613   
    -----------------------------------------------------------------

Number of atoms                         .... 19
Number of degrees of freedom            .... 78


         *************************************************************
         *                GEOMETRY OPTIMIZATION CYCLE   1            *
         *************************************************************
---------------------------------
CARTESIAN COORDINATES (ANGSTROEM)
---------------------------------
  C     -2.511429   -0.405267   -0.190504
  C     -2.292722    0.805535   -1.065505
  H     -0.669821    3.061481    1.723971
  H     -1.986702    2.207653    1.292670
  O     -3.503657   -0.215706    0.680638
  C     -0.823975    1.237237   -1.070090
  H     -2.580455    0.534626   -2.083587
  H     -2.932878    1.616134   -0.721436
  C     -0.302756    1.623435    0.329102
  H     -0.204976    0.426161   -1.455578
  H     -0.720846    2.105841   -1.719875
  C     -0.196352    0.366582    1.191536
  O     -0.889820    0.149815    2.152273
  N     -1.141597    2.641082    0.930962
  H     -3.597118   -0.979549    1.272137
  O      0.756917   -0.458545    0.770131
  H      0.710122    2.021889    0.205009
  O     -1.882866   -1.429253   -0.251091
  H      0.741956   -1.289826    1.271134

----------------------------
CARTESIAN COORDINATES (A.U.)
----------------------------
  NO LB      ZA    FRAG     MASS         X           Y           Z
   0 C     6.0000    0    12.011   -4.745913   -0.765844   -0.360000
   1 C     6.0000    0    12.011   -4.332617    1.522240   -2.013513
   2 H     1.0000    0     1.008   -1.265777    5.785362    3.257833
   3 H     1.0000    0     1.008   -3.754323    4.171859    2.442792
   4 O     8.0000    0    15.999   -6.620952   -0.407625    1.286219
   5 C     6.0000    0    12.011   -1.557087    2.338040   -2.022178
   6 H     1.0000    0     1.008   -4.876354    1.010297   -3.937409
   7 H     1.0000    0     1.008   -5.542336    3.054050   -1.363316
   8 C     6.0000    0    12.011   -0.572126    3.067847    0.621913
   9 H     1.0000    0     1.008   -0.387349    0.805327   -2.750644
  10 H     1.0000    0     1.008   -1.362201    3.979462   -3.250093
  11 C     6.0000    0    12.011   -0.371052    0.692740    2.251677
  12 O     8.0000    0    15.999   -1.681516    0.283109    4.067207
  13 N     7.0000    0    14.007   -2.157305    4.990921    1.759264
  14 H     1.0000    0     1.008   -6.797569   -1.851080    2.403990
  15 O     8.0000    0    15.999    1.430365   -0.866524    1.455337
  16 H     1.0000    0     1.008    1.341936    3.820816    0.387411
  17 O     8.0000    0    15.999   -3.558101   -2.700897   -0.474493
  18 H     1.0000    0     1.008    1.402094   -2.437419    2.402095

--------------------------------
INTERNAL COORDINATES (ANGSTROEM)
--------------------------------
 C      0   0   0     0.000000000000     0.00000000     0.00000000
 C      1   0   0     1.509801756753     0.00000000     0.00000000
 H      2   1   0     3.937547704542    96.23492774     0.00000000
 H      3   2   1     1.627642722940    34.74066589   301.39155385
 O      1   2   3     1.333918298850   111.85572916    72.46884457
 C      2   1   3     1.530884460114   111.52230684    56.15646792
 H      2   1   3     1.092095697438   107.64795713   175.25817868
 H      2   1   3     1.088693545136   109.19431936   293.37104209
 C      6   2   1     1.542257174865   113.08762117   299.38261224
 H      6   2   1     1.090690062123   109.62424957    60.42079300
 H      6   2   1     1.089645505974   108.50454649   179.55731111
 C      9   6   2     1.528002591748   109.24582566    70.06669691
 O     12   9   6     1.204533955037   123.92561173   247.48228867
 N      3   2   1     1.013987580449    10.47195906   207.57761023
 H      5   1   2     0.970598952300   110.96400851   183.49990906
 O     12   9   6     1.329337672617   112.43106987    68.03250564
 H      9   6   2     1.095484642455   107.50478491   186.29133315
 O      1   2   3     1.203041635295   125.29095440   252.40710728
 H     16  12   9     0.970699073708   110.90934412   186.17030938

---------------------------
INTERNAL COORDINATES (A.U.)
---------------------------
 C      0   0   0     0.000000000000     0.00000000     0.00000000
 C      1   0   0     2.853111836776     0.00000000     0.00000000
 H      2   1   0     7.440886800835    96.23492774     0.00000000
 H      3   2   1     3.075798990226    34.74066589   301.39155385
 O      1   2   3     2.520740269852   111.85572916    72.46884457
 C      2   1   3     2.892952372291   111.52230684    56.15646792
 H      2   1   3     2.063761780192   107.64795713   175.25817868
 H      2   1   3     2.057332644076   109.19431936   293.37104209
 C      6   2   1     2.914443688570   113.08762117   299.38261224
 H      6   2   1     2.061105514402   109.62424957    60.42079300
 H      6   2   1     2.059131589348   108.50454649   179.55731111
 C      9   6   2     2.887506430325   109.24582566    70.06669691
 O     12   9   6     2.276239294029   123.92561173   247.48228867
 N      3   2   1     1.916158830246    10.47195906   207.57761023
 H      5   1   2     1.834166205717   110.96400851   183.49990906
 O     12   9   6     2.512084140751   112.43106987    68.03250564
 H      9   6   2     2.070165958156   107.50478491   186.29133315
 O      1   2   3     2.273419218413   125.29095440   252.40710728
 H     16  12   9     1.834355407758   110.90934412   186.17030938

---------------------
BASIS SET INFORMATION
---------------------
There are 4 groups of distinct atoms

 Group   1 Type C   : 10s4p1d contracted to 3s2p1d pattern {631/31/1}
 Group   2 Type H   : 4s1p contracted to 2s1p pattern {31/1}
 Group   3 Type O   : 10s4p1d contracted to 3s2p1d pattern {631/31/1}
 Group   4 Type N   : 10s4p1d contracted to 3s2p1d pattern {631/31/1}

Atom   0C    basis set group =>   1
Atom   1C    basis set group =>   1
Atom   2H    basis set group =>   2
Atom   3H    basis set group =>   2
Atom   4O    basis set group =>   3
Atom   5C    basis set group =>   1
Atom   6H    basis set group =>   2
Atom   7H    basis set group =>   2
Atom   8C    basis set group =>   1
Atom   9H    basis set group =>   2
Atom  10H    basis set group =>   2
Atom  11C    basis set group =>   1
Atom  12O    basis set group =>   3
Atom  13N    basis set group =>   4
Atom  14H    basis set group =>   2
Atom  15O    basis set group =>   3
Atom  16H    basis set group =>   2
Atom  17O    basis set group =>   3
Atom  18H    basis set group =>   2
------------------------------------------------------------------------------
                             ORCA STARTUP CALCULATIONS
------------------------------------------------------------------------------
------------------------------------------------------------------------------
                   ___                                                        
                  /   \      - P O W E R E D   B Y -                         
                 /     \                                                     
                 |  |  |   _    _      __       _____    __    __             
                 |  |  |  | |  | |    /  \     |  _  \  |  |  /  |          
                  \  \/   | |  | |   /    \    | | | |  |  | /  /          
                 / \  \   | |__| |  /  /\  \   | |_| |  |  |/  /          
                |  |  |   |  __  | /  /__\  \  |    /   |      \           
                |  |  |   | |  | | |   __   |  |    \   |  |\   \          
                \     /   | |  | | |  |  |  |  | |\  \  |  | \   \       
                 \___/    |_|  |_| |__|  |__|  |_| \__\ |__|  \__/        
                                                                              
                      - O R C A' S   B I G   F R I E N D -                    
                                      &                                       
                       - I N T E G R A L  F E E D E R -                       
                                                                              
 v1 FN, 2020, v2 2021, v3 2022-2024                                           
------------------------------------------------------------------------------


----------------------
SHARK INTEGRAL PACKAGE
----------------------

Number of atoms                             ...     19
Number of basis functions                   ...    185
Number of shells                            ...     87
Maximum angular momentum                    ...      2
Integral batch strategy                     ... SHARK/LIBINT Hybrid
RI-J (if used) integral strategy            ... SPLIT-RIJ (Revised 2003 algorithm where possible)
Printlevel                                  ...      1
Contraction scheme used                     ... SEGMENTED contraction
Prescreening option                         ... SCHWARTZ
   Thresh                                   ... 2.500e-11
   Tcut                                     ... 2.500e-12
   Tpresel                                  ... 2.500e-12 
Coulomb Range Separation                    ... NOT USED
Exchange Range Separation                   ... NOT USED
Multipole approximations                    ... NOT USED
Finite Nucleus Model                        ... NOT USED
CABS basis                                  ... NOT available
Auxiliary Coulomb fitting basis             ... NOT available
Auxiliary J/K fitting basis                 ... NOT available
Auxiliary Correlation fitting basis         ... NOT available
Auxiliary 'external' fitting basis          ... NOT available

Checking pre-screening integrals            ... done (  0.0 sec) Dimension = 87
   => SHARK Basis and OBASIS are compatible. Storing Pre-screening
Shell pair information
Shell pair cut-off parameter TPreSel        ...   2.5e-12
Total number of shell pairs                 ...      3828
Shell pairs after pre-screening             ...      3552
Total number of primitive shell pairs       ...     19347
Primitive shell pairs kept                  ...     11685
          la=0 lb=0:   1069 shell pairs
          la=1 lb=0:   1274 shell pairs
          la=1 lb=1:    408 shell pairs
          la=2 lb=0:    463 shell pairs
          la=2 lb=1:    283 shell pairs
          la=2 lb=2:     55 shell pairs

Checking whether 4 symmetric matrices of dimension 185 fit in memory
:Max Core in MB      =   4096.00
 MB in use           =      6.07
 MB left             =   4089.93
 MB needed           =      0.53
 Data fit in memory  = YES
Calculating Nuclear repulsion               ... done (  0.0 sec) ENN=    592.354615005479 Eh

Diagonalization of the overlap matrix:
Smallest eigenvalue                        ... 2.934e-03
Time for diagonalization                   ...    0.002 sec
Threshold for overlap eigenvalues          ... 1.000e-07
Number of eigenvalues below threshold      ... 0
Time for construction of square roots      ...    0.001 sec
Total time needed                          ...    0.003 sec

-------------------
DFT GRID GENERATION
-------------------

General Integration Accuracy     IntAcc      ... 4.388
Radial Grid Type                 RadialGrid  ... OptM3 with GC (2021)
Angular Grid (max. ang.)         AngularGrid ... 4 (Lebedev-302)
Angular grid pruning method      GridPruning ... 4 (adaptive)
Weight generation scheme         WeightScheme... mBecke (2022)
Basis function cutoff            BFCut       ... 1.0000e-11
Integration weight cutoff        WCut        ... 1.0000e-14
Partially contracted basis set               ... off
Rotationally invariant grid construction     ... off
Angular grids for H and He will be reduced by one unit

Total number of grid points                  ...    89047
Total number of batches                      ...     1402
Average number of points per batch           ...       63
Average number of grid points per atom       ...     4687
Grids setup in   0.4 sec
Initializing property integral containers    ... done (  0.0 sec)

SHARK setup successfully completed in   0.4 seconds

Maximum memory used throughout the entire STARTUP-calculation: 35.8 MB
-------------------------------------------------------------------------------
                                 ORCA GUESS
                   Start orbitals & Density for SCF / CASSCF
-------------------------------------------------------------------------------

------------
SCF SETTINGS
------------
Hamiltonian:
 Ab initio Hamiltonian  Method          .... Hartree-Fock(GTOs)


General Settings:
 Integral files         IntName         .... 0
 Hartree-Fock type      HFTyp           .... RHF
 Total Charge           Charge          ....    0
 Multiplicity           Mult            ....    1
 Number of Electrons    NEL             ....   78
 Basis Dimension        Dim             ....  185
 Nuclear Repulsion      ENuc            ....    592.3546150055 Eh

Convergence Acceleration:
 AO-DIIS                CNVDIIS         .... on
   Start iteration      DIISMaxIt       ....    12
   Startup error        DIISStart       ....  0.200000
   # of expansion vecs  DIISMaxEq       ....     5
   Bias factor          DIISBfac        ....   1.050
   Max. coefficient     DIISMaxC        ....  10.000
 MO-DIIS                CNVKDIIS        .... off
 Trust-Rad. Augm. Hess. CNVTRAH         .... auto
   Auto Start mean grad. ratio tolernc. ....  1.125000
   Auto Start start iteration           ....    50
   Auto Start num. interpolation iter.  ....    10
   Max. Number of Micro iterations      ....    24
   Max. Number of Macro iterations      .... Maxiter - #DIIS iter
   Number of Davidson start vectors     ....     2
   Converg. threshold    (grad. norm)   ....   1.000e-05
   Grad. Scal. Fac. for Micro threshold ....   0.100
   Minimum threshold for Micro iter.    ....   1.000e-02
   NR start threshold (gradient norm)   ....   1.000e-04
   Initial trust radius                 ....   0.400
   Minimum AH scaling param. (alpha)    ....   1.000
   Maximum AH scaling param. (alpha)    .... 1000.000
   Quad. conv. algorithm                .... NR
   White noise on init. David. guess    .... on
   Maximum white noise                  ....   0.010
   Pseudo random numbers                .... off
   Inactive MOs                         .... canonical
   Orbital update algorithm             .... Taylor
   Preconditioner                       .... Diag
   Full preconditioner red. dimension   ....   250
 SOSCF                 CNVSOSCF           .... on
   Start iteration     SOSCFMaxIt         ....   150
   Startup grad/error  SOSCFStart         ....  0.003300
   Hessian update      SOSCFHessUp        .... L-BFGS
   Autom. constraints  SOSCFAutoConstrain .... off
 Level Shifting         CNVShift        .... on
   Level shift para.    LevelShift      ....    0.2500
   Turn off err/grad.   ShiftErr        ....    0.0010
 Zerner damping         CNVZerner       .... off
 Static damping         CNVDamp         .... on
   Fraction old density DampFac         ....    0.7000
   Max. Damping (<1)    DampMax         ....    0.9800
   Min. Damping (>=0)   DampMin         ....    0.0000
   Turn off err/grad.   DampErr         ....    0.1000

SCF Procedure:
 Maximum # iterations   MaxIter         ....   125
 SCF integral mode      SCFMode         .... Direct
   Integral package                     .... SHARK and LIBINT hybrid scheme
 Reset frequency        DirectResetFreq ....    20
 Integral Threshold     Thresh          ....  2.500e-11 Eh
 Primitive CutOff       TCut            ....  2.500e-12 Eh

Convergence Tolerance:
 Convergence Check Mode ConvCheckMode   .... Total+1el-Energy
 Convergence forced     ConvForced      .... 1
 Energy Change          TolE            ....  1.000e-08 Eh
 1-El. energy change                    ....  1.000e-05 Eh
 Orbital Gradient       TolG            ....  1.000e-05
 Orbital Rotation angle TolX            ....  1.000e-05
 DIIS Error             TolErr          ....  5.000e-07

------------------------------
INITIAL GUESS: MODEL POTENTIAL
------------------------------
Loading Hartree-Fock densities                     ... done
Calculating cut-offs                               ... done
Initializing the effective Hamiltonian             ... done
Setting up the integral package (SHARK)            ... done
Starting the Coulomb interaction                   ... done (   0.1 sec)
Making the grid                                    ... done (   0.1 sec)
Mapping shells                                     ... done
Starting the XC term evaluation                    ... done (   0.0 sec)
Transforming the Hamiltonian                       ... done (   0.0 sec)
Diagonalizing the Hamiltonian                      ... done (   0.0 sec)
Back transforming the eigenvectors                 ... done (   0.0 sec)
Now organizing SCF variables                       ... done
                      ------------------
                      INITIAL GUESS DONE (   0.2 sec)
                      ------------------
             **** ENERGY FILE WAS UPDATED (0.en.tmp) ****
Finished Guess after   0.2 sec
Maximum memory used throughout the entire GUESS-calculation: 11.6 MB

-------------------------------------------------------------------------------------------
                                      ORCA LEAN-SCF
                              memory conserving SCF solver
-------------------------------------------------------------------------------------------

----------------------------------------D-I-I-S--------------------------------------------
Iteration    Energy (Eh)           Delta-E    RMSDP     MaxDP     DIISErr   Damp  Time(sec)
-------------------------------------------------------------------------------------------
               ***  Starting incremental Fock matrix formation  ***
    1    -548.1164535401311468     0.00e+00  2.52e-03  6.16e-02  2.44e-01  0.700   2.1
    2    -548.2681728640205847    -1.52e-01  1.85e-03  4.42e-02  1.46e-01  0.700   2.0
                               ***Turning on AO-DIIS***
    3    -548.3558713864830452    -8.77e-02  1.00e-03  1.97e-02  8.17e-02  0.700   2.0
    4    -548.4111544800260845    -5.53e-02  2.32e-03  4.14e-02  5.48e-02  0.000   1.9
    5    -548.5347682904704243    -1.24e-01  3.02e-04  4.17e-03  4.72e-03  0.000   2.0
                              *** Initializing SOSCF ***
---------------------------------------S-O-S-C-F--------------------------------------
Iteration    Energy (Eh)           Delta-E    RMSDP     MaxDP     MaxGrad    Time(sec)
--------------------------------------------------------------------------------------
    6    -548.5353765377366244    -6.08e-04  1.46e-04  2.15e-03  2.38e-03     1.9
               *** Restarting incremental Fock matrix formation ***
    7    -548.5355206313068948    -1.44e-04  9.27e-05  1.35e-03  1.77e-03     2.1
    8    -548.5355675254292009    -4.69e-05  1.04e-04  1.70e-03  5.22e-04     1.7
    9    -548.5355841188685417    -1.66e-05  1.98e-05  3.30e-04  2.63e-04     1.7
   10    -548.5355856857419212    -1.57e-06  6.21e-06  8.07e-05  6.02e-05     1.6
   11    -548.5355858255305748    -1.40e-07  2.85e-06  5.34e-05  1.33e-05     1.5
   12    -548.5355858454532836    -1.99e-08  6.34e-07  1.59e-05  8.13e-06     1.4
   13    -548.5355858487581600    -3.30e-09  1.61e-07  2.88e-06  9.89e-07     1.2
                 **** Energy Check signals convergence ****

               *****************************************************
               *                     SUCCESS                       *
               *           SCF CONVERGED AFTER  13 CYCLES          *
               *****************************************************

             **** ENERGY FILE WAS UPDATED (0.en.tmp) ****

----------------
TOTAL SCF ENERGY
----------------

Total Energy       :       -548.53558585099051 Eh          -14926.41214 eV

Components:
Nuclear Repulsion  :        592.35461500547933 Eh           16118.78854 eV
Electronic Energy  :      -1140.89020085646985 Eh          -31045.20067 eV
One Electron Energy:      -1928.32715399759536 Eh          -52472.44951 eV
Two Electron Energy:        787.43695314112551 Eh           21427.24884 eV

Virial components:
Potential Energy   :      -1096.35753106425068 Eh          -29833.40512 eV
Kinetic Energy     :        547.82194521326016 Eh           14906.99299 eV
Virial Ratio       :          2.00130268720333

---------------
SCF CONVERGENCE
---------------

  Last Energy change         ...    3.3049e-09  Tolerance :   1.0000e-08
  Last MAX-Density change    ...    2.8840e-06  Tolerance :   1.0000e-07
  Last RMS-Density change    ...    1.6147e-07  Tolerance :   5.0000e-09
  Last DIIS Error            ...    2.3806e-03  Tolerance :   5.0000e-07
  Last Orbital Gradient      ...    9.8890e-07  Tolerance :   1.0000e-05
  Last Orbital Rotation      ...    1.7249e-06  Tolerance :   1.0000e-05


----------------
ORBITAL ENERGIES
----------------

  NO   OCC          E(Eh)            E(eV) 
   0   2.0000     -20.614170      -560.9401 
   1   2.0000     -20.613951      -560.9341 
   2   2.0000     -20.552973      -559.2748 
   3   2.0000     -20.550383      -559.2044 
   4   2.0000     -15.550674      -423.1554 
   5   2.0000     -11.387076      -309.8581 
   6   2.0000     -11.383098      -309.7499 
   7   2.0000     -11.278951      -306.9159 
   8   2.0000     -11.246280      -306.0268 
   9   2.0000     -11.241871      -305.9069 
  10   2.0000      -1.470924       -40.0259 
  11   2.0000      -1.464344       -39.8468 
  12   2.0000      -1.362613       -37.0786 
  13   2.0000      -1.360592       -37.0236 
  14   2.0000      -1.202329       -32.7170 
  15   2.0000      -1.077305       -29.3150 
  16   2.0000      -0.984339       -26.7852 
  17   2.0000      -0.897548       -24.4235 
  18   2.0000      -0.821752       -22.3610 
  19   2.0000      -0.781458       -21.2645 
  20   2.0000      -0.719534       -19.5795 
  21   2.0000      -0.706969       -19.2376 
  22   2.0000      -0.699122       -19.0241 
  23   2.0000      -0.684992       -18.6396 
  24   2.0000      -0.679350       -18.4861 
  25   2.0000      -0.643451       -17.5092 
  26   2.0000      -0.620917       -16.8960 
  27   2.0000      -0.598652       -16.2902 
  28   2.0000      -0.588963       -16.0265 
  29   2.0000      -0.578510       -15.7421 
  30   2.0000      -0.572982       -15.5916 
  31   2.0000      -0.536101       -14.5880 
  32   2.0000      -0.506995       -13.7960 
  33   2.0000      -0.501342       -13.6422 
  34   2.0000      -0.478693       -13.0259 
  35   2.0000      -0.467670       -12.7259 
  36   2.0000      -0.451362       -12.2822 
  37   2.0000      -0.444810       -12.1039 
  38   2.0000      -0.403578       -10.9819 
  39   0.0000       0.163741         4.4556 
  40   0.0000       0.202058         5.4983 
  41   0.0000       0.216705         5.8968 
  42   0.0000       0.232129         6.3166 
  43   0.0000       0.240418         6.5421 
  44   0.0000       0.270784         7.3684 
  45   0.0000       0.283919         7.7258 
  46   0.0000       0.302028         8.2186 
  47   0.0000       0.322747         8.7824 
  48   0.0000       0.339616         9.2414 
  49   0.0000       0.344636         9.3780 
*Only the first 10 virtual orbitals were printed.

                    ********************************
                    * MULLIKEN POPULATION ANALYSIS *
                    ********************************

-----------------------
MULLIKEN ATOMIC CHARGES
-----------------------
   0 C :    0.794032
   1 C :   -0.320309
   2 H :    0.278539
   3 H :    0.291631
   4 O :   -0.631039
   5 C :   -0.220502
   6 H :    0.169628
   7 H :    0.172557
   8 C :   -0.052244
   9 H :    0.165156
  10 H :    0.148347
  11 C :    0.801856
  12 O :   -0.603105
  13 N :   -0.684194
  14 H :    0.375335
  15 O :   -0.628893
  16 H :    0.163264
  17 O :   -0.598076
  18 H :    0.378017
Sum of atomic charges:    0.0000000

--------------------------------
MULLIKEN REDUCED ORBITAL CHARGES
--------------------------------
  0 C s       :     2.962300  s :     2.962300
      pz      :     0.668224  p :     2.094238
      px      :     0.619299
      py      :     0.806715
      dz2     :     0.018843  d :     0.149429
      dxz     :     0.026374
      dyz     :     0.034027
      dx2y2   :     0.043510
      dxy     :     0.026675

  1 C s       :     3.262392  s :     3.262392
      pz      :     1.056244  p :     3.012093
      px      :     0.997723
      py      :     0.958126
      dz2     :     0.008658  d :     0.045824
      dxz     :     0.005412
      dyz     :     0.011755
      dx2y2   :     0.009613
      dxy     :     0.010386

  2 H s       :     0.695324  s :     0.695324
      pz      :     0.011592  p :     0.026138
      px      :     0.006102
      py      :     0.008443

  3 H s       :     0.682082  s :     0.682082
      pz      :     0.006505  p :     0.026287
      px      :     0.012982
      py      :     0.006801

  4 O s       :     3.837148  s :     3.837148
      pz      :     1.499609  p :     4.768453
      px      :     1.628816
      py      :     1.640027
      dz2     :     0.002089  d :     0.025439
      dxz     :     0.005683
      dyz     :     0.006962
      dx2y2   :     0.007760
      dxy     :     0.002943

  5 C s       :     3.242867  s :     3.242867
      pz      :     0.934235  p :     2.929589
      px      :     0.916604
      py      :     1.078750
      dz2     :     0.010218  d :     0.048047
      dxz     :     0.006924
      dyz     :     0.011385
      dx2y2   :     0.009371
      dxy     :     0.010148

  6 H s       :     0.817333  s :     0.817333
      pz      :     0.008454  p :     0.013039
      px      :     0.002336
      py      :     0.002249

  7 H s       :     0.814694  s :     0.814694
      pz      :     0.002401  p :     0.012749
      px      :     0.004257
      py      :     0.006091

  8 C s       :     3.216281  s :     3.216281
      pz      :     0.916471  p :     2.765944
      px      :     1.027631
      py      :     0.821841
      dz2     :     0.013037  d :     0.070019
      dxz     :     0.009037
      dyz     :     0.019312
      dx2y2   :     0.014984
      dxy     :     0.013649

  9 H s       :     0.822165  s :     0.822165
      pz      :     0.002439  p :     0.012679
      px      :     0.004068
      py      :     0.006172

 10 H s       :     0.839066  s :     0.839066
      pz      :     0.004244  p :     0.012586
      px      :     0.001721
      py      :     0.006622

 11 C s       :     2.949793  s :     2.949793
      pz      :     0.732754  p :     2.100768
      px      :     0.616613
      py      :     0.751401
      dz2     :     0.031334  d :     0.147584
      dxz     :     0.024984
      dyz     :     0.036312
      dx2y2   :     0.026606
      dxy     :     0.028349

 12 O s       :     3.881393  s :     3.881393
      pz      :     1.414836  p :     4.689108
      px      :     1.522123
      py      :     1.752150
      dz2     :     0.011846  d :     0.032604
      dxz     :     0.008764
      dyz     :     0.004993
      dx2y2   :     0.003324
      dxy     :     0.003677

 13 N s       :     3.601282  s :     3.601282
      pz      :     1.423180  p :     4.048614
      px      :     1.197626
      py      :     1.427808
      dz2     :     0.005950  d :     0.034298
      dxz     :     0.009158
      dyz     :     0.005288
      dx2y2   :     0.003050
      dxy     :     0.010853

 14 H s       :     0.583172  s :     0.583172
      pz      :     0.015068  p :     0.041493
      px      :     0.007256
      py      :     0.019169

 15 O s       :     3.838848  s :     3.838848
      pz      :     1.738608  p :     4.764538
      px      :     1.653461
      py      :     1.372468
      dz2     :     0.002847  d :     0.025507
      dxz     :     0.004356
      dyz     :     0.007976
      dx2y2   :     0.005346
      dxy     :     0.004982

 16 H s       :     0.824429  s :     0.824429
      pz      :     0.001788  p :     0.012307
      px      :     0.008177
      py      :     0.002343

 17 O s       :     3.880105  s :     3.880105
      pz      :     1.687688  p :     4.685322
      px      :     1.556701
      py      :     1.440934
      dz2     :     0.003192  d :     0.032648
      dxz     :     0.002485
      dyz     :     0.007427
      dx2y2   :     0.009889
      dxy     :     0.009655

 18 H s       :     0.580278  s :     0.580278
      pz      :     0.012613  p :     0.041706
      px      :     0.007085
      py      :     0.022008



                     *******************************
                     * LOEWDIN POPULATION ANALYSIS *
                     *******************************

----------------------
LOEWDIN ATOMIC CHARGES
----------------------
   0 C :    0.237034
   1 C :   -0.135227
   2 H :    0.133202
   3 H :    0.136120
   4 O :   -0.200364
   5 C :   -0.096117
   6 H :    0.095538
   7 H :    0.086731
   8 C :   -0.028258
   9 H :    0.082727
  10 H :    0.078487
  11 C :    0.221325
  12 O :   -0.316415
  13 N :   -0.279663
  14 H :    0.203378
  15 O :   -0.194641
  16 H :    0.085910
  17 O :   -0.315664
  18 H :    0.205896

-------------------------------
LOEWDIN REDUCED ORBITAL CHARGES
-------------------------------
  0 C s       :     2.841504  s :     2.841504
      pz      :     0.802377  p :     2.599685
      px      :     0.798475
      py      :     0.998832
      dz2     :     0.039860  d :     0.321777
      dxz     :     0.058936
      dyz     :     0.070785
      dx2y2   :     0.091201
      dxy     :     0.060995

  1 C s       :     2.894586  s :     2.894586
      pz      :     1.067267  p :     3.153948
      px      :     1.056778
      py      :     1.029903
      dz2     :     0.015461  d :     0.086693
      dxz     :     0.010015
      dyz     :     0.022333
      dx2y2   :     0.019407
      dxy     :     0.019476

  2 H s       :     0.784984  s :     0.784984
      pz      :     0.037082  p :     0.081814
      px      :     0.019065
      py      :     0.025667

  3 H s       :     0.780970  s :     0.780970
      pz      :     0.021006  p :     0.082909
      px      :     0.039236
      py      :     0.022668

  4 O s       :     3.456155  s :     3.456155
      pz      :     1.480037  p :     4.695892
      px      :     1.611272
      py      :     1.604583
      dz2     :     0.004569  d :     0.048317
      dxz     :     0.013547
      dyz     :     0.013061
      dx2y2   :     0.011575
      dxy     :     0.005564

  5 C s       :     2.891736  s :     2.891736
      pz      :     1.019810  p :     3.113656
      px      :     1.014117
      py      :     1.079730
      dz2     :     0.020171  d :     0.090724
      dxz     :     0.014798
      dyz     :     0.019925
      dx2y2   :     0.017694
      dxy     :     0.018136

  6 H s       :     0.863488  s :     0.863488
      pz      :     0.024907  p :     0.040974
      px      :     0.008541
      py      :     0.007526

  7 H s       :     0.871229  s :     0.871229
      pz      :     0.008555  p :     0.042040
      px      :     0.014284
      py      :     0.019201

  8 C s       :     2.871390  s :     2.871390
      pz      :     1.011404  p :     3.016789
      px      :     1.037260
      py      :     0.968125
      dz2     :     0.026951  d :     0.140079
      dxz     :     0.017638
      dyz     :     0.040244
      dx2y2   :     0.028868
      dxy     :     0.026378

  9 H s       :     0.875753  s :     0.875753
      pz      :     0.009299  p :     0.041519
      px      :     0.013321
      py      :     0.018899

 10 H s       :     0.881068  s :     0.881068
      pz      :     0.014015  p :     0.040445
      px      :     0.006546
      py      :     0.019883

 11 C s       :     2.849069  s :     2.849069
      pz      :     0.905326  p :     2.609226
      px      :     0.804730
      py      :     0.899170
      dz2     :     0.062859  d :     0.320380
      dxz     :     0.060005
      dyz     :     0.078843
      dx2y2   :     0.057258
      dxy     :     0.061415

 12 O s       :     3.547047  s :     3.547047
      pz      :     1.462550  p :     4.712320
      px      :     1.530232
      py      :     1.719538
      dz2     :     0.016472  d :     0.057048
      dxz     :     0.019508
      dyz     :     0.009576
      dx2y2   :     0.005627
      dxy     :     0.005866

 13 N s       :     3.185353  s :     3.185353
      pz      :     1.406184  p :     4.033747
      px      :     1.199213
      py      :     1.428351
      dz2     :     0.009197  d :     0.060564
      dxz     :     0.014601
      dyz     :     0.010218
      dx2y2   :     0.007986
      dxy     :     0.018561

 14 H s       :     0.676419  s :     0.676419
      pz      :     0.041800  p :     0.120203
      px      :     0.022792
      py      :     0.055611

 15 O s       :     3.450685  s :     3.450685
      pz      :     1.704251  p :     4.695286
      px      :     1.635784
      py      :     1.355250
      dz2     :     0.005293  d :     0.048671
      dxz     :     0.006898
      dyz     :     0.013071
      dx2y2   :     0.010939
      dxy     :     0.012470

 16 H s       :     0.874357  s :     0.874357
      pz      :     0.007252  p :     0.039733
      px      :     0.024166
      py      :     0.008315

 17 O s       :     3.546483  s :     3.546483
      pz      :     1.648203  p :     4.712078
      px      :     1.557839
      py      :     1.506035
      dz2     :     0.007481  d :     0.057103
      dxz     :     0.003866
      dyz     :     0.010061
      dx2y2   :     0.015727
      dxy     :     0.019969

 18 H s       :     0.673648  s :     0.673648
      pz      :     0.038336  p :     0.120456
      px      :     0.022488
      py      :     0.059632



                      *****************************
                      * MAYER POPULATION ANALYSIS *
                      *****************************

  NA   - Mulliken gross atomic population
  ZA   - Total nuclear charge
  QA   - Mulliken gross atomic charge
  VA   - Mayer's total valence
  BVA  - Mayer's bonded valence
  FA   - Mayer's free valence

  ATOM       NA         ZA         QA         VA         BVA        FA
  0 C      5.2060     6.0000     0.7940     3.6985     3.6985    -0.0000
  1 C      6.3203     6.0000    -0.3203     3.7498     3.7498     0.0000
  2 H      0.7215     1.0000     0.2785     0.9029     0.9029     0.0000
  3 H      0.7084     1.0000     0.2916     0.9037     0.9037    -0.0000
  4 O      8.6310     8.0000    -0.6310     1.8500     1.8500    -0.0000
  5 C      6.2205     6.0000    -0.2205     3.7762     3.7762     0.0000
  6 H      0.8304     1.0000     0.1696     0.9438     0.9438    -0.0000
  7 H      0.8274     1.0000     0.1726     0.9410     0.9410    -0.0000
  8 C      6.0522     6.0000    -0.0522     3.7612     3.7612     0.0000
  9 H      0.8348     1.0000     0.1652     0.9426     0.9426     0.0000
 10 H      0.8517     1.0000     0.1483     0.9473     0.9473     0.0000
 11 C      5.1981     6.0000     0.8019     3.6791     3.6791    -0.0000
 12 O      8.6031     8.0000    -0.6031     1.8709     1.8709    -0.0000
 13 N      7.6842     7.0000    -0.6842     2.7577     2.7577     0.0000
 14 H      0.6247     1.0000     0.3753     0.8698     0.8698    -0.0000
 15 O      8.6289     8.0000    -0.6289     1.8346     1.8346     0.0000
 16 H      0.8367     1.0000     0.1633     0.9411     0.9411     0.0000
 17 O      8.5981     8.0000    -0.5981     1.8619     1.8619    -0.0000
 18 H      0.6220     1.0000     0.3780     0.8680     0.8680    -0.0000

  Mayer bond orders larger than 0.100000
B(  0-C ,  1-C ) :   0.9316 B(  0-C ,  4-O ) :   0.9881 B(  0-C , 17-O ) :   1.7854 
B(  1-C ,  5-C ) :   0.9558 B(  1-C ,  6-H ) :   0.9607 B(  1-C ,  7-H ) :   0.9559 
B(  2-H , 13-N ) :   0.9083 B(  3-H , 13-N ) :   0.8905 B(  4-O , 14-H ) :   0.8382 
B(  5-C ,  8-C ) :   0.9584 B(  5-C ,  9-H ) :   0.9551 B(  5-C , 10-H ) :   0.9690 
B(  8-C , 11-C ) :   0.9189 B(  8-C , 13-N ) :   0.9868 B(  8-C , 16-H ) :   0.9594 
B( 11-C , 12-O ) :   1.7848 B( 11-C , 15-O ) :   0.9812 B( 15-O , 18-H ) :   0.8369 


-------
TIMINGS
-------

Total SCF time: 0 days 0 hours 0 min 24 sec 

Total time                  ....      24.211 sec
Sum of individual times     ....      23.178 sec  ( 95.7%)

SCF preparation             ....       0.017 sec  (  0.1%)
Fock matrix formation       ....      22.968 sec  ( 94.9%)
  Startup                   ....       0.001 sec  (  0.0% of F)
  Coulomb+Exchange Fock     ....      23.990 sec  (104.5% of F)
Diagonalization             ....       0.000 sec  (  0.0%)
Density matrix formation    ....       0.109 sec  (  0.4%)
Total Energy calculation    ....       0.001 sec  (  0.0%)
Population analysis         ....       0.002 sec  (  0.0%)
Orbital Transformation      ....       0.032 sec  (  0.1%)
Orbital Orthonormalization  ....       0.000 sec  (  0.0%)
DIIS solution               ....       0.034 sec  (  0.1%)
SOSCF solution              ....       0.015 sec  (  0.1%)
Finished LeanSCF after  24.2 sec

Maximum memory used throughout the entire LEANSCF-calculation: 15.2 MB

------------------------------------------------------------------------------
                                ORCA  MP2 
------------------------------------------------------------------------------

Freezing NCore=20 chemical core electrons
MP2 will be done in the AO integral direct mode
The Q1-step will be done using symmetric double matrices
Dimension of the basis                    ...  185
Memory devoted for MP2                    ... 4096 MB   
Memory needed for all in one shot         ...  705 MB
Number of MOs that can be treated together...  167      
MP2 density construction                  ... relaxed
The MP2 gradient is requested => amplitudes will be stored on disk
Total number of MOs              ...   29
Number of MOs treated per batch  ...   29 
Number of batches necessary      ...    1 
OPERATORS   0/  0 PASS   0
-----------------------------------------------
 MP2 CORRELATION ENERGY   :     -1.548822546 Eh
-----------------------------------------------


---------------------
MP2 DENSITY FORMATION
---------------------

Completing the external part of the density      ... done
Storing the unrelaxed density                    ... done

Calculating G(D)                                 ... done
Completing the Lagrangian                        ... done
Solving the Z-vector equations                   ... 
-------------------
SHARK CP-SCF DRIVER
-------------------

Dimension of the orbital basis          ...    185
Dimension of the CPSCF-problem          ...   5694
Number of operators                     ...      1
Max. number of iterations               ...    128
Convergence Tolerance                   ... 1.0e-04
Number of perturbations                 ...      1
Perturbation type                       ... REAL

----------------------------
POPLE LINEAR EQUATION SOLVER
----------------------------

  ITERATION   0:   ||err||_max =   1.6468e-01 (   2.6 sec)
  ITERATION   1:   ||err||_max =   4.0873e-02 (   2.6 sec)
  ITERATION   2:   ||err||_max =   1.6827e-02 (   2.7 sec)
  ITERATION   3:   ||err||_max =   4.5559e-03 (   2.7 sec)
  ITERATION   4:   ||err||_max =   1.3641e-03 (   2.9 sec)
  ITERATION   5:   ||err||_max =   3.7068e-04 (   2.7 sec)
  ITERATION   6:   ||err||_max =   1.2158e-04 (   2.7 sec)
  ITERATION   7:   ||err||_max =   4.4879e-05 (   2.7 sec)
                                                 ... done
Finalizing the relaxed density                   ... done
Transforming P to the AO basis                   ... done
Storing the relaxed density                      ... done

------------------------------------
ENERGY WEIGHTED DENSITY FINALIZATION
------------------------------------

Gathering the parts of the W-matrix              ...                                                      done
Forming the Z-density                            ... done
Transforming Z to the AO basis                   ... done
Calculating G(Z)                                 ... done
Finalizing the W-matrix                          ...                                                      done
Transforming W to the AO basis and storing       ... done

                *********************************************
                * UNRELAXED MP2 DENSITY POPULATION ANALYSIS *
                *********************************************

------------------------------------------------------------------------------
                           ORCA POPULATION ANALYSIS
------------------------------------------------------------------------------
Input electron density              ... 0.pmp2ur
BaseName (.gbw .S,...)              ... 0

                    ********************************
                    * MULLIKEN POPULATION ANALYSIS *
                    ********************************

-----------------------
MULLIKEN ATOMIC CHARGES
-----------------------
   0 C :    0.760305
   1 C :   -0.320598
   2 H :    0.277332
   3 H :    0.289655
   4 O :   -0.617005
   5 C :   -0.222676
   6 H :    0.170217
   7 H :    0.172856
   8 C :   -0.057385
   9 H :    0.165498
  10 H :    0.149086
  11 C :    0.767593
  12 O :   -0.579628
  13 N :   -0.676252
  14 H :    0.372135
  15 O :   -0.614866
  16 H :    0.163900
  17 O :   -0.575018
  18 H :    0.374851
Sum of atomic charges:    0.0000000

--------------------------------
MULLIKEN REDUCED ORBITAL CHARGES
--------------------------------
  0 C s       :     2.963921  s :     2.963921
      pz      :     0.678225  p :     2.115887
      px      :     0.629933
      py      :     0.807729
      dz2     :     0.021207  d :     0.159886
      dxz     :     0.028189
      dyz     :     0.036112
      dx2y2   :     0.045494
      dxy     :     0.028884
  1 C s       :     3.258871  s :     3.258871
      pz      :     1.051653  p :     2.999206
      px      :     0.992589
      py      :     0.954965
      dz2     :     0.012072  d :     0.062520
      dxz     :     0.009095
      dyz     :     0.014719
      dx2y2   :     0.012803
      dxy     :     0.013831
  2 H s       :     0.694515  s :     0.694515
      pz      :     0.012159  p :     0.028153
      px      :     0.006827
      py      :     0.009166
  3 H s       :     0.682032  s :     0.682032
      pz      :     0.007338  p :     0.028313
      px      :     0.013367
      py      :     0.007608
  4 O s       :     3.832886  s :     3.832886
      pz      :     1.489265  p :     4.735714
      px      :     1.617101
      py      :     1.629348
      dz2     :     0.006904  d :     0.048405
      dxz     :     0.010157
      dyz     :     0.011557
      dx2y2   :     0.012231
      dxy     :     0.007555
  5 C s       :     3.239693  s :     3.239693
      pz      :     0.931279  p :     2.918768
      px      :     0.913315
      py      :     1.074174
      dz2     :     0.013262  d :     0.064215
      dxz     :     0.010389
      dyz     :     0.014620
      dx2y2   :     0.012538
      dxy     :     0.013406
  6 H s       :     0.814109  s :     0.814109
      pz      :     0.009106  p :     0.015674
      px      :     0.003326
      py      :     0.003241
  7 H s       :     0.811704  s :     0.811704
      pz      :     0.003395  p :     0.015440
      px      :     0.005170
      py      :     0.006874
  8 C s       :     3.213082  s :     3.213082
      pz      :     0.913262  p :     2.758721
      px      :     1.023870
      py      :     0.821590
      dz2     :     0.016389  d :     0.085582
      dxz     :     0.012373
      dyz     :     0.022086
      dx2y2   :     0.018026
      dxy     :     0.016709
  9 H s       :     0.819115  s :     0.819115
      pz      :     0.003450  p :     0.015387
      px      :     0.004987
      py      :     0.006950
 10 H s       :     0.835614  s :     0.835614
      pz      :     0.005160  p :     0.015300
      px      :     0.002762
      py      :     0.007379
 11 C s       :     2.951681  s :     2.951681
      pz      :     0.738728  p :     2.122528
      px      :     0.627386
      py      :     0.756414
      dz2     :     0.033408  d :     0.158198
      dxz     :     0.026966
      dyz     :     0.038517
      dx2y2   :     0.028867
      dxy     :     0.030440
 12 O s       :     3.876663  s :     3.876663
      pz      :     1.403130  p :     4.648498
      px      :     1.508529
      py      :     1.736839
      dz2     :     0.016059  d :     0.054468
      dxz     :     0.012822
      dyz     :     0.009595
      dx2y2   :     0.007830
      dxy     :     0.008162
 13 N s       :     3.596721  s :     3.596721
      pz      :     1.413849  p :     4.023180
      px      :     1.191198
      py      :     1.418133
      dz2     :     0.010527  d :     0.056351
      dxz     :     0.013443
      dyz     :     0.009848
      dx2y2   :     0.007587
      dxy     :     0.014947
 14 H s       :     0.585250  s :     0.585250
      pz      :     0.015361  p :     0.042615
      px      :     0.007862
      py      :     0.019392
 15 O s       :     3.834603  s :     3.834603
      pz      :     1.726366  p :     4.731695
      px      :     1.641521
      py      :     1.363809
      dz2     :     0.007412  d :     0.048568
      dxz     :     0.008922
      dyz     :     0.012567
      dx2y2   :     0.010183
      dxy     :     0.009484
 16 H s       :     0.821111  s :     0.821111
      pz      :     0.002808  p :     0.014989
      px      :     0.008863
      py      :     0.003318
 17 O s       :     3.875547  s :     3.875547
      pz      :     1.671911  p :     4.644990
      px      :     1.542831
      py      :     1.430249
      dz2     :     0.007539  d :     0.054481
      dxz     :     0.006942
      dyz     :     0.011940
      dx2y2   :     0.014289
      dxy     :     0.013772
 18 H s       :     0.582329  s :     0.582329
      pz      :     0.013091  p :     0.042820
      px      :     0.007707
      py      :     0.022022


                     *******************************
                     * LOEWDIN POPULATION ANALYSIS *
                     *******************************

----------------------
LOEWDIN ATOMIC CHARGES
----------------------
   0 C :    0.212610
   1 C :   -0.135438
   2 H :    0.132537
   3 H :    0.134992
   4 O :   -0.191407
   5 C :   -0.097078
   6 H :    0.095538
   7 H :    0.086722
   8 C :   -0.031703
   9 H :    0.082772
  10 H :    0.078716
  11 C :    0.196842
  12 O :   -0.297742
  13 N :   -0.275031
  14 H :    0.201039
  15 O :   -0.185817
  16 H :    0.086030
  17 O :   -0.297146
  18 H :    0.203562

-------------------------------
LOEWDIN REDUCED ORBITAL CHARGES
-------------------------------
  0 C s       :     2.842311  s :     2.842311
      pz      :     0.809142  p :     2.611963
      px      :     0.805616
      py      :     0.997205
      dz2     :     0.042503  d :     0.333116
      dxz     :     0.061197
      dyz     :     0.072593
      dx2y2   :     0.092901
      dxy     :     0.063922
  1 C s       :     2.894236  s :     2.894236
      pz      :     1.061069  p :     3.135195
      px      :     1.049695
      py      :     1.024432
      dz2     :     0.019561  d :     0.106006
      dxz     :     0.013984
      dyz     :     0.025855
      dx2y2   :     0.023156
      dxy     :     0.023450
  2 H s       :     0.781944  s :     0.781944
      pz      :     0.038625  p :     0.085519
      px      :     0.020240
      py      :     0.026653
  3 H s       :     0.778409  s :     0.778409
      pz      :     0.022126  p :     0.086599
      px      :     0.040633
      py      :     0.023840
  4 O s       :     3.454209  s :     3.454209
      pz      :     1.470016  p :     4.664391
      px      :     1.600140
      py      :     1.594235
      dz2     :     0.009380  d :     0.072806
      dxz     :     0.018717
      dyz     :     0.018074
      dx2y2   :     0.016459
      dxy     :     0.010177
  5 C s       :     2.891527  s :     2.891527
      pz      :     1.014207  p :     3.096203
      px      :     1.008400
      py      :     1.073596
      dz2     :     0.023751  d :     0.109348
      dxz     :     0.018575
      dyz     :     0.023772
      dx2y2   :     0.021380
      dxy     :     0.021869
  6 H s       :     0.858958  s :     0.858958
      pz      :     0.026781  p :     0.045504
      px      :     0.009892
      py      :     0.008831
  7 H s       :     0.866629  s :     0.866629
      pz      :     0.009926  p :     0.046648
      px      :     0.015853
      py      :     0.020870
  8 C s       :     2.871686  s :     2.871686
      pz      :     1.005871  p :     3.001941
      px      :     1.031687
      py      :     0.964383
      dz2     :     0.030805  d :     0.158076
      dxz     :     0.021408
      dyz     :     0.043505
      dx2y2   :     0.032267
      dxy     :     0.030091
  9 H s       :     0.871044  s :     0.871044
      pz      :     0.010724  p :     0.046185
      px      :     0.014880
      py      :     0.020580
 10 H s       :     0.876150  s :     0.876150
      pz      :     0.015629  p :     0.045134
      px      :     0.007870
      py      :     0.021635
 11 C s       :     2.849849  s :     2.849849
      pz      :     0.908589  p :     2.621365
      px      :     0.811896
      py      :     0.900880
      dz2     :     0.064900  d :     0.331944
      dxz     :     0.063032
      dyz     :     0.080893
      dx2y2   :     0.059332
      dxy     :     0.063788
 12 O s       :     3.544066  s :     3.544066
      pz      :     1.450536  p :     4.672170
      px      :     1.516789
      py      :     1.704844
      dz2     :     0.021449  d :     0.081507
      dxz     :     0.024737
      dyz     :     0.014400
      dx2y2   :     0.010363
      dxy     :     0.010557
 13 N s       :     3.183503  s :     3.183503
      pz      :     1.396427  p :     4.006905
      px      :     1.192210
      py      :     1.418269
      dz2     :     0.013993  d :     0.084623
      dxz     :     0.019410
      dyz     :     0.015289
      dx2y2   :     0.012616
      dxy     :     0.023315
 14 H s       :     0.676345  s :     0.676345
      pz      :     0.042520  p :     0.122616
      px      :     0.023469
      py      :     0.056627
 15 O s       :     3.448794  s :     3.448794
      pz      :     1.692505  p :     4.663739
      px      :     1.624449
      py      :     1.346786
      dz2     :     0.009940  d :     0.073284
      dxz     :     0.011687
      dyz     :     0.018126
      dx2y2   :     0.016068
      dxy     :     0.017462
 16 H s       :     0.869470  s :     0.869470
      pz      :     0.008620  p :     0.044500
      px      :     0.026106
      py      :     0.009774
 17 O s       :     3.543509  s :     3.543509
      pz      :     1.633202  p :     4.672102
      px      :     1.544222
      py      :     1.494678
      dz2     :     0.012279  d :     0.081534
      dxz     :     0.008449
      dyz     :     0.014857
      dx2y2   :     0.020712
      dxy     :     0.025237
 18 H s       :     0.673581  s :     0.673581
      pz      :     0.039189  p :     0.122857
      px      :     0.023186
      py      :     0.060482


                      *****************************
                      * MAYER POPULATION ANALYSIS *
                      *****************************

  NA   - Mulliken gross atomic population
  ZA   - Total nuclear charge
  QA   - Mulliken gross atomic charge
  VA   - Mayer's total valence
  BVA  - Mayer's bonded valence
  FA   - Mayer's free valence

  ATOM       NA         ZA         QA         VA         BVA        FA
  0 C      5.2397     6.0000     0.7603     3.7621     3.4733     0.2888
  1 C      6.3206     6.0000    -0.3206     3.8392     3.5710     0.2682
  2 H      0.7227     1.0000     0.2773     0.9099     0.8645     0.0454
  3 H      0.7103     1.0000     0.2897     0.9114     0.8654     0.0460
  4 O      8.6170     8.0000    -0.6170     2.1081     1.7511     0.3570
  5 C      6.2227     6.0000    -0.2227     3.8612     3.5901     0.2711
  6 H      0.8298     1.0000     0.1702     0.9517     0.9046     0.0471
  7 H      0.8271     1.0000     0.1729     0.9493     0.9027     0.0465
  8 C      6.0574     6.0000    -0.0574     3.8374     3.5582     0.2792
  9 H      0.8345     1.0000     0.1655     0.9512     0.9036     0.0476
 10 H      0.8509     1.0000     0.1491     0.9558     0.9082     0.0476
 11 C      5.2324     6.0000     0.7676     3.7441     3.4518     0.2923
 12 O      8.5796     8.0000    -0.5796     2.1383     1.7388     0.3995
 13 N      7.6763     7.0000    -0.6763     2.9516     2.6252     0.3264
 14 H      0.6279     1.0000     0.3721     0.8766     0.8327     0.0440
 15 O      8.6149     8.0000    -0.6149     2.0922     1.7368     0.3554
 16 H      0.8361     1.0000     0.1639     0.9494     0.9014     0.0480
 17 O      8.5750     8.0000    -0.5750     2.1289     1.7306     0.3983
 18 H      0.6251     1.0000     0.3749     0.8747     0.8311     0.0437

  Mayer bond orders larger than 0.100000
B(  0-C ,  1-C ) :   0.8826 B(  0-C ,  4-O ) :   0.9334 B(  0-C , 17-O ) :   1.6679 
B(  1-C ,  5-C ) :   0.9029 B(  1-C ,  6-H ) :   0.9238 B(  1-C ,  7-H ) :   0.9192 
B(  2-H , 13-N ) :   0.8714 B(  3-H , 13-N ) :   0.8539 B(  4-O , 14-H ) :   0.8036 
B(  5-C ,  8-C ) :   0.9047 B(  5-C ,  9-H ) :   0.9177 B(  5-C , 10-H ) :   0.9315 
B(  8-C , 11-C ) :   0.8686 B(  8-C , 13-N ) :   0.9305 B(  8-C , 16-H ) :   0.9221 
B( 11-C , 12-O ) :   1.6674 B( 11-C , 15-O ) :   0.9268 B( 15-O , 18-H ) :   0.8025 



                *******************************************
                * RELAXED MP2 DENSITY POPULATION ANALYSIS *
                *******************************************

------------------------------------------------------------------------------
                           ORCA POPULATION ANALYSIS
------------------------------------------------------------------------------
Input electron density              ... 0.pmp2re
BaseName (.gbw .S,...)              ... 0

                    ********************************
                    * MULLIKEN POPULATION ANALYSIS *
                    ********************************

-----------------------
MULLIKEN ATOMIC CHARGES
-----------------------
   0 C :    0.572391
   1 C :   -0.305470
   2 H :    0.262150
   3 H :    0.268881
   4 O :   -0.516405
   5 C :   -0.203142
   6 H :    0.156770
   7 H :    0.155398
   8 C :   -0.069780
   9 H :    0.148555
  10 H :    0.135972
  11 C :    0.572362
  12 O :   -0.446669
  13 N :   -0.614189
  14 H :    0.345741
  15 O :   -0.514465
  16 H :    0.146739
  17 O :   -0.443287
  18 H :    0.348449
Sum of atomic charges:    0.0000000

--------------------------------
MULLIKEN REDUCED ORBITAL CHARGES
--------------------------------
  0 C s       :     2.979595  s :     2.979595
      pz      :     0.756128  p :     2.297807
      px      :     0.708142
      py      :     0.833537
      dz2     :     0.020537  d :     0.150207
      dxz     :     0.026706
      dyz     :     0.033217
      dx2y2   :     0.042537
      dxy     :     0.027211
  1 C s       :     3.235172  s :     3.235172
      pz      :     1.049166  p :     3.013639
      px      :     0.990624
      py      :     0.973849
      dz2     :     0.011199  d :     0.056659
      dxz     :     0.008957
      dyz     :     0.012484
      dx2y2   :     0.011098
      dxy     :     0.012920
  2 H s       :     0.710769  s :     0.710769
      pz      :     0.011263  p :     0.027081
      px      :     0.006739
      py      :     0.009078
  3 H s       :     0.703939  s :     0.703939
      pz      :     0.007437  p :     0.027180
      px      :     0.012119
      py      :     0.007624
  4 O s       :     3.814608  s :     3.814608
      pz      :     1.461129  p :     4.654859
      px      :     1.594602
      py      :     1.599129
      dz2     :     0.007125  d :     0.046938
      dxz     :     0.009129
      dyz     :     0.011352
      dx2y2   :     0.011595
      dxy     :     0.007738
  5 C s       :     3.216782  s :     3.216782
      pz      :     0.943414  p :     2.928192
      px      :     0.923533
      py      :     1.061245
      dz2     :     0.011392  d :     0.058169
      dxz     :     0.009904
      dyz     :     0.013476
      dx2y2   :     0.011092
      dxy     :     0.012305
  6 H s       :     0.828269  s :     0.828269
      pz      :     0.008052  p :     0.014960
      px      :     0.003507
      py      :     0.003402
  7 H s       :     0.829926  s :     0.829926
      pz      :     0.003515  p :     0.014676
      px      :     0.004917
      py      :     0.006244
  8 C s       :     3.191207  s :     3.191207
      pz      :     0.930690  p :     2.800098
      px      :     1.012142
      py      :     0.857265
      dz2     :     0.015602  d :     0.078476
      dxz     :     0.011512
      dyz     :     0.019382
      dx2y2   :     0.016521
      dxy     :     0.015457
  9 H s       :     0.836794  s :     0.836794
      pz      :     0.003545  p :     0.014651
      px      :     0.004765
      py      :     0.006342
 10 H s       :     0.849435  s :     0.849435
      pz      :     0.004891  p :     0.014592
      px      :     0.002994
      py      :     0.006706
 11 C s       :     2.972009  s :     2.972009
      pz      :     0.791697  p :     2.307050
      px      :     0.707228
      py      :     0.808125
      dz2     :     0.030574  d :     0.148579
      dxz     :     0.025700
      dyz     :     0.036240
      dx2y2   :     0.027343
      dxy     :     0.028722
 12 O s       :     3.850844  s :     3.850844
      pz      :     1.385398  p :     4.544062
      px      :     1.472486
      py      :     1.686179
      dz2     :     0.014552  d :     0.051763
      dxz     :     0.011871
      dyz     :     0.009764
      dx2y2   :     0.007643
      dxy     :     0.007932
 13 N s       :     3.579955  s :     3.579955
      pz      :     1.390599  p :     3.980792
      px      :     1.177634
      py      :     1.412559
      dz2     :     0.010244  d :     0.053442
[...]
 17 O s       :     3.863885  s :     3.863885
      pz      :     1.610726  p :     4.532604
      px      :     1.505855
      py      :     1.416023
      dz2     :     0.007097  d :     0.050902
      dxz     :     0.006525
      dyz     :     0.011551
      dx2y2   :     0.013072
      dxy     :     0.012657
 18 H s       :     0.612223  s :     0.612223
      pz      :     0.013986  p :     0.040824
      px      :     0.008197
      py      :     0.018641


                     *******************************
                     * LOEWDIN POPULATION ANALYSIS *
                     *******************************

----------------------
LOEWDIN ATOMIC CHARGES
----------------------
   0 C :    0.153220
   1 C :   -0.151425
   2 H :    0.131306
   3 H :    0.131506
   4 O :   -0.170257
   5 C :   -0.105307
   6 H :    0.097008
   7 H :    0.088731
   8 C :   -0.051035
   9 H :    0.083075
  10 H :    0.080294
  11 C :    0.138025
  12 O :   -0.231382
  13 N :   -0.262849
  14 H :    0.190062
  15 O :   -0.167924
  16 H :    0.087817
  17 O :   -0.232531
  18 H :    0.191666

-------------------------------
LOEWDIN REDUCED ORBITAL CHARGES
-------------------------------
  0 C s       :     2.853692  s :     2.853692
      pz      :     0.848305  p :     2.684868
      px      :     0.836886
      py      :     0.999677
      dz2     :     0.040469  d :     0.308220
      dxz     :     0.054024
      dyz     :     0.068296
      dx2y2   :     0.083612
      dxy     :     0.061818
  1 C s       :     2.895888  s :     2.895888
      pz      :     1.069560  p :     3.155109
      px      :     1.046427
      py      :     1.039121
      dz2     :     0.019436  d :     0.100428
      dxz     :     0.014198
      dyz     :     0.022065
      dx2y2   :     0.022096
      dxy     :     0.022633
  2 H s       :     0.784824  s :     0.784824
      pz      :     0.037096  p :     0.083870
      px      :     0.020716
      py      :     0.026059
  3 H s       :     0.783310  s :     0.783310
      pz      :     0.023304  p :     0.085185
      px      :     0.036838
      py      :     0.025042
  4 O s       :     3.482556  s :     3.482556
      pz      :     1.470783  p :     4.615558
      px      :     1.590835
      py      :     1.553940
      dz2     :     0.009890  d :     0.072143
      dxz     :     0.017890
      dyz     :     0.017315
      dx2y2   :     0.016921
      dxy     :     0.010127
  5 C s       :     2.893043  s :     2.893043
      pz      :     1.018580  p :     3.108801
      px      :     1.011701
      py      :     1.078520
      dz2     :     0.021630  d :     0.103463
      dxz     :     0.018205
      dyz     :     0.022934
      dx2y2   :     0.020491
      dxy     :     0.020203
  6 H s       :     0.857770  s :     0.857770
      pz      :     0.026071  p :     0.045222
      px      :     0.010121
      py      :     0.009031
  7 H s       :     0.864564  s :     0.864564
      pz      :     0.010084  p :     0.046705
      px      :     0.014794
      py      :     0.021827
  8 C s       :     2.874876  s :     2.874876
      pz      :     1.012771  p :     3.025689
      px      :     1.029427
      py      :     0.983492
      dz2     :     0.029814  d :     0.150470
      dxz     :     0.021442
      dyz     :     0.040539
      dx2y2   :     0.027853
      dxy     :     0.030823
  9 H s       :     0.871139  s :     0.871139
      pz      :     0.010651  p :     0.045787
      px      :     0.014071
      py      :     0.021065
 10 H s       :     0.874957  s :     0.874957
      pz      :     0.015826  p :     0.044748
      px      :     0.008371
      py      :     0.020552
 11 C s       :     2.862289  s :     2.862289
      pz      :     0.934122  p :     2.692562
      px      :     0.848721
      py      :     0.909720
      dz2     :     0.058975  d :     0.307123
      dxz     :     0.063314
      dyz     :     0.073329
      dx2y2   :     0.056097
      dxy     :     0.055408
 12 O s       :     3.560656  s :     3.560656
      pz      :     1.436287  p :     4.591928
      px      :     1.510046
      py      :     1.645595
      dz2     :     0.020867  d :     0.078798
      dxz     :     0.022946
      dyz     :     0.014892
      dx2y2   :     0.009763
      dxy     :     0.010330
 13 N s       :     3.198099  s :     3.198099
      pz      :     1.380003  p :     3.981929
      px      :     1.207031
      py      :     1.394895
      dz2     :     0.013107  d :     0.082821
      dxz     :     0.019800
      dyz     :     0.015742
      dx2y2   :     0.011400
      dxy     :     0.022772
 14 H s       :     0.690156  s :     0.690156
      pz      :     0.037376  p :     0.119782
      px      :     0.023558
      py      :     0.058847
 15 O s       :     3.477440  s :     3.477440
      pz      :     1.651480  p :     4.618040
      px      :     1.591518
      py      :     1.375042
      dz2     :     0.009817  d :     0.072445
      dxz     :     0.012259
      dyz     :     0.018421
      dx2y2   :     0.015752
      dxy     :     0.016195
 16 H s       :     0.867519  s :     0.867519
      pz      :     0.009166  p :     0.044664
      px      :     0.024722
      py      :     0.010776
 17 O s       :     3.560793  s :     3.560793
      pz      :     1.590539  p :     4.593009
      px      :     1.516930
      py      :     1.485540
      dz2     :     0.011631  d :     0.078730
      dxz     :     0.007905
      dyz     :     0.015281
      dx2y2   :     0.020508
      dxy     :     0.023404
 18 H s       :     0.687940  s :     0.687940
      pz      :     0.042445  p :     0.120394
      px      :     0.023260
      py      :     0.054689


                      *****************************
                      * MAYER POPULATION ANALYSIS *
                      *****************************

  NA   - Mulliken gross atomic population
  ZA   - Total nuclear charge
  QA   - Mulliken gross atomic charge
  VA   - Mayer's total valence
  BVA  - Mayer's bonded valence
  FA   - Mayer's free valence

  ATOM       NA         ZA         QA         VA         BVA        FA
  0 C      5.4242     6.0000     0.5758     3.9688     3.6920     0.2768
  1 C      6.3053     6.0000    -0.3053     3.8840     3.6200     0.2640
  2 H      0.7394     1.0000     0.2606     0.9170     0.8711     0.0459
  3 H      0.7309     1.0000     0.2691     0.9267     0.8808     0.0459
  4 O      8.5192     8.0000    -0.5192     2.2260     1.8728     0.3531
  5 C      6.2007     6.0000    -0.2007     3.9138     3.6460     0.2678
  6 H      0.8427     1.0000     0.1573     0.9546     0.9073     0.0473
  7 H      0.8392     1.0000     0.1608     0.9569     0.9109     0.0460
  8 C      6.0738     6.0000    -0.0738     3.9059     3.6306     0.2753
  9 H      0.8495     1.0000     0.1505     0.9592     0.9119     0.0473
 10 H      0.8643     1.0000     0.1357     0.9576     0.9097     0.0479
 11 C      5.4250     6.0000     0.5750     3.9516     3.6716     0.2800
 12 O      8.4499     8.0000    -0.4499     2.3066     1.9160     0.3906
 13 N      7.6106     7.0000    -0.6106     3.0253     2.7021     0.3232
 14 H      0.6556     1.0000     0.3444     0.9007     0.8571     0.0436
 15 O      8.5191     8.0000    -0.5191     2.2091     1.8574     0.3516
 16 H      0.8502     1.0000     0.1498     0.9522     0.9042     0.0480
 17 O      8.4474     8.0000    -0.4474     2.2924     1.9029     0.3895
 18 H      0.6530     1.0000     0.3470     0.8983     0.8550     0.0432

  Mayer bond orders larger than 0.100000
B(  0-C ,  1-C ) :   0.9009 B(  0-C ,  4-O ) :   1.0022 B(  0-C , 17-O ) :   1.7792 
B(  1-C ,  5-C ) :   0.9208 B(  1-C ,  6-H ) :   0.9143 B(  1-C ,  7-H ) :   0.9077 
B(  2-H , 13-N ) :   0.8727 B(  3-H , 13-N ) :   0.8551 B(  4-O , 14-H ) :   0.8119 
B(  5-C ,  8-C ) :   0.9150 B(  5-C ,  9-H ) :   0.9115 B(  5-C , 10-H ) :   0.9226 
B(  8-C , 11-C ) :   0.8694 B(  8-C , 13-N ) :   0.9684 B(  8-C , 16-H ) :   0.9095 
B( 11-C , 12-O ) :   1.7826 B( 11-C , 15-O ) :   0.9969 B( 15-O , 18-H ) :   0.8112 



----------------------------------
MP2 DERIVATIVE INTEGRAL GENERATION
----------------------------------

Input SCF Electron Density              ... 0.scfp
Input Correlated Electron Density       ... 0.pmp2re
Input Energy Weighted Density           ... 0.wmp2.tmp
Input Wavefunction Amplitudes           ... 0.mp2tsaa.tmp

Nuclear repulsion gradient              ... done (  0.0 sec)
HCore & Overlap gradient  (SHARK)       ... done (  0.1 sec)
Analytic two-electron gradient terms    ... 
  Batch handling in the gradient evaluation:
  General contraction                   ... not used
  Memory available                      ... 4082.3 MB
  Memory per occupied orbital in Q2     ...    7.6 MB
  Memory per occupied orbital in Q3     ...    0.0 MB
  Total memory requirement per |i>      ...    7.6 MB
  Number of orbitals treated per batch  ...     29
  Number of batches to be done          ...      1
done ( 22.3 sec)

---------------------------------------
MP2 TOTAL ENERGY:     -550.088998177 Eh
---------------------------------------

The final MP2 gradient
  0:  -0.00003167  -0.00002946   0.00003500
  1:   0.00009252   0.00000966   0.00006473
  2:  -0.00000057   0.00000549   0.00001703
  3:   0.00000610  -0.00001457   0.00002693
  4:  -0.00001453   0.00000505  -0.00004521
  5:  -0.00002191  -0.00004567  -0.00002134
  6:  -0.00005109   0.00001512  -0.00000105
  7:  -0.00001002   0.00000212  -0.00001772
  8:   0.00008088   0.00000953   0.00001757
  9:   0.00000279  -0.00000065  -0.00000323
 10:  -0.00000062   0.00001115   0.00001542
 11:  -0.00005229  -0.00007453  -0.00004207
 12:   0.00001561   0.00003024  -0.00000186
 13:  -0.00002337   0.00003368  -0.00004224
 14:   0.00000438  -0.00001807  -0.00001386
 15:   0.00000872   0.00005185   0.00003058
 16:  -0.00000683   0.00000547  -0.00002009
 17:   0.00000560   0.00001858   0.00000581
 18:  -0.00000368  -0.00001499  -0.00000439

-----------------------------------
NORM OF THE MP2 GRADIENT:  0.000231
-----------------------------------

Maximum memory used throughout the entire MP2-calculation: 759.7 MB

-------------------------   --------------------
FINAL SINGLE POINT ENERGY      -550.088998177124
-------------------------   --------------------

                                *** OPTIMIZATION RUN DONE ***


------------------------------------------------------------------------------
                              ORCA PROPERTY CALCULATIONS
------------------------------------------------------------------------------

GBWName                                 ... 0.gbw
Number of atoms                         ...     19
Number of basis functions               ...    185
Max core memory                         ...   4096 MB

Electric properties:
Dipole moment                           ... YES
Quadrupole moment                       ...  NO
Static polarizability (Dipole/Dipole)   ...  NO
Static polarizability (Dipole/Quad.)    ...  NO
Static polarizability (Quad./Quad.)     ...  NO
Static polarizability (Velocity)        ...  NO
Static hyperpolarizability              ...  NO

Atomic electric properties:
Dipole moment                           ...  NO
Quadrupole moment                       ...  NO
Static polarizability                   ...  NO

Choice of electric origin               ... Center of mass
Position of electric origin             ...    -2.435148     0.764226     0.728426

General magnetic properties:
Magnetizability                         ...  NO

EPR properties:
g-Tensor (aka g-matrix)                 ...  NO
Zero-Field splitting spin-orbit         ...  NO
Zero-field splitting spin-spin          ...  NO
Hyperfine couplings                     ...  NO (   0 nuclei)
Quadrupole couplings                    ...  NO (   0 nuclei)
Contact density                         ...  NO (   0 nuclei)

NMR properties:
Chemical shifts                         ...  NO (   0 nuclei)
Spin-rotation constants                 ...  NO (   0 nuclei)
Spin-spin couplings                     ...  NO (   0 nuclei,    0 pairs)

Choice of magnetic origin               ... GIAO
Position of magnetic origin             ...     0.000000     0.000000     0.000000

Properties with geometric perturbations:
SCF Hessian                             ...  NO
IR spectrum                             ...  NO
VCD spectrum                            ...  NO
X-ray spectroscopy properties:
SCF XES/XAS/RIXS spectra                ...  NO

SCF SOC stabilization energy            ...  NO
Diagonal Born-Oppenheimer correction    ...  NO

-------------
DIPOLE MOMENT
-------------

Method             : SCF
Type of density    : Electron Density
Multiplicity       :   1
Irrep              :   0
Energy             :  -548.5333135240786078 Eh
Basis              : AO
                                X                 Y                 Z
Electronic contribution:     -0.148553040      -5.313220544       3.297281626
Nuclear contribution   :      0.368999973       5.631717799      -3.421538747
                        -----------------------------------------
Total Dipole Moment    :      0.220446933       0.318497255      -0.124257121
                        -----------------------------------------
Magnitude (a.u.)       :      0.406788869
Magnitude (Debye)      :      1.033975134



--------------------
Rotational spectrum 
--------------------
 
Rotational constants in cm-1:             0.055144             0.039887             0.034755 
Rotational constants in MHz :          1653.187503          1195.783077          1041.915484 

Dipole components along the rotational axes: 
x,y,z [a.u.] :     0.258957    -0.285531    -0.129964 
x,y,z [Debye]:     0.658216    -0.725761    -0.330343 

 

-------------
DIPOLE MOMENT
-------------

Method             : MP2
Type of density    : Electron Density
Multiplicity       :   1
Level              : Unrelaxed density
Irrep              :   0
Energy             :     0.0000000000000000 Eh
Basis              : AO
                                X                 Y                 Z
Electronic contribution:     -0.155512124      -5.357457223       3.332312779
Nuclear contribution   :      0.368999973       5.631717799      -3.421538747
                        -----------------------------------------
Total Dipole Moment    :      0.213487848       0.274260576      -0.089225968
                        -----------------------------------------
Magnitude (a.u.)       :      0.358827532
Magnitude (Debye)      :      0.912067104



--------------------
Rotational spectrum 
--------------------
 
Rotational constants in cm-1:             0.055144             0.039887             0.034755 
Rotational constants in MHz :          1653.187503          1195.783077          1041.915484 

Dipole components along the rotational axes: 
x,y,z [a.u.] :     0.249791    -0.234295    -0.107087 
x,y,z [Debye]:     0.634918    -0.595530    -0.272193 

 

-------------
DIPOLE MOMENT
-------------

Method             : MP2
Type of density    : Electron Density
Multiplicity       :   1
Level              : Relaxed density
Irrep              :   0
Energy             :     0.0000000000000000 Eh
Basis              : AO
                                X                 Y                 Z
Electronic contribution:     -0.182028421      -5.550684260       3.484731754
Nuclear contribution   :      0.368999973       5.631717799      -3.421538747
                        -----------------------------------------
Total Dipole Moment    :      0.186971551       0.081033539       0.063193007
                        -----------------------------------------
Magnitude (a.u.)       :      0.213349834
Magnitude (Debye)      :      0.542292181



--------------------
Rotational spectrum 
--------------------
 
Rotational constants in cm-1:             0.055144             0.039887             0.034755 
Rotational constants in MHz :          1653.187503          1195.783077          1041.915484 

Dipole components along the rotational axes: 
x,y,z [a.u.] :     0.212914    -0.009865    -0.009401 
x,y,z [Debye]:     0.541185    -0.025074    -0.023895 

 

Dipole moment calculation done in   0.0 sec 

Maximum memory used throughout the entire PROP-calculation: 10.2 MB

--------------------------------
SUGGESTED CITATIONS FOR THIS RUN
--------------------------------

Below you find a list of papers that are relevant to this ORCA run
We neither can nor want to force you to cite these papers, but we appreciate if you do
You receive ORCA, which is the product of decades of hard work by many enthusiastic individuals, for free
The only thing we kindly ask in return is that you cite our papers,
We deeply appreciate it, if you show your appreciation for ORCA by not just citing the generic ORCA reference.

Please note that relegating all ORCA citations to the supporting information does *not* help us.
SI sections are not indexed - citations you put there will not count into any citation statistics
But we need these citations in order to attract the funding resources that allow us to do what we are doing

Therefore, if you are a happy ORCA user, please consider citing a few of the papers listed below in the main body of your paper

In addition to the list printed below, the program has created the file 0.bibtex that contains the list in bibtex format
You can import this file easily into all common literature databanks and citation aid programs


List of essential papers. We consider these as the minimum necessary citations

  1. Neese, F.
     Software update: the ORCA program system, version 6.0
     WIRES Comput. Molec. Sci. 2025 15(1), e70019
     doi.org/10.1002/wcms.7019

List of papers to cite with high priority. The work reported in these papers was absolutely
necessary for this run to complete.
Our perspective: the developers of density functionals and basis sets usually get cited in chemistry papers
Good! But without the algorithms to do something with them, the functionals or basis sets would not do anything.
Hence, in our opinion, the algorithm design and method developments papers are equally worthy of getting cited

  1. Neese, F.
     The SHARK Integral Generation and Digestion System
     J. Comp. Chem. 2022 44(3), 381
     doi.org/10.1002/jcc.26942

List of suggested additional citations. These are papers that are important in the 'surrounding' of 
of this run, or papers that preceded the highly important papers. If you like your results we are grateful for a citation.

  1. Neese, F.
     The ORCA program system
     WIRES Comput. Molec. Sci. 2012 2(1), 73-78
     doi.org/10.1002/wcms.81
  2. Neese, F.
     Software update: the ORCA program system, version 4.0
     WIRES Comput. Molec. Sci. 2018 8(1), 1-6
     doi.org/10.1002/wcms.1327
  3. Neese, F.; Wennmohs, F.; Becker, U.; Riplinger, C.
     The ORCA quantum chemistry program package
     J. Chem. Phys. 2020 152(22), 224108
     doi.org/10.1063/5.0004608
  4. Neese, F.
     Software update: The ORCA program system—Version 5.0
     WIRES Comput. Molec. Sci. 2022 12(1), e1606
     doi.org/10.1002/wcms.1606

List of optional additional citations

  1. Neese, F.
     Approximate second-order SCF convergence for spin unrestricted wavefunctions
     Chem. Phys. Lett. 2000 325(1-3), 93-98
     doi.org/10.1016/s0009-2614(00)00662-x

Timings for individual modules:

Sum of individual times          ...      745.840 sec (=  12.431 min)
Startup calculation              ...        3.981 sec (=   0.066 min)   0.5 %
SCF iterations                   ...      153.296 sec (=   2.555 min)  20.6 %
Property calculations            ...        0.038 sec (=   0.001 min)   0.0 %
MP2 module                       ...      588.513 sec (=   9.809 min)  78.9 %
Geometry relaxation              ...        0.012 sec (=   0.000 min)   0.0 %
                             ****ORCA TERMINATED NORMALLY****
TOTAL RUN TIME: 0 days 0 hours 12 minutes 26 seconds 36 msec
