
                                 *****************
                                 * O   R   C   A *
                                 *****************

                                            #,                                       
                                            ###                                      
                                            ####                                     
                                            #####                                    
                                            ######                                   
                                           ########,                                 
                                     ,,################,,,,,                         
                               ,,#################################,,                 
                          ,,##########################################,,             
                       ,#########################################, ''#####,          
                    ,#############################################,,   '####,        
                  ,##################################################,,,,####,       
                ,###########''''           ''''###############################       
              ,#####''   ,,,,##########,,,,          '''####'''          '####       
            ,##' ,,,,###########################,,,                        '##       
           ' ,,###''''                  '''############,,,                           
         ,,##''                                '''############,,,,        ,,,,,,###''
      ,#''                                            '''#######################'''  
     '                                                          ''''####''''         
             ,#######,   #######,   ,#######,      ##                                
            ,#'     '#,  ##    ##  ,#'     '#,    #''#        ,####,    ,#,          
            ##       ##  ##   ,#'  ##            #'  '#       #'       ,# #          
            ##       ##  #######   ##           ,######,      #####,      #          
            '#,     ,#'  ##    ##  '#,     ,#' ,#      #,     #,   #      #          
             '#######'   ##     ##  '#######'  #'      '#     '####' #    #          



                #########################################################
                #                        -***-                          #
                #          Department of theory and spectroscopy        #
                #                                                       #
                #                      Frank Neese                      #
                #                                                       #
                #     Directorship, Architecture, Infrastructure        #
                #                    SHARK, DRIVERS                     #
                #        Core code/Algorithms in most modules           #
                #                                                       #
                #        Max Planck Institute fuer Kohlenforschung      #
                #                Kaiser Wilhelm Platz 1                 #
                #                 D-45470 Muelheim/Ruhr                 #
                #                      Germany                          #
                #                                                       #
                #                  All rights reserved                  #
                #                        -***-                          #
                #########################################################


                         Program Version 6.1.0  -  RELEASE   -
                                (GIT: $679e74b$)
                          ($2025-06-10 18:02:51 +0200$)


 With contributions from (in alphabetic order):
[Max-Planck-Institut fuer Kohlenforschung]                               
  Daniel Aravena         : Magnetic Suceptibility                        
  Michael Atanasov       : Ab Initio Ligand Field Theory (pilot matlab implementation)
  Alexander A. Auer      : GIAO ZORA, VPT2 properties, NMR spectrum      
  Ute Becker             : All parallelization in ORCA, NUMFREQ, NUMCALC 
  Giovanni Bistoni       : ED, misc. LED, open-shell LED, HFLD           
  Dmytro Bykov           : pre 5.0 version of the SCF Hessian            
  Marcos Casanova-Páez   : Triplet and SCS-CIS(D). UHF-(DLPNO)-IP/EA/STEOM-CCSD. UHF-CVS-IP/STEOM-CCSD   
  Vijay G. Chilkuri      : MRCI spin determinant printing, contributions to CSF-ICE 
  Pauline Colinet        : FMM embedding                                 
  Dipayan Datta          : RHF DLPNO-CCSD density                        
  Achintya Kumar Dutta   : EOM-CC, STEOM-CC                              
  Nicolas Foglia         : Exact transition moments, OPA infrastructure, MCD improvements    
  Dmitry Ganyushin       : Spin-Orbit,Spin-Spin,Magnetic field MRCI      
  Miquel Garcia-Rates    : C-PCM and meta-GGA Hessian, CCSD/C-PCM, Gaussian charge scheme 
  Tiago L. C. Gouveia    : GS-ROHF, GS-ROCIS                             
  Yang Guo               : DLPNO-NEVPT2, F12-NEVPT2, CIM, IAO-localization        
  Andreas Hansen         : Spin unrestricted coupled pair/coupled cluster methods 
  Ingolf Harden          : AUTO-CI MPn and infrastructure                
  Benjamin Helmich-Paris : MC-RPA, TRAH-(SCF,CASSCF), AVAS, COSX integrals, SCF dyn. polar., MC-PDFT, srDFT 
  Lee Huntington         : MR-EOM, pCC                                   
  Robert Izsak           : Overlap fitted RIJCOSX, COSX-SCS-MP3, EOM     
  Riya Kayal             : Wick's Theorem for AUTO-CI, AUTO-CI UHF-CCSDT 
  Emily Kempfer          : AUTO-CI RHF CISDT and CCSDT, approximate NEVPT4
  Christian Kollmar      : KDIIS, OOCD, Brueckner-CCSD(T), CCSD density, CASPT2, CASPT2-K, improved NEVPT2 
  Axel Koslowski         : Symmetry handling                             
  Simone Kossmann        : meta-GGA functionals, TD-DFT gradient, OOMP2, (MP2 Hessian; deprecated post 5.0) 
  Lucas Lang             : DCDCAS, Hyperfine gauge corrections, ICE-SOC+SSC
  Marvin Lechner         : AUTO-CI (C++ implementation), FIC-MRCC        
  Spencer Leger          : CASSCF response                               
  Dagmar Lenk            : GEPOL surface, SMD, ORCA-2-JSON               
  Dimitrios Liakos       : Extrapolation schemes; Compound Job, Property file
  Dimitrios Manganas     : Further ROCIS development; embedding schemes. LFT, Crystal Embedding 
  Dimitrios Pantazis     : SARC Basis sets                               
  Anastasios Papadopoulos: AUTO-CI, single reference methods and gradients 
  Taras Petrenko         : pre 6.0 DFT Hessian and TD-DFT gradient,  ECA, NRVS 
  Petra Pikulova         : Analytic Raman intensities                    
  Peter Pinski           : DLPNO-MP2, DLPNO-MP2 Gradient                 
  Shashank Vittal Rao    : ES-AILFT, MagRelax                            
  Christoph Reimann      : Effective Core Potentials                     
  Marius Retegan         : Local ZFS, SOC                                
  Christoph Riplinger    : Optimizer, TS searches, QM/MM, DLPNO-CCSD(T), (RO)-DLPNO pert. Triples 
  Michael Roemelt        : Original ROCIS implementation, recursive CI coupling coefficients
  Masaaki Saitow         : Open-shell DLPNO-CCSD energy and density      
  Barbara Sandhoefer     : DKH picture change effects                    
  Yorick L. A. Schmerwitz: GMF and freeze-and-release deltaSCF, NEB S-IDPP initial path                    
  Kantharuban Sivalingam : CASSCF convergence/infrastructure, NEVPT2, NEVPT3, NEVPT4(SD), FIC-MRCI and CEPA variants
  Bernardo de Souza      : ESD, SOC TD-DFT                               
  Georgi L. Stoychev     : AutoAux, RI-MP2 NMR, DLPNO-MP2 response, X2C  
  Van Anh Tran           : RI-MP2 g-tensors                              
  Willem Van den Heuvel  : Paramagnetic NMR                              
  Zikuan Wang            : NOTCH, Electric field optimization            
  Frank Wennmohs         : Technical directorship and infrastructure     
  Hang Xu                : AUTO-CI-Response properties                   
                                                                         
[FACCTs GmbH]                                                            
  Markus Bursch, Nicolas Foglia, Miquel Garcia-Rates, Ingolf Harden, Hagen Neugebauer, Anastasios Papadopoulos, 
  Christoph Riplinger, Bernardo de Souza, Georgi L. Stoychev                                                    
                                                                 
  APM, various basis sets, CI-OPT, improved COSX, DLPNO-Multilevel,           
  DOCKER, DRACO, updates on ESD, Fragmentator, GOAT, IRC, LR-CPCM, L-BFGS, MBIS, meta-GGA TD-DFT gradient, ML-optimized integration grids, 
  MM, NACMEs, nearIR, NEB, NEB-TS, NL-DFT gradient (VV10), 2- and 3-layer-ONIOM, interface openCOSMO-RS, QMMM,   
  Crystal-QMMM, RESP, rigid body optimization, SF, symmetry and pop. for TD-DFT, various functionals, SOLVATOR                                   
                                                                         
[Other institutions]                                                     
  V. Asgeirsson          : NEB                                           
  Christoph Bannwarth    : sTDA-DFT, sTD-DFT, PBEh-3c, B97-3c, D3        
  Giovanni Bistoni       : ETS/NOCV, ADLD/ADEX, COVALED                  
  Martin Brehm           : Molecular dynamics                            
  Ronald Cardenas        : ETS/NOCV                                      
  Martina Colucci        : COVALED                                       
  Sebastian Ehlert       : rSCAN, r2SCAN, r2SCAN-3c, D4, dhf basis sets  
  Marvin Friede          : D4 for Fr, Ra, Ac-Lr                          
  Lars Goerigk           : TD-DFT with DH, B97 family of functionals     
  Stefan Grimme          : VdW corrections, initial TS optimization, DFT functionals, gCP, sTDA/sTD-DF 
  Waldemar Hujo          : DFT-NL                                        
  H. Jonsson             : NEB                                           
  Holger Kruse           : gCP                                           
  Marcel Mueller         : wB97X-3c, vDZP basis set                      
  Hagen Neugebauer       : wr2SCAN, Native XTB                           
  Gianluca Regni         : ADLD/ADEX                                     
  Tobias Risthaus        : pre 6.0 range-separated hybrid DFT and stability analysis
  Lukas Wittmann         : regularized MP2, r2SCAN double-hybrids, wr2SCAN        
                                                                         
We gratefully acknowledge several colleagues who have allowed us to      
interface, adapt or use parts of their codes:                            
  Ed Valeev, F. Pavosevic, A. Kumar             : LibInt (2-el integral package), F12 methods 
  Garnet Chan, S. Sharma, J. Yang, R. Olivares  : DMRG                   
  Ulf Ekstrom                                   : XCFun DFT Library      
  Mihaly Kallay                                 : mrcc  (arbitrary order and MRCC methods)
  Frank Weinhold                                : gennbo (NPA and NBO analysis)           
  Simon Mueller                                 : openCOSMO-RS                            
  Christopher J. Cramer and Donald G. Truhlar   : smd solvation model                     
  S Lehtola, MJT Oliveira, MAL Marques          : LibXC Library                           
  Liviu Ungur et al                             : ANISO software                          


 Your calculation uses the libint2 library for the computation of 2-el integrals
 For citations please refer to: http://libint.valeyev.net

 Your ORCA version has been built with support for libXC version: 7.0.0
 For citations please refer to: https://libxc.gitlab.io

 This ORCA versions uses:
   CBLAS   interface :  Fast vector & matrix operations
   LAPACKE interface :  Fast linear algebra routines
   SCALAPACK package :  Parallel linear algebra routines
   Shared memory     :  Shared parallel matrices
   BLAS/LAPACK       :  OpenBLAS 0.3.29  USE64BITINT DYNAMIC_ARCH NO_AFFINITY Haswell SINGLE_THREADED
        Core in use  :  Haswell
   Copyright (c) 2011-2014, The OpenBLAS Project


  ***********************************
  * Starting time: Wed Aug  6 21:31:59 2025
  * Host name:     debian
  * Process ID:    391625
  * Working dir.:  /home/uni/mm-project/k
  ***********************************



***************************************
The coordinates will be read from file: k-input-coordinates.xyz
***************************************


Your calculation utilizes the semiempirical GFN2-xTB method
Please cite in your paper:
Bannwarth, C.; Ehlert S.; Grimme, S. J. Chem. Theory Comput. 2019, 15, 1652.
   

================================================================================

================================================================================
                                        WARNINGS
                       Please study these warnings very carefully!
================================================================================


================================================================================
 STARTING AUTOMATIC FRAGMENTATION: 
================================================================================

WARNING: Geometry Optimization
  ===> : Switching off AutoStart
         For restart on a previous wavefunction, please use MOREAD

WARNING: Found dipole moment calculation with XTB calculation
  ===> : Switching off dipole moment calculation


================================================================================
                                       INPUT FILE
================================================================================
NAME = k.inp
|  1> ! xtb goat
|  2> 
|  3> %pal
|  4>   nprocs=9
|  5> end
|  6> 
|  7> * xyzfile 0 1 k-input-coordinates.xyz
|  8> 
|  9>                          ****END OF INPUT****
================================================================================

                       *****************************
                       * Geometry Optimization Run *
                       *****************************


                       *********************************
                       *              GOAT             *
                       * Global Optimization Algorithm *
                       *********************************

Geometry optimization settings:
Update method            Update   .... BFGS
Choice of coordinates    CoordSys .... (2022) Redundant Internals
Initial Hessian          InHess   .... Almloef's Model
Max. no of cycles        MaxIter  .... 75

Convergence Tolerances:
Energy Change            TolE     ....  5.0000e-06 Eh
Max. Gradient            TolMAXG  ....  3.0000e-04 Eh/bohr
RMS Gradient             TolRMSG  ....  1.0000e-04 Eh/bohr
Max. Displacement        TolMAXD  ....  4.0000e-03 bohr
RMS Displacement         TolRMSD  ....  2.0000e-03 bohr
Strict Convergence                .... True

------------------------------------------------------------------------------
                        ORCA OPTIMIZATION COORDINATE SETUP
------------------------------------------------------------------------------

The optimization will be done in redundant internal coordinates (2022)
Making redundant internal coordinates   ...  (2022 redundants) done
Evaluating the initial hessian          ...  (Almloef) done
Evaluating the coordinates              ...  done
Calculating the B-matrix                .... done
Calculating the G-matrix                .... done
The number of degrees of freedom        ....  117

    -----------------------------------------------------------------
                    Redundant Internal Coordinates


    -----------------------------------------------------------------
         Definition                    Initial Value    Approx d2E/dq
    -----------------------------------------------------------------
      1. B(C   1,C   0)                  1.5129         0.397815   
      2. B(N   4,H   2)                  1.0184         0.419610   
      3. B(N   4,C   0)                  1.4505         0.448125   
      4. B(N   4,H   3)                  1.0186         0.419222   
      5. B(C   5,C   1)                  1.5145         0.395464   
      6. B(H   6,C   1)                  1.0941         0.354723   
      7. B(H   7,C   1)                  1.0941         0.354776   
      8. B(C   8,C   5)                  1.5124         0.398582   
      9. B(H   9,C   5)                  1.0949         0.353697   
     10. B(H  10,C   5)                  1.0951         0.353383   
     11. B(C  11,C   8)                  1.5068         0.406797   
     12. B(H  12,C   8)                  1.0940         0.354870   
     13. B(H  13,C   8)                  1.0941         0.354749   
     14. B(C  14,C  11)                  1.4875         0.436622   
     15. B(N  16,C  11)                  1.4476         0.452820   
     16. B(O  17,H  15)                  0.9803         0.482559   
     17. B(O  17,C  14)                  1.3529         0.641195   
     18. B(H  18,C   0)                  1.0931         0.355985   
     19. B(H  19,C   0)                  1.0929         0.356233   
     20. B(H  20,C  14)                  1.1402         0.299412   
     21. B(O  21,H  20)                  0.9266         0.587928   
     22. B(O  21,C  14)                  1.2213         1.039839   
     23. B(H  22,C  11)                  1.0921         0.357294   
     24. B(H  23,N  16)                  1.0196         0.417749   
     25. B(H  24,N  16)                  1.0192         0.418330   
     26. A(C   1,C   0,N   4)          107.9723         0.376597   
     27. A(N   4,C   0,H  19)          110.2877         0.331601   
     28. A(C   1,C   0,H  18)          109.8718         0.327071   
     29. A(N   4,C   0,H  18)          110.0859         0.331563   
     30. A(H  18,C   0,H  19)          108.3746         0.289824   
     31. A(C   1,C   0,H  19)          110.2489         0.327109   
     32. A(C   5,C   1,H   6)          109.6304         0.326561   
     33. A(H   6,C   1,H   7)          107.3054         0.289476   
     34. A(C   0,C   1,H   7)          109.7867         0.326888   
     35. A(C   5,C   1,H   7)          109.5906         0.326569   
     36. A(C   0,C   1,C   5)          110.8140         0.370893   
     37. A(C   0,C   1,H   6)          109.6447         0.326880   
     38. A(H   2,N   4,H   3)          106.5246         0.300252   
     39. A(C   0,N   4,H   2)          109.3163         0.337827   
     40. A(C   0,N   4,H   3)          109.2656         0.337775   
     41. A(C   8,C   5,H  10)          109.2575         0.326780   
     42. A(C   1,C   5,H  10)          110.7079         0.326358   
     43. A(C   8,C   5,H   9)          109.6436         0.326828   
     44. A(C   1,C   5,C   8)          108.8147         0.371016   
     45. A(C   1,C   5,H   9)          110.6497         0.326405   
     46. A(H   9,C   5,H  10)          107.7478         0.289167   
     47. A(C  11,C   8,H  13)          109.9740         0.328089   
     48. A(H  12,C   8,H  13)          107.1323         0.289492   
     49. A(C   5,C   8,H  13)          109.9885         0.326987   
     50. A(C  11,C   8,H  12)          110.0323         0.328107   
     51. A(C   5,C   8,H  12)          110.2935         0.327006   
     52. A(C   5,C   8,C  11)          109.3958         0.372825   
     53. A(C  14,C  11,N  16)          106.9089         0.383414   
     54. A(C   8,C  11,N  16)          109.4256         0.378737   
     55. A(C   8,C  11,C  14)          108.6731         0.378742   
     56. A(N  16,C  11,H  22)          111.5662         0.332338   
     57. A(C  14,C  11,H  22)          109.3765         0.332342   
     58. A(C   8,C  11,H  22)          110.7739         0.328476   
     59. A(C  11,C  14,O  17)          110.1868         0.407530   
     60. A(H  20,C  14,O  21)           46.0424         0.371198   
     61. A(O  17,C  14,O  21)          124.8477         0.473467   
     62. A(C  11,C  14,O  21)          124.9655         0.444366   
     63. A(O  17,C  14,H  20)          115.8792         0.341946   
     64. A(C  11,C  14,H  20)          110.9685         0.322800   
     65. A(H  23,N  16,H  24)          105.4618         0.299938   
     66. A(C  11,N  16,H  24)          109.0951         0.338242   
     67. A(C  11,N  16,H  23)          108.9186         0.338164   
     68. A(C  14,O  17,H  15)          112.0100         0.367518   
     69. A(C  14,H  20,O  21)           71.5993         0.302777   
     70. A(C  14,O  21,H  20)           62.3583         0.413932   
     71. D(H   6,C   1,C   0,H  19)    179.5475         0.012561   
     72. D(H   6,C   1,C   0,H  18)     60.1674         0.012561   
     73. D(C   5,C   1,C   0,H  18)    -60.9849         0.012561   
     74. D(C   5,C   1,C   0,N   4)    178.9390         0.012561   
     75. D(H   6,C   1,C   0,N   4)    -59.9086         0.012561   
     76. D(C   5,C   1,C   0,H  19)     58.3951         0.012561   
     77. D(H   2,N   4,C   0,C   1)     56.3739         0.017129   
     78. D(H   3,N   4,C   0,H  18)     52.6504         0.017129   
     79. D(H   3,N   4,C   0,C   1)    172.5917         0.017129   
     80. D(H   2,N   4,C   0,H  19)    176.8935         0.017129   
     81. D(H   2,N   4,C   0,H  18)    -63.5674         0.017129   
     82. D(H   9,C   5,C   1,C   0)    -62.9495         0.012419   
     83. D(C   8,C   5,C   1,H   6)     55.3635         0.012419   
     84. D(C   8,C   5,C   1,C   0)    176.5243         0.012419   
     85. D(C   8,C   5,C   1,H   7)    -62.1637         0.012419   
     86. D(H   9,C   5,C   1,H   7)     58.3625         0.012419   
     87. D(H   9,C   5,C   1,H   6)    175.8897         0.012419   
     88. D(H  12,C   8,C   5,H   9)    179.6505         0.012608   
     89. D(H  12,C   8,C   5,C   1)    -59.2050         0.012608   
     90. D(C  11,C   8,C   5,H  10)    -59.3819         0.012608   
     91. D(C  11,C   8,C   5,H   9)     58.4935         0.012608   
     92. D(H  12,C   8,C   5,H  10)     61.7751         0.012608   
     93. D(C  11,C   8,C   5,C   1)    179.6380         0.012608   
     94. D(N  16,C  11,C   8,H  13)     57.3630         0.013115   
     95. D(N  16,C  11,C   8,H  12)    175.1468         0.013115   
     96. D(N  16,C  11,C   8,C   5)    -63.5381         0.013115   
     97. D(C  14,C  11,C   8,H  13)    -59.0429         0.013115   
     98. D(C  14,C  11,C   8,H  12)     58.7409         0.013115   
     99. D(C  14,C  11,C   8,C   5)   -179.9439         0.013115   
    100. D(O  17,C  14,C  11,N  16)     69.9947         0.015065   
    101. D(O  17,C  14,C  11,C   8)   -171.9929         0.015065   
    102. D(H  20,C  14,C  11,H  22)     78.7647         0.015065   
    103. D(H  20,C  14,C  11,N  16)   -160.2937         0.015065   
    104. D(H  20,C  14,C  11,C   8)    -42.2814         0.015065   
    105. D(O  17,C  14,C  11,H  22)    -50.9469         0.015065   
    106. D(H  24,N  16,C  11,C  14)    175.3482         0.017495   
    107. D(H  24,N  16,C  11,C   8)     57.8294         0.017495   
    108. D(H  23,N  16,C  11,H  22)   -179.7502         0.017495   
    109. D(H  23,N  16,C  11,C  14)     60.7104         0.017495   
    110. D(H  23,N  16,C  11,C   8)    -56.8084         0.017495   
    111. D(H  15,O  17,C  14,O  21)   -178.8373         0.033474   
    112. D(H  15,O  17,C  14,H  20)   -125.8725         0.033474   
    113. D(H  15,O  17,C  14,C  11)      1.1506         0.033474   
    114. D(O  21,H  20,C  14,O  17)   -114.4851         0.077933   
    115. D(O  21,H  20,C  14,C  11)    118.8838         0.077933   
    116. D(H  20,O  21,C  14,O  17)     93.8681         0.099316   
    117. D(H  20,O  21,C  14,C  11)    -86.1181         0.099316   
    -----------------------------------------------------------------

Number of atoms                         .... 25
Number of degrees of freedom            .... 117


         *************************************************************
         *                GEOMETRY OPTIMIZATION CYCLE   1            *
         *************************************************************
---------------------------------
CARTESIAN COORDINATES (ANGSTROEM)
---------------------------------
  C   -14.111565    5.841533    0.727594
  C   -12.812505    6.599681    0.564869
  H   -15.153705    7.350289   -0.141740
  H   -16.085778    6.308680    0.701488
  N   -15.196148    6.804565    0.717012
  C   -11.630125    5.653699    0.593263
  H   -12.822403    7.147343   -0.382239
  H   -12.711359    7.337454    1.366378
  C   -10.366154    6.445103    0.341677
  H   -11.562006    5.149782    1.562901
  H   -11.732724    4.882365   -0.177332
  C    -9.179534    5.517079    0.375968
  H   -10.420348    6.948435   -0.628126
  H   -10.254289    7.223077    1.102758
  C    -7.946411    6.311362    0.128333
  H    -7.137733    4.543780    0.042847
  N    -9.053415    4.945536    1.700005
  O    -6.883266    5.488253   -0.022272
  H   -14.232493    5.130887   -0.094166
  H   -14.108967    5.284018    1.667640
  H    -8.110626    7.070115   -0.706816
  O    -7.899148    7.530344    0.069053
  H    -9.271284    4.742571   -0.388536
  H    -8.974882    5.701078    2.380098
  H    -9.916011    4.456464    1.935596

----------------------------
CARTESIAN COORDINATES (A.U.)
----------------------------
  NO LB    ZA    FRAG    MASS        X           Y           Z
   0 C   6.0000    1    12.011  -26.666993   11.038898    1.374953
   1 C   6.0000    1    12.011  -24.212126   12.471590    1.067448
   2 H   1.0000    1     1.008  -28.636352   13.890033   -0.267850
   3 H   1.0000    1     1.008  -30.397715   11.921677    1.325620
   4 N   7.0000    1    14.007  -28.716558   12.858764    1.354956
   5 C   6.0000    1    12.011  -21.977751   10.683943    1.121105
   6 H   1.0000    1     1.008  -24.230830   13.506521   -0.722327
   7 H   1.0000    1     1.008  -24.020987   13.865779    2.582080
   8 C   6.0000    1    12.011  -19.589192   12.179480    0.645676
   9 H   1.0000    1     1.008  -21.849025    9.731678    2.953455
  10 H   1.0000    1     1.008  -22.171635    9.226333   -0.335109
  11 C   6.0000    1    12.011  -17.346805   10.425768    0.710477
  12 H   1.0000    1     1.008  -19.691604   13.130639   -1.186986
  13 H   1.0000    1     1.008  -19.377798   13.649637    2.083911
  14 C   6.0000    1    12.011  -15.016541   11.926746    0.242514
  15 H   1.0000    1     1.008  -13.488361    8.586500    0.080969
  16 N   7.0000    1    14.007  -17.108475    9.345709    3.212544
  17 O   8.0000    1    15.999  -13.007488   10.371295   -0.042088
  18 H   1.0000    1     1.008  -26.895514    9.695971   -0.177948
  19 H   1.0000    1     1.008  -26.662084    9.985347    3.151383
  20 H   1.0000    1     1.008  -15.326862   13.360581   -1.335689
  21 O   8.0000    1    15.999  -14.927226   14.230288    0.130491
  22 H   1.0000    1     1.008  -17.520188    8.962160   -0.734227
  23 H   1.0000    1     1.008  -16.960069   10.773476    4.497733
  24 H   1.0000    1     1.008  -18.738545    8.421496    3.657746

      -----------------------------------------------------------      
     |                   =====================                   |     
     |                           x T B                           |     
     |                   =====================                   |     
     |                         S. Grimme                         |     
     |          Mulliken Center for Theoretical Chemistry        |     
     |                    University of Bonn                     |     
      -----------------------------------------------------------      

   * xtb version 6.7.1 (edcfbbe) compiled by 'albert@albert-system' on 2024-07-22

   xtb is free software: you can redistribute it and/or modify it under
   the terms of the GNU Lesser General Public License as published by
   the Free Software Foundation, either version 3 of the License, or
   (at your option) any later version.
   
   xtb is distributed in the hope that it will be useful,
   but WITHOUT ANY WARRANTY; without even the implied warranty of
   MERCHANTABILITY or FITNESS FOR A PARTICULAR PURPOSE.  See the
   GNU Lesser General Public License for more details.
   
   Cite this work as:
   * C. Bannwarth, E. Caldeweyher, S. Ehlert, A. Hansen, P. Pracht,
     J. Seibert, S. Spicher, S. Grimme, WIREs Comput. Mol. Sci., 2020, 11,
     e01493. DOI: 10.1002/wcms.1493
   
   for GFN2-xTB:
   * C. Bannwarth, S. Ehlert and S. Grimme., J. Chem. Theory Comput., 2019,
     15, 1652-1671. DOI: 10.1021/acs.jctc.8b01176
   for GFN1-xTB:
   * S. Grimme, C. Bannwarth, P. Shushkov, J. Chem. Theory Comput., 2017,
     13, 1989-2009. DOI: 10.1021/acs.jctc.7b00118
   for GFN0-xTB:
   * P. Pracht, E. Caldeweyher, S. Ehlert, S. Grimme, ChemRxiv, 2019, preprint.
     DOI: 10.26434/chemrxiv.8326202.v1
   for GFN-FF:
   * S. Spicher and S. Grimme, Angew. Chem. Int. Ed., 2020, 59, 15665-15673.
     DOI: 10.1002/anie.202004239
   
   for ALPB and GBSA implicit solvation:
   * S. Ehlert, M. Stahn, S. Spicher, S. Grimme, J. Chem. Theory Comput.,
     2021, 17, 4250-4261. DOI: 10.1021/acs.jctc.1c00471
   
   for ddCOSMO and CPCM-X implicit solvation:
   * M. Stahn, S. Ehlert, S. Grimme, J. Phys. Chem. A,
     2023, XX, XXXX-XXXX. DOI: 10.1021/acs.jpca.3c04382
   
   for DFT-D4:
   * E. Caldeweyher, C. Bannwarth and S. Grimme, J. Chem. Phys., 2017,
     147, 034112. DOI: 10.1063/1.4993215
   * E. Caldeweyher, S. Ehlert, A. Hansen, H. Neugebauer, S. Spicher,
     C. Bannwarth and S. Grimme, J. Chem. Phys., 2019, 150, 154122.
     DOI: 10.1063/1.5090222
   * E. Caldeweyher, J.-M. Mewes, S. Ehlert and S. Grimme, Phys. Chem. Chem. Phys.
     2020, 22, 8499-8512. DOI: 10.1039/D0CP00502A
   
   for sTDA-xTB:
   * S. Grimme and C. Bannwarth, J. Chem. Phys., 2016, 145, 054103.
     DOI: 10.1063/1.4959605
   
   in the mass-spec context:
   * V. Asgeirsson, C. Bauer and S. Grimme, Chem. Sci., 2017, 8, 4879.
     DOI: 10.1039/c7sc00601b
   * J. Koopman and S. Grimme, ACS Omega 2019, 4, 12, 15120-15133.
     DOI: 10.1021/acsomega.9b02011
   
   for metadynamics refer to:
   * S. Grimme, J. Chem. Theory Comput., 2019, 155, 2847-2862
     DOI: 10.1021/acs.jctc.9b00143
   
   for SPH calculations refer to:
   * S. Spicher and S. Grimme, J. Chem. Theory Comput., 2021, 17, 1701-1714
     DOI: 10.1021/acs.jctc.0c01306
   
   for ONIOM refer to:
   * C. Plett, A. Katbashev, S. Ehlert, S. Grimme, M. Bursch,
     Phys. Chem. Chem. Phys., 2023, 25, 17860-17868. DOI: 10.1039/D3CP02178E
   
   for DIPRO refer to:
   * J. Kohn, N. Gildemeister, S. Grimme, D. Fazzi, A. Hansen,
     J. Chem. Phys., 2023, just accepted.
   
   for PTB refer to:
   * S. Grimme, M. Mueller, A. Hansen, J. Chem. Phys., 2023, 158, 124111.
     DOI: 10.1063/5.0137838
   
   with help from (in alphabetical order)
   P. Atkinson, C. Bannwarth, F. Bohle, G. Brandenburg, E. Caldeweyher
   M. Checinski, S. Dohm, S. Ehlert, S. Ehrlich, I. Gerasimov, C. Hölzer
   A. Katbashev, J. Kohn, J. Koopman, C. Lavigne, S. Lehtola, F. März, M. Müller,
   F. Musil, H. Neugebauer, J. Pisarek, C. Plett, P. Pracht, F. Pultar,
   J. Seibert, P. Shushkov, S. Spicher, M. Stahn, M. Steiner, T. Strunk,
   J. Stückrath, T. Rose, and J. Unsleber
   
 * started run on 2025/08/06 at 21:32:00.892     
   ID    Z sym.   atoms
    1    6 C      1, 2, 6, 9, 12, 15
    2    1 H      3, 4, 7, 8, 10, 11, 13, 14, 16, 19-21, 23-25
    3    7 N      5, 17
    4    8 O      18, 22

           -------------------------------------------------
          |                Calculation Setup                |
           -------------------------------------------------

          program call               : /home/uni/orca_6_1_0/otool_xtb k_XTB.xyz --grad -c 0 -u 0 -P 9 --namespace k --input k_XTB.input.tmp --acc 0.200000
          calculation namespace      : k
          coordinate file            : k_XTB.xyz
          omp threads                :                     9


           -------------------------------------------------
          |                 G F N 2 - x T B                 |
           -------------------------------------------------

        Reference                      10.1021/acs.jctc.8b01176
      * Hamiltonian:
        H0-scaling (s, p, d)           1.850000    2.230000    2.230000
        zeta-weighting                 0.500000
      * Dispersion:
        s8                             2.700000
        a1                             0.520000
        a2                             5.000000
        s9                             5.000000
      * Repulsion:
        kExp                           1.500000    1.000000
        rExp                           1.000000
      * Coulomb:
        alpha                          2.000000
        third order                    shell-resolved
        anisotropic                    true
        a3                             3.000000
        a5                             4.000000
        cn-shift                       1.200000
        cn-exp                         4.000000
        max-rad                        5.000000


          ...................................................
          :                      SETUP                      :
          :.................................................:
          :  # basis functions                  55          :
          :  # atomic orbitals                  55          :
          :  # shells                           35          :
          :  # electrons                        61          :
          :  max. iterations                   250          :
          :  Hamiltonian                  GFN2-xTB          :
          :  restarted?                      false          :
          :  GBSA solvation                  false          :
          :  PC potential                    false          :
          :  electronic temp.          300.0000000     K    :
          :  accuracy                    0.2000000          :
          :  -> integral cutoff          0.3198970E+02      :
          :  -> integral neglect         0.2000000E-08      :
          :  -> SCF convergence          0.2000000E-06 Eh   :
          :  -> wf. convergence          0.2000000E-04 e    :
          :  Broyden damping             0.4000000          :
          :  net charge                          0          :
          :  unpaired electrons                  0          :
          ...................................................

 iter      E             dE          RMSdq      gap      omega  full diag
   1    -34.6347342 -0.346347E+02  0.363E+00    6.70       0.0  T
   2    -34.6645483 -0.298141E-01  0.207E+00    6.65       1.0  T
   3    -34.6664333 -0.188499E-02  0.555E-01    6.88       1.0  T
   4    -34.6667687 -0.335360E-03  0.118E-01    7.01       1.0  T
   5    -34.6668157 -0.469969E-04  0.589E-02    7.02       1.0  T
   6    -34.6668201 -0.447121E-05  0.139E-02    7.02       1.4  T
   7    -34.6668205 -0.323106E-06  0.549E-03    7.02       3.6  T
   8    -34.6668205 -0.415161E-07  0.160E-03    7.02      12.5  T
   9    -34.6668205 -0.836010E-08  0.519E-04    7.02      38.5  T
  10    -34.6668205 -0.658268E-09  0.132E-04    7.02     151.8  T
  11    -34.6668205 -0.347242E-10  0.488E-05    7.02     409.5  T

   *** convergence criteria satisfied after 11 iterations ***

         #    Occupation            Energy/Eh            Energy/eV
      -------------------------------------------------------------
         1        2.0000           -0.7356832             -20.0190
       ...           ...                  ...                  ...
        25        2.0000           -0.4518493             -12.2954
        26        2.0000           -0.4425175             -12.0415
        27        2.0000           -0.4364279             -11.8758
        28        2.0000           -0.4165257             -11.3342
        29        2.0000           -0.3758121             -10.2264
        30        2.0000           -0.3696379             -10.0584
        31        1.0000           -0.2275920              -6.1931 (HOMO)
        32                          0.0304663               0.8290 (LUMO)
        33                          0.0518354               1.4105
        34                          0.0645168               1.7556
        35                          0.0696145               1.8943
        36                          0.0925942               2.5196
       ...                                ...                  ...
        55                          0.6071945              16.5226
      -------------------------------------------------------------
                  HL-Gap            0.2580583 Eh            7.0221 eV
             Fermi-level           -0.1985889 Eh           -5.4039 eV

 SCC (total)                   0 d,  0 h,  0 min,  0.016 sec
 SCC setup                      ...        0 min,  0.000 sec (  1.285%)
 Dispersion                     ...        0 min,  0.000 sec (  1.347%)
 classical contributions        ...        0 min,  0.000 sec (  0.880%)
 integral evaluation            ...        0 min,  0.001 sec (  3.811%)
 iterations                     ...        0 min,  0.013 sec ( 78.686%)
 molecular gradient             ...        0 min,  0.002 sec ( 12.965%)
 printout                       ...        0 min,  0.000 sec (  0.929%)

         :::::::::::::::::::::::::::::::::::::::::::::::::::::
         ::                     SUMMARY                     ::
         :::::::::::::::::::::::::::::::::::::::::::::::::::::
         :: total energy             -34.255183972099 Eh    ::
         :: gradient norm              0.371841955313 Eh/a0 ::
         :: HOMO-LUMO gap              7.022123609899 eV    ::
         ::.................................................::
         :: SCC energy               -34.666856474722 Eh    ::
         :: -> isotropic ES            0.074696568580 Eh    ::
         :: -> anisotropic ES          0.006427632984 Eh    ::
         :: -> anisotropic XC          0.012405964514 Eh    ::
         :: -> dispersion             -0.016628160919 Eh    ::
         :: repulsion energy           0.411672502623 Eh    ::
         :: add. restraining           0.000000000000 Eh    ::
         :: total charge              -0.000000000000 e     ::
         :::::::::::::::::::::::::::::::::::::::::::::::::::::


Property printout bound to 'properties.out'

           -------------------------------------------------
          | TOTAL ENERGY              -34.255183972099 Eh   |
          | GRADIENT NORM               0.371841955313 Eh/α |
          | HOMO-LUMO GAP               7.022123609899 eV   |
           -------------------------------------------------

------------------------------------------------------------------------
 * finished run on 2025/08/06 at 21:32:00.915     
------------------------------------------------------------------------
 total:
 * wall-time:     0 d,  0 h,  0 min,  0.023 sec
 *  cpu-time:     0 d,  0 h,  0 min,  0.061 sec
 * ratio c/w:     2.620 speedup
 SCF:
 * wall-time:     0 d,  0 h,  0 min,  0.016 sec
 *  cpu-time:     0 d,  0 h,  0 min,  0.052 sec
 * ratio c/w:     3.200 speedup


-------------------------   --------------------
FINAL SINGLE POINT ENERGY       -34.255183972100
-------------------------   --------------------


-------------
DIPOLE MOMENT
-------------
                                X             Y             Z
Total Dipole Moment    :     -1.31200      -0.93300      -1.03700
                        -----------------------------------------
Magnitude (a.u.)       :      1.91499
Magnitude (Debye)      :      4.86753


------------------
CARTESIAN GRADIENT
------------------

   1   C   :    0.004609650   -0.005714462    0.003536925
   2   C   :   -0.001299032    0.001048826   -0.002461686
   3   H   :   -0.000428897    0.000678446   -0.002343855
   4   H   :   -0.000577474   -0.002799009   -0.002031771
   5   N   :    0.011197648   -0.000108690   -0.002293545
   6   C   :    0.002890865   -0.002944915    0.003065683
   7   H   :    0.000398155    0.001091972   -0.000398386
   8   H   :    0.002003680    0.001615320    0.000992048
   9   C   :    0.009697494   -0.006416461    0.007830527
  10   H   :    0.005409397   -0.002351243    0.001782327
  11   H   :    0.001477360   -0.000799945   -0.000694652
  12   C   :    0.003575023   -0.019423187   -0.005360622
  13   H   :    0.002248068   -0.000165443    0.000641941
  14   H   :   -0.001161070    0.001154506    0.000594686
  15   C   :    0.028153813    0.247071128   -0.070783898
  16   H   :   -0.001603896   -0.015480744   -0.003011510
  17   N   :    0.000959650    0.018691908   -0.016149247
  18   O   :   -0.052394587    0.028101197    0.009486659
  19   H   :   -0.003893048    0.007628024    0.003368071
  20   H   :    0.002751004   -0.002034788   -0.000650160
  21   H   :    0.020293317   -0.039067877    0.103294229
  22   O   :   -0.028722339   -0.226905483   -0.028053400
  23   H   :    0.003346094    0.010483384   -0.001833931
  24   H   :   -0.003550944    0.001929754    0.003108150
  25   H   :   -0.005379930    0.004717782   -0.001634584

Difference to translation invariance:
           :   -0.0000000000    0.0000000000   -0.0000000000

Difference to rotation invariance:
           :    0.0000003500    0.0000001158    0.0000004597

Norm of the Cartesian gradient     ...    0.3718419553
RMS gradient                       ...    0.0429366106
MAX gradient                       ...    0.2470711282
------------------------------------------------------------------------------
                         ORCA GEOMETRY RELAXATION STEP
------------------------------------------------------------------------------

Reading the OPT-File                    .... done
Getting information on internals        .... done
Copying old internal coords+grads       .... done
Making the new internal coordinates     .... (2022 redundants) done
Validating the new internal coordinates .... (2022 redundants) done
Calculating the B-matrix                .... done
Calculating the G,G- and P matrices     .... done
Transforming gradient to internals      .... done
Projecting the internal gradient        .... done
Number of atoms                         ....  25
Number of internal coordinates          .... 117
Current Energy                          ....   -34.255183972 Eh
Current gradient norm                   ....     0.371841955 Eh/bohr
Maximum allowed component of the step   ....  0.300
Current trust radius                    ....  0.300
Evaluating the initial hessian          ....  (Almloef) done
Projecting the Hessian                  .... done
Forming the augmented Hessian           .... done
Diagonalizing the augmented Hessian     .... done
Last element of RFO vector              ....  0.934567199
Lowest eigenvalues of augmented Hessian:
 -0.082245880  0.012420517  0.012562239  0.012623615  0.013198922
Length of the computed step             ....  0.380696718
Warning: the length of the step is outside the trust region - taking restricted step instead
The input lambda is                     ....     0.011419
   iter:   5  x=   -0.007424  g=   30.831979 f(x)=     0.311344
   iter:  10  x=   -0.209643  g=    0.279578 f(x)=     0.000682
The output lambda is                    ....    -0.209659 (13 iterations)
The final length of the internal step   ....  0.300000000
Converting the step to Cartesian space:
 Initial RMS(Int)=    0.0277350098
Transforming coordinates:
 Iter   0:  RMS(Cart)=    0.0923587130 RMS(Int)=    0.8203243739
 Iter   5:  RMS(Cart)=    0.0000000148 RMS(Int)=    0.0000000090
done
Storing new coordinates                 .... done

                                .--------------------.
          ----------------------|Geometry convergence|-------------------------
          Item                value                   Tolerance       Converged
          ---------------------------------------------------------------------
          RMS gradient        0.0221057318            0.0001000000      NO
          MAX gradient        0.1650810711            0.0003000000      NO
          RMS step            0.0277350098            0.0020000000      NO
          MAX step            0.1621856864            0.0040000000      NO
          -------------------------------------------------------------------------
          ........................................................
          Max(Bonds)      0.0858      Max(Angles)    2.77
          Max(Dihed)        2.27      Max(Improp)    0.00
          ---------------------------------------------------------------------

    ---------------------------------------------------------------------------
                         Redundant Internal Coordinates
                            (Angstroem and degrees)

        Definition                    Value    dE/dq     Step     New-Value
    ----------------------------------------------------------------------------
     1. B(C   1,C   0)                1.5129 -0.010595  0.0092    1.5221   
     2. B(N   4,H   2)                1.0184  0.002322 -0.0020    1.0164   
     3. B(N   4,C   0)                1.4505 -0.009052  0.0073    1.4578   
     4. B(N   4,H   3)                1.0186  0.001898 -0.0016    1.0170   
     5. B(C   5,C   1)                1.5145 -0.010604  0.0093    1.5238   
     6. B(H   6,C   1)                1.0941  0.000888 -0.0008    1.0933   
     7. B(H   7,C   1)                1.0941  0.002001 -0.0019    1.0922   
     8. B(C   8,C   5)                1.5124 -0.017743  0.0154    1.5278   
     9. B(H   9,C   5)                1.0949  0.002997 -0.0028    1.0921   
    10. B(H  10,C   5)                1.0951  0.000914 -0.0009    1.0943   
    11. B(C  11,C   8)                1.5068 -0.034298  0.0294    1.5363   
    12. B(H  12,C   8)                1.0940 -0.000757  0.0007    1.0947   
    13. B(H  13,C   8)                1.0941  0.001116 -0.0010    1.0930   
    14. B(C  14,C  11)                1.4875 -0.033586  0.0275    1.5150   
    15. B(N  16,C  11)                1.4476 -0.024121  0.0193    1.4669   
    16. B(O  17,H  15)                0.9803  0.015131 -0.0116    0.9688   
    17. B(O  17,C  14)                1.3529 -0.050831  0.0316    1.3846   
    18. B(H  18,C   0)                1.0931 -0.007060  0.0066    1.0997   
    19. B(H  19,C   0)                1.0929  0.000485 -0.0005    1.0925   
    20. B(H  20,C  14)                1.1402 -0.109431  0.0858    1.2261   
    21. B(O  21,H  20)                0.9266 -0.074612  0.0399    0.9665   
    22. B(O  21,C  14)                1.2213 -0.165081  0.0852    1.3065   
    23. B(H  22,C  11)                1.0921 -0.006432  0.0060    1.0981   
    24. B(H  23,N  16)                1.0196  0.003230 -0.0027    1.0169   
    25. B(H  24,N  16)                1.0192  0.001912 -0.0016    1.0176   
    26. A(C   1,C   0,N   4)          107.97 -0.009035    0.97    108.94   
    27. A(N   4,C   0,H  19)          110.29  0.007452   -0.91    109.38   
    28. A(C   1,C   0,H  18)          109.87  0.004538   -0.39    109.48   
    29. A(N   4,C   0,H  18)          110.09 -0.003641    0.64    110.72   
    30. A(H  18,C   0,H  19)          108.37  0.000084   -0.15    108.22   
    31. A(C   1,C   0,H  19)          110.25  0.000653   -0.15    110.09   
    32. A(C   5,C   1,H   6)          109.63  0.002094   -0.18    109.45   
    33. A(H   6,C   1,H   7)          107.31 -0.000216   -0.01    107.30   
    34. A(C   0,C   1,H   7)          109.79  0.004267   -0.45    109.34   
    35. A(C   5,C   1,H   7)          109.59 -0.000580    0.05    109.64   
    36. A(C   0,C   1,C   5)          110.81 -0.007964    0.82    111.63   
    37. A(C   0,C   1,H   6)          109.64  0.002678   -0.26    109.39   
    38. A(H   2,N   4,H   3)          106.52 -0.000211    0.12    106.64   
    39. A(C   0,N   4,H   2)          109.32 -0.000058    0.05    109.36   
    40. A(C   0,N   4,H   3)          109.27 -0.004254    0.49    109.75   
    41. A(C   8,C   5,H  10)          109.26 -0.000207    0.01    109.26   
    42. A(C   1,C   5,H  10)          110.71  0.005012   -0.51    110.20   
    43. A(C   8,C   5,H   9)          109.64  0.000099    0.14    109.78   
    44. A(C   1,C   5,C   8)          108.81 -0.012880    1.33    110.14   
    45. A(C   1,C   5,H   9)          110.65  0.008078   -0.90    109.75   
    46. A(H   9,C   5,H  10)          107.75  0.000008   -0.07    107.68   
    47. A(C  11,C   8,H  13)          109.97  0.004972   -0.52    109.45   
    48. A(H  12,C   8,H  13)          107.13 -0.001022   -0.13    107.01   
    49. A(C   5,C   8,H  13)          109.99  0.005448   -0.35    109.64   
    50. A(C  11,C   8,H  12)          110.03  0.006196   -0.61    109.42   
    51. A(C   5,C   8,H  12)          110.29  0.011710   -1.25    109.05   
    52. A(C   5,C   8,C  11)          109.40 -0.026483    2.77    112.16   
    53. A(C  14,C  11,N  16)          106.91  0.004763   -0.38    106.52   
    54. A(C   8,C  11,N  16)          109.43 -0.017531    2.31    111.73   
    55. A(C   8,C  11,C  14)          108.67  0.001070    0.16    108.84   
    56. A(N  16,C  11,H  22)          111.57  0.012508   -1.78    109.79   
    57. A(C  14,C  11,H  22)          109.38 -0.006865    0.47    109.85   
    58. A(C   8,C  11,H  22)          110.77  0.005770   -0.73    110.05   
    59. A(C  11,C  14,O  17)          110.19 -0.016528    1.87    112.05   
    60. A(H  20,C  14,O  21)           46.04  0.017861   -1.41     44.63   
    61. A(O  17,C  14,O  21)          124.85  0.013374   -1.56    123.29   
    62. A(C  11,C  14,O  21)          124.97  0.003157   -0.31    124.66   
    63. A(O  17,C  14,H  20)          115.88  0.005805   -0.60    115.28   
    64. A(C  11,C  14,H  20)          110.97 -0.003070    0.31    111.28   
    65. A(H  23,N  16,H  24)          105.46 -0.001428    0.42    105.88   
    66. A(C  11,N  16,H  24)          109.10 -0.009718    1.13    110.22   
    67. A(C  11,N  16,H  23)          108.92  0.000828    0.02    108.94   
    68. A(C  14,O  17,H  15)          112.01  0.005640   -0.56    111.45   
    69. A(C  14,H  20,O  21)           71.60 -0.035141    0.49     72.09   
    70. A(C  14,O  21,H  20)           62.36  0.017279    0.92     63.28   
    71. D(H   6,C   1,C   0,H  19)    179.55 -0.000400    0.05    179.60   
    72. D(H   6,C   1,C   0,H  18)     60.17 -0.003756    0.58     60.74   
    73. D(C   5,C   1,C   0,H  18)    -60.98 -0.002989    0.45    -60.54   
    74. D(C   5,C   1,C   0,N   4)    178.94  0.004249   -0.68    178.26   
    75. D(H   6,C   1,C   0,N   4)    -59.91  0.003482   -0.56    -60.46   
    76. D(C   5,C   1,C   0,H  19)     58.40  0.000366   -0.08     58.32   
    77. D(H   2,N   4,C   0,C   1)     56.37 -0.000116    0.15     56.52   
    78. D(H   3,N   4,C   0,H  18)     52.65 -0.000678    0.10     52.76   
    79. D(H   3,N   4,C   0,C   1)    172.59 -0.002796    0.59    173.18   
    80. D(H   2,N   4,C   0,H  19)    176.89 -0.000494    0.02    176.91   
    81. D(H   2,N   4,C   0,H  18)    -63.57  0.002002   -0.34    -63.91   
    82. D(H   9,C   5,C   1,C   0)    -62.95 -0.001816    0.30    -62.64   
    83. D(C   8,C   5,C   1,H   6)     55.36  0.001715   -0.24     55.13   
    84. D(C   8,C   5,C   1,C   0)    176.52  0.001295   -0.15    176.37   
    85. D(C   8,C   5,C   1,H   7)    -62.16  0.001088   -0.15    -62.31   
    86. D(H   9,C   5,C   1,H   7)     58.36 -0.002023    0.31     58.67   
    87. D(H   9,C   5,C   1,H   6)    175.89 -0.001396    0.22    176.11   
    88. D(H  12,C   8,C   5,H   9)    179.65 -0.002227    0.33    179.98   
    89. D(H  12,C   8,C   5,C   1)    -59.21 -0.000283    0.13    -59.07   
    90. D(C  11,C   8,C   5,H  10)    -59.38 -0.000217    0.10    -59.28   
    91. D(C  11,C   8,C   5,H   9)     58.49 -0.000271    0.10     58.59   
    92. D(H  12,C   8,C   5,H  10)     61.78 -0.002173    0.33     62.11   
    93. D(C  11,C   8,C   5,C   1)    179.64  0.001673   -0.10    179.54   
    94. D(N  16,C  11,C   8,H  13)     57.36 -0.004583    0.74     58.11   
    95. D(N  16,C  11,C   8,H  12)    175.15  0.000903   -0.09    175.05   
    96. D(N  16,C  11,C   8,C   5)    -63.54  0.002363   -0.26    -63.79   
    97. D(C  14,C  11,C   8,H  13)    -59.04 -0.001193   -0.16    -59.21   
    98. D(C  14,C  11,C   8,H  12)     58.74  0.004293   -1.00     57.74   
    99. D(C  14,C  11,C   8,C   5)   -179.94  0.005753   -1.16   -181.11   
   100. D(O  17,C  14,C  11,N  16)     69.99  0.015367   -2.27     67.73   
   101. D(O  17,C  14,C  11,C   8)   -171.99 -0.002140    0.33   -171.66   
   102. D(H  20,C  14,C  11,H  22)     78.76 -0.006577    0.78     79.54   
   103. D(H  20,C  14,C  11,N  16)   -160.29  0.007388   -1.32   -161.61   
   104. D(H  20,C  14,C  11,C   8)    -42.28 -0.010119    1.28    -41.00   
   105. D(O  17,C  14,C  11,H  22)    -50.95  0.001402   -0.17    -51.12   
   106. D(H  24,N  16,C  11,C  14)    175.35 -0.006874    1.42    176.76   
   107. D(H  24,N  16,C  11,C   8)     57.83 -0.001558    0.22     58.05   
   108. D(H  23,N  16,C  11,H  22)   -179.75  0.001371   -0.39   -180.14   
   109. D(H  23,N  16,C  11,C  14)     60.71 -0.000418    0.30     61.01   
   110. D(H  23,N  16,C  11,C   8)    -56.81  0.004897   -0.90    -57.71   
   111. D(H  15,O  17,C  14,O  21)   -178.84 -0.010472    0.42   -178.42   
   112. D(H  15,O  17,C  14,H  20)   -125.87  0.015382   -1.74   -127.61   
   113. D(H  15,O  17,C  14,C  11)      1.15  0.001301   -0.15      1.00   
   114. D(O  21,H  20,C  14,O  17)   -114.49 -0.015430    1.80   -112.68   
   115. D(O  21,H  20,C  14,C  11)    118.88  0.005444   -0.57    118.31   
   116. D(H  20,O  21,C  14,O  17)     93.87  0.007865   -0.38     93.49   
   117. D(H  20,O  21,C  14,C  11)    -86.12 -0.005617    0.27    -85.84   
    ----------------------------------------------------------------------------

Geometry step timings:
Preparation and reading OPT file:      0.000 s ( 0.540 %)
Internal coordinates            :      0.000 s ( 0.603 %)
B/P matrices and projection     :      0.001 s (29.746 %)
Hessian update/contruction      :      0.000 s (10.413 %)
Making the step                 :      0.001 s (44.127 %)
Converting the step to Cartesian:      0.000 s ( 3.016 %)
Storing new data                :      0.000 s ( 0.571 %)
Checking convergence            :      0.000 s ( 0.635 %)
Final printing                  :      0.000 s (10.349 %)
Total time                      :      0.003 s

Time for energy+gradient        :      0.028 s
Time for complete geometry iter :      0.032 s

         *************************************************************
         *                GEOMETRY OPTIMIZATION CYCLE   2            *
         *************************************************************
---------------------------------
CARTESIAN COORDINATES (ANGSTROEM)
---------------------------------
  C   -14.179531    5.867810    0.711100
  C   -12.856445    6.604826    0.559154
  H   -15.220799    7.390034   -0.148704
  H   -16.160229    6.355569    0.692066
  N   -15.265952    6.839761    0.704677
  C   -11.671984    5.647128    0.601014
  H   -12.851043    7.149174   -0.388939
  H   -12.759925    7.343230    1.358089
  C   -10.370519    6.408953    0.356105
  H   -11.632723    5.151247    1.573214
  H   -11.785719    4.871999   -0.162962
  C    -9.142389    5.487063    0.399461
  H   -10.422651    6.900391   -0.620687
  H   -10.260104    7.197476    1.104939
  C    -7.902095    6.311452    0.121204
  H    -6.991733    4.579047    0.040582
  N    -8.957290    4.890784    1.726859
  O    -6.777160    5.520365   -0.039150
  H   -14.295566    5.149042   -0.113111
  H   -14.194546    5.313555    1.652429
  H    -8.100778    7.125646   -0.774139
  O    -7.881233    7.614823    0.029045
  H    -9.239814    4.694244   -0.354092
  H    -8.866624    5.635360    2.413428
  H    -9.786027    4.364515    1.994670

----------------------------
CARTESIAN COORDINATES (A.U.)
----------------------------
  NO LB    ZA    FRAG    MASS        X           Y           Z
   0 C   6.0000    1    12.011  -26.795430   11.088554    1.343783
   1 C   6.0000    1    12.011  -24.295160   12.481312    1.056648
   2 H   1.0000    1     1.008  -28.763142   13.965141   -0.281009
   3 H   1.0000    1     1.008  -30.538407   12.010285    1.307815
   4 N   7.0000    1    14.007  -28.848468   12.925276    1.331647
   5 C   6.0000    1    12.011  -22.056854   10.671525    1.135751
   6 H   1.0000    1     1.008  -24.284952   13.509981   -0.734988
   7 H   1.0000    1     1.008  -24.112763   13.876693    2.566417
   8 C   6.0000    1    12.011  -19.597442   12.111166    0.672940
   9 H   1.0000    1     1.008  -21.982660    9.734446    2.972944
  10 H   1.0000    1     1.008  -22.271781    9.206744   -0.307953
  11 C   6.0000    1    12.011  -17.276611   10.369047    0.754872
  12 H   1.0000    1     1.008  -19.695956   13.039848   -1.172929
  13 H   1.0000    1     1.008  -19.388787   13.601259    2.088032
  14 C   6.0000    1    12.011  -14.932795   11.926915    0.229042
  15 H   1.0000    1     1.008  -13.212460    8.653144    0.076689
  16 N   7.0000    1    14.007  -16.926825    9.242242    3.263291
  17 O   8.0000    1    15.999  -12.806977   10.431977   -0.073983
  18 H   1.0000    1     1.008  -27.014706    9.730278   -0.213748
  19 H   1.0000    1     1.008  -26.823804   10.041163    3.122637
  20 H   1.0000    1     1.008  -15.308252   13.465519   -1.462911
  21 O   8.0000    1    15.999  -14.893371   14.389930    0.054888
  22 H   1.0000    1     1.008  -17.460718    8.870836   -0.669137
  23 H   1.0000    1     1.008  -16.755492   10.649287    4.560718
  24 H   1.0000    1     1.008  -18.492911    8.247738    3.769380

      -----------------------------------------------------------      
     |                   =====================                   |     
     |                           x T B                           |     
     |                   =====================                   |     
     |                         S. Grimme                         |     
     |          Mulliken Center for Theoretical Chemistry        |     
     |                    University of Bonn                     |     
      -----------------------------------------------------------      

   * xtb version 6.7.1 (edcfbbe) compiled by 'albert@albert-system' on 2024-07-22

   xtb is free software: you can redistribute it and/or modify it under
   the terms of the GNU Lesser General Public License as published by
   the Free Software Foundation, either version 3 of the License, or
   (at your option) any later version.
   
   xtb is distributed in the hope that it will be useful,
   but WITHOUT ANY WARRANTY; without even the implied warranty of
   MERCHANTABILITY or FITNESS FOR A PARTICULAR PURPOSE.  See the
   GNU Lesser General Public License for more details.
   
   Cite this work as:
   * C. Bannwarth, E. Caldeweyher, S. Ehlert, A. Hansen, P. Pracht,
     J. Seibert, S. Spicher, S. Grimme, WIREs Comput. Mol. Sci., 2020, 11,
     e01493. DOI: 10.1002/wcms.1493
   
   for GFN2-xTB:
   * C. Bannwarth, S. Ehlert and S. Grimme., J. Chem. Theory Comput., 2019,
     15, 1652-1671. DOI: 10.1021/acs.jctc.8b01176
   for GFN1-xTB:
   * S. Grimme, C. Bannwarth, P. Shushkov, J. Chem. Theory Comput., 2017,
     13, 1989-2009. DOI: 10.1021/acs.jctc.7b00118
   for GFN0-xTB:
   * P. Pracht, E. Caldeweyher, S. Ehlert, S. Grimme, ChemRxiv, 2019, preprint.
     DOI: 10.26434/chemrxiv.8326202.v1
   for GFN-FF:
   * S. Spicher and S. Grimme, Angew. Chem. Int. Ed., 2020, 59, 15665-15673.
     DOI: 10.1002/anie.202004239
   
   for ALPB and GBSA implicit solvation:
   * S. Ehlert, M. Stahn, S. Spicher, S. Grimme, J. Chem. Theory Comput.,
     2021, 17, 4250-4261. DOI: 10.1021/acs.jctc.1c00471
   
   for ddCOSMO and CPCM-X implicit solvation:
   * M. Stahn, S. Ehlert, S. Grimme, J. Phys. Chem. A,
     2023, XX, XXXX-XXXX. DOI: 10.1021/acs.jpca.3c04382
   
   for DFT-D4:
   * E. Caldeweyher, C. Bannwarth and S. Grimme, J. Chem. Phys., 2017,
     147, 034112. DOI: 10.1063/1.4993215
   * E. Caldeweyher, S. Ehlert, A. Hansen, H. Neugebauer, S. Spicher,
     C. Bannwarth and S. Grimme, J. Chem. Phys., 2019, 150, 154122.
     DOI: 10.1063/1.5090222
   * E. Caldeweyher, J.-M. Mewes, S. Ehlert and S. Grimme, Phys. Chem. Chem. Phys.
     2020, 22, 8499-8512. DOI: 10.1039/D0CP00502A
   
   for sTDA-xTB:
   * S. Grimme and C. Bannwarth, J. Chem. Phys., 2016, 145, 054103.
     DOI: 10.1063/1.4959605
   
   in the mass-spec context:
   * V. Asgeirsson, C. Bauer and S. Grimme, Chem. Sci., 2017, 8, 4879.
     DOI: 10.1039/c7sc00601b
   * J. Koopman and S. Grimme, ACS Omega 2019, 4, 12, 15120-15133.
     DOI: 10.1021/acsomega.9b02011
   
   for metadynamics refer to:
   * S. Grimme, J. Chem. Theory Comput., 2019, 155, 2847-2862
     DOI: 10.1021/acs.jctc.9b00143
   
   for SPH calculations refer to:
   * S. Spicher and S. Grimme, J. Chem. Theory Comput., 2021, 17, 1701-1714
     DOI: 10.1021/acs.jctc.0c01306
   
   for ONIOM refer to:
   * C. Plett, A. Katbashev, S. Ehlert, S. Grimme, M. Bursch,
     Phys. Chem. Chem. Phys., 2023, 25, 17860-17868. DOI: 10.1039/D3CP02178E
   
   for DIPRO refer to:
   * J. Kohn, N. Gildemeister, S. Grimme, D. Fazzi, A. Hansen,
     J. Chem. Phys., 2023, just accepted.
   
   for PTB refer to:
   * S. Grimme, M. Mueller, A. Hansen, J. Chem. Phys., 2023, 158, 124111.
     DOI: 10.1063/5.0137838
   
   with help from (in alphabetical order)
   P. Atkinson, C. Bannwarth, F. Bohle, G. Brandenburg, E. Caldeweyher
   M. Checinski, S. Dohm, S. Ehlert, S. Ehrlich, I. Gerasimov, C. Hölzer
   A. Katbashev, J. Kohn, J. Koopman, C. Lavigne, S. Lehtola, F. März, M. Müller,
   F. Musil, H. Neugebauer, J. Pisarek, C. Plett, P. Pracht, F. Pultar,
   J. Seibert, P. Shushkov, S. Spicher, M. Stahn, M. Steiner, T. Strunk,
   J. Stückrath, T. Rose, and J. Unsleber
   
 * started run on 2025/08/06 at 21:32:00.923     
   ID    Z sym.   atoms
    1    6 C      1, 2, 6, 9, 12, 15
    2    1 H      3, 4, 7, 8, 10, 11, 13, 14, 16, 19-21, 23-25
    3    7 N      5, 17
    4    8 O      18, 22

           -------------------------------------------------
          |                Calculation Setup                |
           -------------------------------------------------

          program call               : /home/uni/orca_6_1_0/otool_xtb k_XTB.xyz --grad -c 0 -u 0 -P 9 --namespace k --input k_XTB.input.tmp --acc 0.200000
          calculation namespace      : k
          coordinate file            : k_XTB.xyz
          omp threads                :                     9


           -------------------------------------------------
          |                 G F N 2 - x T B                 |
           -------------------------------------------------

        Reference                      10.1021/acs.jctc.8b01176
      * Hamiltonian:
        H0-scaling (s, p, d)           1.850000    2.230000    2.230000
        zeta-weighting                 0.500000
      * Dispersion:
        s8                             2.700000
        a1                             0.520000
        a2                             5.000000
        s9                             5.000000
      * Repulsion:
        kExp                           1.500000    1.000000
        rExp                           1.000000
      * Coulomb:
        alpha                          2.000000
        third order                    shell-resolved
        anisotropic                    true
        a3                             3.000000
        a5                             4.000000
        cn-shift                       1.200000
        cn-exp                         4.000000
        max-rad                        5.000000

q/qsh data taken from xtbrestart
CAMM data taken from xtbrestart

          ...................................................
          :                      SETUP                      :
          :.................................................:
          :  # basis functions                  55          :
          :  # atomic orbitals                  55          :
          :  # shells                           35          :
          :  # electrons                        61          :
          :  max. iterations                   250          :
          :  Hamiltonian                  GFN2-xTB          :
          :  restarted?                       true          :
          :  GBSA solvation                  false          :
          :  PC potential                    false          :
          :  electronic temp.          300.0000000     K    :
          :  accuracy                    0.2000000          :
          :  -> integral cutoff          0.3198970E+02      :
          :  -> integral neglect         0.2000000E-08      :
          :  -> SCF convergence          0.2000000E-06 Eh   :
          :  -> wf. convergence          0.2000000E-04 e    :
          :  Broyden damping             0.4000000          :
          :  net charge                          0          :
          :  unpaired electrons                  0          :
          ...................................................

 iter      E             dE          RMSdq      gap      omega  full diag
   1    -34.6718757 -0.346719E+02  0.386E-01    7.43       0.0  T
   2    -34.6723489 -0.473186E-03  0.243E-01    7.30       1.0  T
   3    -34.6723784 -0.294369E-04  0.901E-02    7.31       1.0  T
   4    -34.6724066 -0.282734E-04  0.190E-02    7.28       1.1  T
   5    -34.6724076 -0.922638E-06  0.882E-03    7.29       2.3  T
   6    -34.6724077 -0.184474E-06  0.300E-03    7.29       6.7  T
   7    -34.6724078 -0.228281E-07  0.116E-03    7.29      17.2  T
   8    -34.6724078 -0.187455E-08  0.143E-04    7.29     140.0  T
   9    -34.6724078 -0.727169E-10  0.699E-05    7.29     286.2  T

   *** convergence criteria satisfied after 9 iterations ***

         #    Occupation            Energy/Eh            Energy/eV
      -------------------------------------------------------------
         1        2.0000           -0.7212022             -19.6249
       ...           ...                  ...                  ...
        25        2.0000           -0.4515865             -12.2883
        26        2.0000           -0.4439103             -12.0794
        27        2.0000           -0.4364444             -11.8763
        28        2.0000           -0.4243656             -11.5476
        29        2.0000           -0.3797675             -10.3340
        30        2.0000           -0.3700742             -10.0702
        31        1.0000           -0.2543387              -6.9209 (HOMO)
        32                          0.0134843               0.3669 (LUMO)
        33                          0.0412072               1.1213
        34                          0.0458704               1.2482
        35                          0.0625746               1.7027
        36                          0.0805774               2.1926
       ...                                ...                  ...
        55                          0.3882194              10.5640
      -------------------------------------------------------------
                  HL-Gap            0.2678230 Eh            7.2878 eV
             Fermi-level           -0.2163168 Eh           -5.8863 eV

 SCC (total)                   0 d,  0 h,  0 min,  0.016 sec
 SCC setup                      ...        0 min,  0.000 sec (  1.230%)
 Dispersion                     ...        0 min,  0.000 sec (  1.268%)
 classical contributions        ...        0 min,  0.000 sec (  0.511%)
 integral evaluation            ...        0 min,  0.001 sec (  3.988%)
 iterations                     ...        0 min,  0.012 sec ( 77.284%)
 molecular gradient             ...        0 min,  0.002 sec ( 14.103%)
 printout                       ...        0 min,  0.000 sec (  1.436%)

         :::::::::::::::::::::::::::::::::::::::::::::::::::::
         ::                     SUMMARY                     ::
         :::::::::::::::::::::::::::::::::::::::::::::::::::::
         :: total energy             -34.301697143918 Eh    ::
         :: gradient norm              0.176485385248 Eh/a0 ::
         :: HOMO-LUMO gap              7.287833960697 eV    ::
         ::.................................................::
         :: SCC energy               -34.672443221539 Eh    ::
         :: -> isotropic ES            0.073476605457 Eh    ::
         :: -> anisotropic ES          0.007182345896 Eh    ::
         :: -> anisotropic XC          0.014368861141 Eh    ::
         :: -> dispersion             -0.016263319128 Eh    ::
         :: repulsion energy           0.370746077621 Eh    ::
         :: add. restraining           0.000000000000 Eh    ::
         :: total charge              -0.000000000000 e     ::
         :::::::::::::::::::::::::::::::::::::::::::::::::::::


Property printout bound to 'properties.out'

           -------------------------------------------------
          | TOTAL ENERGY              -34.301697143918 Eh   |
          | GRADIENT NORM               0.176485385248 Eh/α |
          | HOMO-LUMO GAP               7.287833960697 eV   |
           -------------------------------------------------

------------------------------------------------------------------------
 * finished run on 2025/08/06 at 21:32:00.947     
------------------------------------------------------------------------
 total:
 * wall-time:     0 d,  0 h,  0 min,  0.023 sec
 *  cpu-time:     0 d,  0 h,  0 min,  0.041 sec
 * ratio c/w:     1.781 speedup
 SCF:
 * wall-time:     0 d,  0 h,  0 min,  0.016 sec
 *  cpu-time:     0 d,  0 h,  0 min,  0.032 sec
 * ratio c/w:     2.006 speedup


-------------------------   --------------------
FINAL SINGLE POINT ENERGY       -34.301697143920
-------------------------   --------------------


-------------
DIPOLE MOMENT
-------------
                                X             Y             Z
Total Dipole Moment    :     -1.34100      -1.09900      -0.95800
                        -----------------------------------------
Magnitude (a.u.)       :      1.98087
Magnitude (Debye)      :      5.03497


------------------
CARTESIAN GRADIENT
------------------

   1   C   :    0.003094033   -0.004870569    0.004825303
   2   C   :   -0.001845323    0.001801388   -0.001352383
   3   H   :   -0.000566309   -0.000105626   -0.000987390
   4   H   :   -0.000768809   -0.001253195   -0.001852438
   5   N   :    0.003798819    0.001707149   -0.001839448
   6   C   :   -0.002442541   -0.002824566    0.002096443
   7   H   :    0.000381229    0.000753632    0.000112432
   8   H   :    0.001272654    0.000929772    0.000206920
   9   C   :    0.004321141    0.000845357    0.004270100
  10   H   :    0.002092387   -0.000648074   -0.000073072
  11   H   :    0.000715094   -0.000636644   -0.000254326
  12   C   :    0.001009029   -0.021909899   -0.008670841
  13   H   :    0.000480000    0.000676092   -0.000233550
  14   H   :   -0.001175526    0.001364231   -0.000031577
  15   C   :    0.010250165    0.131356036   -0.049025735
  16   H   :    0.002200744   -0.007636634   -0.003612754
  17   N   :    0.002728634    0.007907267   -0.001445579
  18   O   :   -0.020045693   -0.002529161    0.005594109
  19   H   :   -0.002961297    0.004101459    0.000736789
  20   H   :    0.001912507   -0.001403063   -0.000616679
  21   H   :    0.009136349   -0.041856952    0.052147740
  22   O   :   -0.009397367   -0.073117186   -0.000021773
  23   H   :    0.000809426    0.004610367   -0.003219847
  24   H   :   -0.002823608    0.000236332    0.002053608
  25   H   :   -0.002175739    0.002502488    0.001193950

Difference to translation invariance:
           :   -0.0000000000   -0.0000000000   -0.0000000000

Difference to rotation invariance:
           :   -0.0000005242   -0.0000001371    0.0000003220

Norm of the Cartesian gradient     ...    0.1764853852
RMS gradient                       ...    0.0203787769
MAX gradient                       ...    0.1313560359
------------------------------------------------------------------------------
                         ORCA GEOMETRY RELAXATION STEP
------------------------------------------------------------------------------

Reading the OPT-File                    .... done
Getting information on internals        .... done
Copying old internal coords+grads       .... done
Making the new internal coordinates     .... (2022 redundants) done
Validating the new internal coordinates .... (2022 redundants) done
Calculating the B-matrix                .... done
Calculating the G,G- and P matrices     .... done
Transforming gradient to internals      .... done
Projecting the internal gradient        .... done
Number of atoms                         ....  25
Number of internal coordinates          .... 117
Current Energy                          ....   -34.301697144 Eh
Current gradient norm                   ....     0.176485385 Eh/bohr
Maximum allowed component of the step   ....  0.300
Current trust radius                    ....  0.300
Updating the Hessian (BFGS)             .... done
Forming the augmented Hessian           .... done
Diagonalizing the augmented Hessian     .... done
Last element of RFO vector              ....  0.954430525
Lowest eigenvalues of augmented Hessian:
 -0.027221435  0.012422864  0.012563167  0.012610743  0.013143855
Length of the computed step             ....  0.312681950
Warning: the length of the step is outside the trust region - taking restricted step instead
The input lambda is                     ....     0.011419
   iter:   5  x=   -0.015640  g=    4.160826 f(x)=     0.054470
   iter:  10  x=   -0.035660  g=    0.830659 f(x)=     0.000000
The output lambda is                    ....    -0.035660 (11 iterations)
The final length of the internal step   ....  0.300000000
Converting the step to Cartesian space:
 Initial RMS(Int)=    0.0277350098
Transforming coordinates:
 Iter   0:  RMS(Cart)=    0.0500889637 RMS(Int)=    0.5813898817
 Iter   5:  RMS(Cart)=    0.0000000134 RMS(Int)=    0.0000000085
done
Storing new coordinates                 .... done
The predicted energy change is          ....    -0.014819866
Previously predicted energy change      ....    -0.043340453
Actually observed energy change         ....    -0.046513172
Ratio of predicted to observed change   ....     1.073204567
New trust radius                        ....     0.450000000

                                .--------------------.
          ----------------------|Geometry convergence|-------------------------
          Item                value                   Tolerance       Converged
          ---------------------------------------------------------------------
          Energy change      -0.0465131718            0.0000050000      NO
          RMS gradient        0.0091725668            0.0001000000      NO
          MAX gradient        0.0630864082            0.0003000000      NO
          RMS step            0.0277350098            0.0020000000      NO
          MAX step            0.1955391039            0.0040000000      NO
          -------------------------------------------------------------------------
          ........................................................
          Max(Bonds)      0.1035      Max(Angles)    3.66
          Max(Dihed)        3.89      Max(Improp)    0.00
          ---------------------------------------------------------------------

    ---------------------------------------------------------------------------
                         Redundant Internal Coordinates
                            (Angstroem and degrees)

        Definition                    Value    dE/dq     Step     New-Value
    ----------------------------------------------------------------------------
     1. B(C   1,C   0)                1.5221 -0.003010  0.0040    1.5261   
     2. B(N   4,H   2)                1.0164  0.000747 -0.0010    1.0154   
     3. B(N   4,C   0)                1.4578 -0.001583  0.0015    1.4592   
     4. B(N   4,H   3)                1.0170  0.001296 -0.0021    1.0149   
     5. B(C   5,C   1)                1.5238 -0.002291  0.0026    1.5263   
     6. B(H   6,C   1)                1.0933  0.000280 -0.0004    1.0929   
     7. B(H   7,C   1)                1.0922  0.000892 -0.0015    1.0907   
     8. B(C   8,C   5)                1.5278 -0.002607  0.0018    1.5296   
     9. B(H   9,C   5)                1.0921  0.000304  0.0000    1.0921   
    10. B(H  10,C   5)                1.0943  0.000554 -0.0010    1.0933   
    11. B(C  11,C   8)                1.5363 -0.006521  0.0065    1.5428   
    12. B(H  12,C   8)                1.0947  0.000489 -0.0013    1.0934   
    13. B(H  13,C   8)                1.0930  0.000844 -0.0016    1.0914   
    14. B(C  14,C  11)                1.5150 -0.003982  0.0020    1.5171   
    15. B(N  16,C  11)                1.4669 -0.002983  0.0018    1.4687   
    16. B(O  17,H  15)                0.9688  0.006636 -0.0091    0.9596   
    17. B(O  17,C  14)                1.3846 -0.008920  0.0081    1.3927   
    18. B(H  18,C   0)                1.0997 -0.002920  0.0048    1.1045   
    19. B(H  19,C   0)                1.0925  0.000154 -0.0002    1.0923   
    20. B(H  20,C  14)                1.2264 -0.061046  0.1035    1.3299   
    21. B(O  21,H  20)                0.9657 -0.021508  0.0155    0.9812   
    22. B(O  21,C  14)                1.3068 -0.063086  0.0603    1.3671   
    23. B(H  22,C  11)                1.0981 -0.001191  0.0011    1.0993   
    24. B(H  23,N  16)                1.0169  0.001308 -0.0019    1.0149   
    25. B(H  24,N  16)                1.0176  0.000792 -0.0012    1.0164   
    26. A(C   1,C   0,N   4)          108.94 -0.003959    0.77    109.71   
    27. A(N   4,C   0,H  19)          109.38  0.004590   -1.27    108.11   
    28. A(C   1,C   0,H  18)          109.47  0.002556   -0.31    109.17   
    29. A(N   4,C   0,H  18)          110.72 -0.003335    1.22    111.95   
    30. A(H  18,C   0,H  19)          108.22  0.000253   -0.21    108.01   
    31. A(C   1,C   0,H  19)          110.10 -0.000058   -0.21    109.89   
    32. A(C   5,C   1,H   6)          109.45  0.000664   -0.05    109.39   
    33. A(H   6,C   1,H   7)          107.30 -0.000320    0.16    107.46   
    34. A(C   0,C   1,H   7)          109.34  0.002126   -0.50    108.84   
    35. A(C   5,C   1,H   7)          109.64 -0.000563    0.12    109.76   
    36. A(C   0,C   1,C   5)          111.63 -0.002851    0.44    112.07   
    37. A(C   0,C   1,H   6)          109.39  0.001049   -0.19    109.20   
    38. A(H   2,N   4,H   3)          106.64 -0.000670    0.42    107.06   
    39. A(C   0,N   4,H   2)          109.36 -0.000100    0.12    109.49   
    40. A(C   0,N   4,H   3)          109.75 -0.001732    0.42    110.17   
    41. A(C   8,C   5,H  10)          109.26 -0.000021    0.00    109.26   
    42. A(C   1,C   5,H  10)          110.20  0.002306   -0.43    109.77   
    43. A(C   8,C   5,H   9)          109.79  0.000205    0.01    109.80   
    44. A(C   1,C   5,C   8)          110.14 -0.005514    0.99    111.13   
    45. A(C   1,C   5,H   9)          109.74  0.003326   -0.64    109.10   
    46. A(H   9,C   5,H  10)          107.68 -0.000174    0.05    107.72   
    47. A(C  11,C   8,H  13)          109.44  0.002900   -0.60    108.84   
    48. A(H  12,C   8,H  13)          106.99 -0.001259    0.44    107.43   
[...]
		      410     4.476	     1       0.01      98.96
		      411     4.478	     1       0.01      98.97
		      412     4.478	     1       0.01      98.97
		      413     4.484	     1       0.01      98.98
		      414     4.489	     1       0.01      98.99
		      415     4.499	     1       0.01      99.00
		      416     4.505	     1       0.01      99.01
		      417     4.506	     1       0.01      99.02
		      418     4.509	     1       0.01      99.02
		      419     4.520	     1       0.01      99.03
		      420     4.522	     1       0.01      99.04
		      421     4.523	     1       0.01      99.05
		      422     4.526	     1       0.01      99.06
		      423     4.534	     1       0.01      99.06
		      424     4.544	     1       0.01      99.07
		      425     4.545	     1       0.01      99.08
		      426     4.549	     1       0.01      99.09
		      427     4.554	     1       0.01      99.09
		      428     4.554	     1       0.01      99.10
		      429     4.555	     1       0.01      99.11
		      430     4.563	     1       0.01      99.12
		      431     4.563	     1       0.01      99.12
		      432     4.574	     1       0.01      99.13
		      433     4.575	     1       0.01      99.14
		      434     4.578	     1       0.01      99.15
		      435     4.580	     1       0.01      99.15
		      436     4.580	     1       0.01      99.16
		      437     4.582	     1       0.01      99.17
		      438     4.584	     1       0.01      99.17
		      439     4.589	     1       0.01      99.18
		      440     4.590	     1       0.01      99.19
		      441     4.599	     1       0.01      99.20
		      442     4.599	     1       0.01      99.20
		      443     4.600	     1       0.01      99.21
		      444     4.602	     1       0.01      99.22
		      445     4.603	     1       0.01      99.22
		      446     4.603	     1       0.01      99.23
		      447     4.616	     1       0.01      99.24
		      448     4.619	     1       0.01      99.24
		      449     4.620	     1       0.01      99.25
		      450     4.621	     1       0.01      99.26
		      451     4.628	     1       0.01      99.26
		      452     4.633	     1       0.01      99.27
		      453     4.636	     1       0.01      99.28
		      454     4.646	     1       0.01      99.28
		      455     4.647	     1       0.01      99.29
		      456     4.651	     1       0.01      99.30
		      457     4.653	     1       0.01      99.30
		      458     4.655	     1       0.01      99.31
		      459     4.656	     1       0.01      99.32
		      460     4.658	     1       0.01      99.32
		      461     4.686	     1       0.01      99.33
		      462     4.688	     1       0.01      99.33
		      463     4.693	     1       0.01      99.34
		      464     4.700	     1       0.01      99.35
		      465     4.704	     1       0.01      99.35
		      466     4.714	     1       0.01      99.36
		      467     4.715	     1       0.01      99.36
		      468     4.722	     1       0.01      99.37
		      469     4.729	     1       0.01      99.37
		      470     4.736	     1       0.01      99.38
		      471     4.740	     1       0.01      99.39
		      472     4.750	     1       0.01      99.39
		      473     4.750	     1       0.01      99.40
		      474     4.758	     1       0.01      99.40
		      475     4.762	     1       0.01      99.41
		      476     4.769	     1       0.01      99.41
		      477     4.769	     1       0.01      99.42
		      478     4.770	     1       0.01      99.42
		      479     4.786	     1       0.01      99.43
		      480     4.787	     1       0.01      99.43
		      481     4.787	     1       0.01      99.44
		      482     4.792	     1       0.01      99.44
		      483     4.794	     1       0.01      99.45
		      484     4.794	     1       0.01      99.45
		      485     4.796	     1       0.01      99.46
		      486     4.797	     1       0.01      99.46
		      487     4.800	     1       0.00      99.47
		      488     4.801	     1       0.00      99.47
		      489     4.810	     1       0.00      99.48
		      490     4.810	     1       0.00      99.48
		      491     4.811	     1       0.00      99.49
		      492     4.815	     1       0.00      99.49
		      493     4.817	     1       0.00      99.50
		      494     4.820	     1       0.00      99.50
		      495     4.824	     1       0.00      99.51
		      496     4.824	     1       0.00      99.51
		      497     4.825	     1       0.00      99.52
		      498     4.831	     1       0.00      99.52
		      499     4.836	     1       0.00      99.53
		      500     4.838	     1       0.00      99.53
		      501     4.838	     1       0.00      99.54
		      502     4.843	     1       0.00      99.54
		      503     4.846	     1       0.00      99.55
		      504     4.848	     1       0.00      99.55
		      505     4.851	     1       0.00      99.55
		      506     4.854	     1       0.00      99.56
		      507     4.855	     1       0.00      99.56
		      508     4.858	     1       0.00      99.57
		      509     4.863	     1       0.00      99.57
		      510     4.864	     1       0.00      99.58
		      511     4.865	     1       0.00      99.58
		      512     4.867	     1       0.00      99.59
		      513     4.868	     1       0.00      99.59
		      514     4.871	     1       0.00      99.59
		      515     4.881	     1       0.00      99.60
		      516     4.881	     1       0.00      99.60
		      517     4.881	     1       0.00      99.61
		      518     4.882	     1       0.00      99.61
		      519     4.889	     1       0.00      99.62
		      520     4.892	     1       0.00      99.62
		      521     4.904	     1       0.00      99.62
		      522     4.918	     1       0.00      99.63
		      523     4.926	     1       0.00      99.63
		      524     4.928	     1       0.00      99.64
		      525     4.936	     1       0.00      99.64
		      526     4.938	     1       0.00      99.64
		      527     4.943	     1       0.00      99.65
		      528     4.945	     1       0.00      99.65
		      529     4.952	     1       0.00      99.66
		      530     4.966	     1       0.00      99.66
		      531     4.966	     1       0.00      99.66
		      532     4.975	     1       0.00      99.67
		      533     4.978	     1       0.00      99.67
		      534     4.982	     1       0.00      99.68
		      535     4.986	     1       0.00      99.68
		      536     4.998	     1       0.00      99.68
		      537     5.000	     1       0.00      99.69
		      538     5.001	     1       0.00      99.69
		      539     5.003	     1       0.00      99.69
		      540     5.013	     1       0.00      99.70
		      541     5.019	     1       0.00      99.70
		      542     5.028	     1       0.00      99.70
		      543     5.039	     1       0.00      99.71
		      544     5.046	     1       0.00      99.71
		      545     5.046	     1       0.00      99.71
		      546     5.049	     1       0.00      99.72
		      547     5.052	     1       0.00      99.72
		      548     5.054	     1       0.00      99.72
		      549     5.074	     1       0.00      99.73
		      550     5.075	     1       0.00      99.73
		      551     5.077	     1       0.00      99.73
		      552     5.078	     1       0.00      99.74
		      553     5.084	     1       0.00      99.74
		      554     5.086	     1       0.00      99.74
		      555     5.096	     1       0.00      99.74
		      556     5.101	     1       0.00      99.75
		      557     5.102	     1       0.00      99.75
		      558     5.108	     1       0.00      99.75
		      559     5.111	     1       0.00      99.76
		      560     5.114	     1       0.00      99.76
		      561     5.116	     1       0.00      99.76
		      562     5.131	     1       0.00      99.77
		      563     5.132	     1       0.00      99.77
		      564     5.141	     1       0.00      99.77
		      565     5.142	     1       0.00      99.77
		      566     5.148	     1       0.00      99.78
		      567     5.152	     1       0.00      99.78
		      568     5.163	     1       0.00      99.78
		      569     5.170	     1       0.00      99.78
		      570     5.170	     1       0.00      99.79
		      571     5.176	     1       0.00      99.79
		      572     5.177	     1       0.00      99.79
		      573     5.184	     1       0.00      99.80
		      574     5.188	     1       0.00      99.80
		      575     5.189	     1       0.00      99.80
		      576     5.196	     1       0.00      99.80
		      577     5.198	     1       0.00      99.81
		      578     5.209	     1       0.00      99.81
		      579     5.210	     1       0.00      99.81
		      580     5.220	     1       0.00      99.81
		      581     5.227	     1       0.00      99.82
		      582     5.245	     1       0.00      99.82
		      583     5.246	     1       0.00      99.82
		      584     5.251	     1       0.00      99.82
		      585     5.251	     1       0.00      99.82
		      586     5.252	     1       0.00      99.83
		      587     5.257	     1       0.00      99.83
		      588     5.258	     1       0.00      99.83
		      589     5.266	     1       0.00      99.83
		      590     5.273	     1       0.00      99.84
		      591     5.279	     1       0.00      99.84
		      592     5.283	     1       0.00      99.84
		      593     5.294	     1       0.00      99.84
		      594     5.294	     1       0.00      99.84
		      595     5.297	     1       0.00      99.85
		      596     5.305	     1       0.00      99.85
		      597     5.323	     1       0.00      99.85
		      598     5.325	     1       0.00      99.85
		      599     5.330	     1       0.00      99.86
		      600     5.332	     1       0.00      99.86
		      601     5.336	     1       0.00      99.86
		      602     5.338	     1       0.00      99.86
		      603     5.339	     1       0.00      99.86
		      604     5.345	     1       0.00      99.87
		      605     5.349	     1       0.00      99.87
		      606     5.355	     1       0.00      99.87
		      607     5.356	     1       0.00      99.87
		      608     5.368	     1       0.00      99.87
		      609     5.369	     1       0.00      99.87
		      610     5.373	     1       0.00      99.88
		      611     5.382	     1       0.00      99.88
		      612     5.406	     1       0.00      99.88
		      613     5.406	     1       0.00      99.88
		      614     5.414	     1       0.00      99.88
		      615     5.416	     1       0.00      99.89
		      616     5.420	     1       0.00      99.89
		      617     5.421	     1       0.00      99.89
		      618     5.427	     1       0.00      99.89
		      619     5.430	     1       0.00      99.89
		      620     5.441	     1       0.00      99.89
		      621     5.446	     1       0.00      99.90
		      622     5.452	     1       0.00      99.90
		      623     5.454	     1       0.00      99.90
		      624     5.458	     1       0.00      99.90
		      625     5.463	     1       0.00      99.90
		      626     5.464	     1       0.00      99.90
		      627     5.480	     1       0.00      99.91
		      628     5.493	     1       0.00      99.91
		      629     5.494	     1       0.00      99.91
		      630     5.501	     1       0.00      99.91
		      631     5.503	     1       0.00      99.91
		      632     5.507	     1       0.00      99.91
		      633     5.509	     1       0.00      99.92
		      634     5.517	     1       0.00      99.92
		      635     5.519	     1       0.00      99.92
		      636     5.522	     1       0.00      99.92
		      637     5.530	     1       0.00      99.92
		      638     5.532	     1       0.00      99.92
		      639     5.532	     1       0.00      99.92
		      640     5.535	     1       0.00      99.93
		      641     5.538	     1       0.00      99.93
		      642     5.542	     1       0.00      99.93
		      643     5.551	     1       0.00      99.93
		      644     5.583	     1       0.00      99.93
		      645     5.585	     1       0.00      99.93
		      646     5.592	     1       0.00      99.93
		      647     5.596	     1       0.00      99.93
		      648     5.598	     1       0.00      99.94
		      649     5.601	     1       0.00      99.94
		      650     5.604	     1       0.00      99.94
		      651     5.608	     1       0.00      99.94
		      652     5.616	     1       0.00      99.94
		      653     5.628	     1       0.00      99.94
		      654     5.635	     1       0.00      99.94
		      655     5.636	     1       0.00      99.94
		      656     5.638	     1       0.00      99.95
		      657     5.645	     1       0.00      99.95
		      658     5.654	     1       0.00      99.95
		      659     5.656	     1       0.00      99.95
		      660     5.660	     1       0.00      99.95
		      661     5.668	     1       0.00      99.95
		      662     5.684	     1       0.00      99.95
		      663     5.685	     1       0.00      99.95
		      664     5.689	     1       0.00      99.96
		      665     5.699	     1       0.00      99.96
		      666     5.700	     1       0.00      99.96
		      667     5.714	     1       0.00      99.96
		      668     5.715	     1       0.00      99.96
		      669     5.722	     1       0.00      99.96
		      670     5.729	     1       0.00      99.96
		      671     5.737	     1       0.00      99.96
		      672     5.745	     1       0.00      99.96
		      673     5.746	     1       0.00      99.96
		      674     5.750	     1       0.00      99.97
		      675     5.750	     1       0.00      99.97
		      676     5.752	     1       0.00      99.97
		      677     5.761	     1       0.00      99.97
		      678     5.762	     1       0.00      99.97
		      679     5.762	     1       0.00      99.97
		      680     5.763	     1       0.00      99.97
		      681     5.764	     1       0.00      99.97
		      682     5.766	     1       0.00      99.97
		      683     5.780	     1       0.00      99.97
		      684     5.795	     1       0.00      99.98
		      685     5.798	     1       0.00      99.98
		      686     5.828	     1       0.00      99.98
		      687     5.833	     1       0.00      99.98
		      688     5.834	     1       0.00      99.98
		      689     5.834	     1       0.00      99.98
		      690     5.840	     1       0.00      99.98
		      691     5.842	     1       0.00      99.98
		      692     5.844	     1       0.00      99.98
		      693     5.848	     1       0.00      99.98
		      694     5.848	     1       0.00      99.98
		      695     5.851	     1       0.00      99.99
		      696     5.858	     1       0.00      99.99
		      697     5.862	     1       0.00      99.99
		      698     5.865	     1       0.00      99.99
		      699     5.872	     1       0.00      99.99
		      700     5.875	     1       0.00      99.99
		      701     5.891	     1       0.00      99.99
		      702     5.893	     1       0.00      99.99
		      703     5.917	     1       0.00      99.99
		      704     5.930	     1       0.00      99.99
		      705     5.937	     1       0.00      99.99
		      706     5.944	     1       0.00      99.99
		      707     5.945	     1       0.00      99.99
		      708     5.947	     1       0.00     100.00
		      709     5.963	     1       0.00     100.00
		      710     5.964	     1       0.00     100.00
		      711     5.965	     1       0.00     100.00
		      712     5.965	     1       0.00     100.00
		      713     5.977	     1       0.00     100.00
		      714     5.990	     1       0.00     100.00
		      715     5.993	     1       0.00     100.00

		Conformers below 3 kcal/mol: 111
		Lowest energy conformer    : -34.393056 Eh
		Sconf at 298.15 K          :  8.08 cal/(molK)
		Gconf at 298.15 K          : -1.07 kcal/mol

		Writing final ensemble to k.finalensemble.xyz

--------------------------------
SUGGESTED CITATIONS FOR THIS RUN
--------------------------------

Below you find a list of papers that are relevant to this ORCA run
We neither can nor want to force you to cite these papers, but we appreciate if you do
You receive ORCA, which is the product of decades of hard work by many enthusiastic individuals, for free
The only thing we kindly ask in return is that you cite our papers,
We deeply appreciate it, if you show your appreciation for ORCA by not just citing the generic ORCA reference.

Please note that relegating all ORCA citations to the supporting information does *not* help us.
SI sections are not indexed - citations you put there will not count into any citation statistics
But we need these citations in order to attract the funding resources that allow us to do what we are doing

Therefore, if you are a happy ORCA user, please consider citing a few of the papers listed below in the main body of your paper

In addition to the list printed below, the program has created the file k.bibtex that contains the list in bibtex format
You can import this file easily into all common literature databanks and citation aid programs


List of essential papers. We consider these as the minimum necessary citations

  1. Bannwarth, C.; Ehlert, S.; Grimme, S.
     GFN2-xTB—An Accurate and Broadly Parametrized Self-Consistent Tight-Binding Quantum Chemical Method with Multipole Electrostatics and Density-Dependent Dispersion Contributions
     J. Chem. Theory Comput. 2019 15(3), 1652-1671
     doi.org/10.1021/acs.jctc.8b01176
  2. Neese, F.
     Software update: the ORCA program system, version 6.0
     WIRES Comput. Molec. Sci. 2025 15(1), e70019
     doi.org/10.1002/wcms.7019
  3. de Souza, B.
     GOAT: A Global Optimization Algorithm for Molecules and Atomic Clusters
     Angewandte Chemie 2025 64(18), e202500393
     doi.org/10.1002/anie.202500393

List of papers to cite with high priority. The work reported in these papers was absolutely
necessary for this run to complete.
Our perspective: the developers of density functionals and basis sets usually get cited in chemistry papers
Good! But without the algorithms to do something with them, the functionals or basis sets would not do anything.
Hence, in our opinion, the algorithm design and method developments papers are equally worthy of getting cited

  1. Bannwarth, C.; Caldeweyher, E.; Ehlert, S.; Hansen, A.; Pracht, P.; Seibert, J.; Spicher, S.; Grimme, S.
     Extended tight-binding quantum chemistry methods
     WIRES Comput. Molec. Sci. 2020 11(2), e1493
     doi.org/10.1002/wcms.1493

List of suggested additional citations. These are papers that are important in the 'surrounding' of 
of this run, or papers that preceded the highly important papers. If you like your results we are grateful for a citation.

  1. Neese, F.
     The ORCA program system
     WIRES Comput. Molec. Sci. 2012 2(1), 73-78
     doi.org/10.1002/wcms.81
  2. Neese, F.
     Software update: the ORCA program system, version 4.0
     WIRES Comput. Molec. Sci. 2018 8(1), 1-6
     doi.org/10.1002/wcms.1327
  3. Neese, F.; Wennmohs, F.; Becker, U.; Riplinger, C.
     The ORCA quantum chemistry program package
     J. Chem. Phys. 2020 152(22), 224108
     doi.org/10.1063/5.0004608
  4. Neese, F.
     Software update: The ORCA program system—Version 5.0
     WIRES Comput. Molec. Sci. 2022 12(1), e1606
     doi.org/10.1002/wcms.1606

List of optional additional citations

  1. Neese, F.
     Approximate second-order SCF convergence for spin unrestricted wavefunctions
     Chem. Phys. Lett. 2000 325(1-3), 93-98
     doi.org/10.1016/s0009-2614(00)00662-x

Timings for individual modules:

Sum of individual times          ...      483.387 sec (=   8.056 min)
Geometry relaxation              ...        0.106 sec (=   0.002 min)   0.0 %
GOAT                             ...      482.328 sec (=   8.039 min)  99.8 %
XTB module                       ...        0.953 sec (=   0.016 min)   0.2 %
                             ****ORCA TERMINATED NORMALLY****
TOTAL RUN TIME: 0 days 0 hours 8 minutes 4 seconds 463 msec
