
                                 *****************
                                 * O   R   C   A *
                                 *****************

                                            #,                                       
                                            ###                                      
                                            ####                                     
                                            #####                                    
                                            ######                                   
                                           ########,                                 
                                     ,,################,,,,,                         
                               ,,#################################,,                 
                          ,,##########################################,,             
                       ,#########################################, ''#####,          
                    ,#############################################,,   '####,        
                  ,##################################################,,,,####,       
                ,###########''''           ''''###############################       
              ,#####''   ,,,,##########,,,,          '''####'''          '####       
            ,##' ,,,,###########################,,,                        '##       
           ' ,,###''''                  '''############,,,                           
         ,,##''                                '''############,,,,        ,,,,,,###''
      ,#''                                            '''#######################'''  
     '                                                          ''''####''''         
             ,#######,   #######,   ,#######,      ##                                
            ,#'     '#,  ##    ##  ,#'     '#,    #''#        ,####,    ,#,          
            ##       ##  ##   ,#'  ##            #'  '#       #'       ,# #          
            ##       ##  #######   ##           ,######,      #####,      #          
            '#,     ,#'  ##    ##  '#,     ,#' ,#      #,     #,   #      #          
             '#######'   ##     ##  '#######'  #'      '#     '####' #    #          



                #########################################################
                #                        -***-                          #
                #          Department of theory and spectroscopy        #
                #                                                       #
                #                      Frank Neese                      #
                #                                                       #
                #     Directorship, Architecture, Infrastructure        #
                #                    SHARK, DRIVERS                     #
                #        Core code/Algorithms in most modules           #
                #                                                       #
                #        Max Planck Institute fuer Kohlenforschung      #
                #                Kaiser Wilhelm Platz 1                 #
                #                 D-45470 Muelheim/Ruhr                 #
                #                      Germany                          #
                #                                                       #
                #                  All rights reserved                  #
                #                        -***-                          #
                #########################################################


                         Program Version 6.1.0  -  RELEASE   -
                                (GIT: $679e74b$)
                          ($2025-06-10 18:02:51 +0200$)


 With contributions from (in alphabetic order):
[Max-Planck-Institut fuer Kohlenforschung]                               
  Daniel Aravena         : Magnetic Suceptibility                        
  Michael Atanasov       : Ab Initio Ligand Field Theory (pilot matlab implementation)
  Alexander A. Auer      : GIAO ZORA, VPT2 properties, NMR spectrum      
  Ute Becker             : All parallelization in ORCA, NUMFREQ, NUMCALC 
  Giovanni Bistoni       : ED, misc. LED, open-shell LED, HFLD           
  Dmytro Bykov           : pre 5.0 version of the SCF Hessian            
  Marcos Casanova-Páez   : Triplet and SCS-CIS(D). UHF-(DLPNO)-IP/EA/STEOM-CCSD. UHF-CVS-IP/STEOM-CCSD   
  Vijay G. Chilkuri      : MRCI spin determinant printing, contributions to CSF-ICE 
  Pauline Colinet        : FMM embedding                                 
  Dipayan Datta          : RHF DLPNO-CCSD density                        
  Achintya Kumar Dutta   : EOM-CC, STEOM-CC                              
  Nicolas Foglia         : Exact transition moments, OPA infrastructure, MCD improvements    
  Dmitry Ganyushin       : Spin-Orbit,Spin-Spin,Magnetic field MRCI      
  Miquel Garcia-Rates    : C-PCM and meta-GGA Hessian, CCSD/C-PCM, Gaussian charge scheme 
  Tiago L. C. Gouveia    : GS-ROHF, GS-ROCIS                             
  Yang Guo               : DLPNO-NEVPT2, F12-NEVPT2, CIM, IAO-localization        
  Andreas Hansen         : Spin unrestricted coupled pair/coupled cluster methods 
  Ingolf Harden          : AUTO-CI MPn and infrastructure                
  Benjamin Helmich-Paris : MC-RPA, TRAH-(SCF,CASSCF), AVAS, COSX integrals, SCF dyn. polar., MC-PDFT, srDFT 
  Lee Huntington         : MR-EOM, pCC                                   
  Robert Izsak           : Overlap fitted RIJCOSX, COSX-SCS-MP3, EOM     
  Riya Kayal             : Wick's Theorem for AUTO-CI, AUTO-CI UHF-CCSDT 
  Emily Kempfer          : AUTO-CI RHF CISDT and CCSDT, approximate NEVPT4
  Christian Kollmar      : KDIIS, OOCD, Brueckner-CCSD(T), CCSD density, CASPT2, CASPT2-K, improved NEVPT2 
  Axel Koslowski         : Symmetry handling                             
  Simone Kossmann        : meta-GGA functionals, TD-DFT gradient, OOMP2, (MP2 Hessian; deprecated post 5.0) 
  Lucas Lang             : DCDCAS, Hyperfine gauge corrections, ICE-SOC+SSC
  Marvin Lechner         : AUTO-CI (C++ implementation), FIC-MRCC        
  Spencer Leger          : CASSCF response                               
  Dagmar Lenk            : GEPOL surface, SMD, ORCA-2-JSON               
  Dimitrios Liakos       : Extrapolation schemes; Compound Job, Property file
  Dimitrios Manganas     : Further ROCIS development; embedding schemes. LFT, Crystal Embedding 
  Dimitrios Pantazis     : SARC Basis sets                               
  Anastasios Papadopoulos: AUTO-CI, single reference methods and gradients 
  Taras Petrenko         : pre 6.0 DFT Hessian and TD-DFT gradient,  ECA, NRVS 
  Petra Pikulova         : Analytic Raman intensities                    
  Peter Pinski           : DLPNO-MP2, DLPNO-MP2 Gradient                 
  Shashank Vittal Rao    : ES-AILFT, MagRelax                            
  Christoph Reimann      : Effective Core Potentials                     
  Marius Retegan         : Local ZFS, SOC                                
  Christoph Riplinger    : Optimizer, TS searches, QM/MM, DLPNO-CCSD(T), (RO)-DLPNO pert. Triples 
  Michael Roemelt        : Original ROCIS implementation, recursive CI coupling coefficients
  Masaaki Saitow         : Open-shell DLPNO-CCSD energy and density      
  Barbara Sandhoefer     : DKH picture change effects                    
  Yorick L. A. Schmerwitz: GMF and freeze-and-release deltaSCF, NEB S-IDPP initial path                    
  Kantharuban Sivalingam : CASSCF convergence/infrastructure, NEVPT2, NEVPT3, NEVPT4(SD), FIC-MRCI and CEPA variants
  Bernardo de Souza      : ESD, SOC TD-DFT                               
  Georgi L. Stoychev     : AutoAux, RI-MP2 NMR, DLPNO-MP2 response, X2C  
  Van Anh Tran           : RI-MP2 g-tensors                              
  Willem Van den Heuvel  : Paramagnetic NMR                              
  Zikuan Wang            : NOTCH, Electric field optimization            
  Frank Wennmohs         : Technical directorship and infrastructure     
  Hang Xu                : AUTO-CI-Response properties                   
                                                                         
[FACCTs GmbH]                                                            
  Markus Bursch, Nicolas Foglia, Miquel Garcia-Rates, Ingolf Harden, Hagen Neugebauer, Anastasios Papadopoulos, 
  Christoph Riplinger, Bernardo de Souza, Georgi L. Stoychev                                                    
                                                                 
  APM, various basis sets, CI-OPT, improved COSX, DLPNO-Multilevel,           
  DOCKER, DRACO, updates on ESD, Fragmentator, GOAT, IRC, LR-CPCM, L-BFGS, MBIS, meta-GGA TD-DFT gradient, ML-optimized integration grids, 
  MM, NACMEs, nearIR, NEB, NEB-TS, NL-DFT gradient (VV10), 2- and 3-layer-ONIOM, interface openCOSMO-RS, QMMM,   
  Crystal-QMMM, RESP, rigid body optimization, SF, symmetry and pop. for TD-DFT, various functionals, SOLVATOR                                   
                                                                         
[Other institutions]                                                     
  V. Asgeirsson          : NEB                                           
  Christoph Bannwarth    : sTDA-DFT, sTD-DFT, PBEh-3c, B97-3c, D3        
  Giovanni Bistoni       : ETS/NOCV, ADLD/ADEX, COVALED                  
  Martin Brehm           : Molecular dynamics                            
  Ronald Cardenas        : ETS/NOCV                                      
  Martina Colucci        : COVALED                                       
  Sebastian Ehlert       : rSCAN, r2SCAN, r2SCAN-3c, D4, dhf basis sets  
  Marvin Friede          : D4 for Fr, Ra, Ac-Lr                          
  Lars Goerigk           : TD-DFT with DH, B97 family of functionals     
  Stefan Grimme          : VdW corrections, initial TS optimization, DFT functionals, gCP, sTDA/sTD-DF 
  Waldemar Hujo          : DFT-NL                                        
  H. Jonsson             : NEB                                           
  Holger Kruse           : gCP                                           
  Marcel Mueller         : wB97X-3c, vDZP basis set                      
  Hagen Neugebauer       : wr2SCAN, Native XTB                           
  Gianluca Regni         : ADLD/ADEX                                     
  Tobias Risthaus        : pre 6.0 range-separated hybrid DFT and stability analysis
  Lukas Wittmann         : regularized MP2, r2SCAN double-hybrids, wr2SCAN        
                                                                         
We gratefully acknowledge several colleagues who have allowed us to      
interface, adapt or use parts of their codes:                            
  Ed Valeev, F. Pavosevic, A. Kumar             : LibInt (2-el integral package), F12 methods 
  Garnet Chan, S. Sharma, J. Yang, R. Olivares  : DMRG                   
  Ulf Ekstrom                                   : XCFun DFT Library      
  Mihaly Kallay                                 : mrcc  (arbitrary order and MRCC methods)
  Frank Weinhold                                : gennbo (NPA and NBO analysis)           
  Simon Mueller                                 : openCOSMO-RS                            
  Christopher J. Cramer and Donald G. Truhlar   : smd solvation model                     
  S Lehtola, MJT Oliveira, MAL Marques          : LibXC Library                           
  Liviu Ungur et al                             : ANISO software                          


 Your calculation uses the libint2 library for the computation of 2-el integrals
 For citations please refer to: http://libint.valeyev.net

 Your ORCA version has been built with support for libXC version: 7.0.0
 For citations please refer to: https://libxc.gitlab.io

 This ORCA versions uses:
   CBLAS   interface :  Fast vector & matrix operations
   LAPACKE interface :  Fast linear algebra routines
   SCALAPACK package :  Parallel linear algebra routines
   Shared memory     :  Shared parallel matrices
   BLAS/LAPACK       :  OpenBLAS 0.3.29  USE64BITINT DYNAMIC_ARCH NO_AFFINITY Haswell SINGLE_THREADED
        Core in use  :  Haswell
   Copyright (c) 2011-2014, The OpenBLAS Project


  ***********************************
  * Starting time: Sat Aug 30 15:47:57 2025
  * Host name:     chemlab03
  * Process ID:    79861
  * Working dir.:  /home/vivek/mm-project/vivek/xtb-goat/B97-D-opt/g/0
  ***********************************



***************************************
The coordinates will be read from file: /home/vivek/mm-project/vivek/xtb-goat/xtb-goat/g/G_CONF/0.xyz
***************************************


Your calculation utilizes empirical dispersion correction


Warning: RI is on but no J-basis has been assigned. Assigning Def2/J (nothing to worry about!)
================================================================================

----- Orbital basis set information -----
Your calculation utilizes the basis: 6-31G**
   H-He, Li-Ne : W. J. Hehre, R. Ditchfield and J.A. Pople, J. Chem. Phys. 56, 2257 (1972).
                 Note: He and Ne are unpublished basis sets taken from the Gaussian program.
                 Note: Li and B from J. D. Dill and J. A. Pople, J. Chem. Phys. 62, 2921 (1975).
   Na - Ar     : M. M. Francl, W. J. Pietro, W. J. Hehre, J. S. Binkley, M. S. Gordon, 
                 D. J. DeFrees and J. A. Pople, J. Chem. Phys. 77, 3654 (1982).
   K - Zn      : V. A. Rassolov, J. A. Pople, M. A. Ratner, and T. L. Windus, J. Chem. Phys. 109, 1223 (1998).

----- AuxJ basis set information -----
Your calculation utilizes the auxiliary basis: def2/J
   H-Rn: F. Weigend, Phys. Chem. Chem. Phys. 8, 1057 (2006).
   Fr-Lr: K. Eichkorn, F. Weigend, O. Treutler, R. Ahlrichs; Theor. Chem. Acc. 97, 119 (1997).

================================================================================
                                        WARNINGS
                       Please study these warnings very carefully!
================================================================================


WARNING: Geometry Optimization
  ===> : Switching off AutoStart
         For restart on a previous wavefunction, please use MOREAD

INFO   : The exchange functional is Grimme's B97(-D)
         As described in S. Grimme, J. Comput. Chem. 27, 1787 (2006).
         Note that this functional defaults to a pure GGA. 

INFO   : The correlation functional is Grimme's B97(-D)
         As described in S. Grimme, J. Comput. Chem. 27, 1787 (2006).

================================================================================
                                       INPUT FILE
================================================================================
NAME = 0.inp
|  1> ! B97-D 6-31G** opt
|  2> 
|  3> * xyzfile 0 1 /home/vivek/mm-project/vivek/xtb-goat/xtb-goat/g/G_CONF/0.xyz
|  4> 
|  5>                          ****END OF INPUT****
================================================================================

                       *****************************
                       * Geometry Optimization Run *
                       *****************************

Geometry optimization settings:
Update method            Update   .... BFGS
Choice of coordinates    CoordSys .... (2022) Redundant Internals
Initial Hessian          InHess   .... Almloef's Model
Max. no of cycles        MaxIter  .... 50

Convergence Tolerances:
Energy Change            TolE     ....  5.0000e-06 Eh
Max. Gradient            TolMAXG  ....  3.0000e-04 Eh/bohr
RMS Gradient             TolRMSG  ....  1.0000e-04 Eh/bohr
Max. Displacement        TolMAXD  ....  4.0000e-03 bohr
RMS Displacement         TolRMSD  ....  2.0000e-03 bohr
Strict Convergence                .... False

------------------------------------------------------------------------------
                        ORCA OPTIMIZATION COORDINATE SETUP
------------------------------------------------------------------------------

The optimization will be done in redundant internal coordinates (2022)
Making redundant internal coordinates   ...  (2022 redundants) done
Evaluating the initial hessian          ...  (Almloef) done
Evaluating the coordinates              ...  done
Calculating the B-matrix                .... done
Calculating the G-matrix                .... done
The number of degrees of freedom        ....   34

    -----------------------------------------------------------------
                    Redundant Internal Coordinates


    -----------------------------------------------------------------
         Definition                    Initial Value    Approx d2E/dq
    -----------------------------------------------------------------
      1. B(C   1,C   0)                  1.5198         0.387807   
      2. B(N   4,H   2)                  1.0153         0.424292   
      3. B(N   4,C   0)                  1.4456         0.456290   
      4. B(N   4,H   3)                  1.0154         0.424280   
      5. B(O   5,C   1)                  1.3376         0.678473   
      6. B(H   6,C   0)                  1.0940         0.354791   
      7. B(H   7,C   0)                  1.0940         0.354827   
      8. B(H   8,O   5)                  0.9708         0.499641   
      9. B(O   9,C   1)                  1.2020         1.116554   
     10. A(N   4,C   0,H   7)          109.3396         0.332377   
     11. A(C   1,C   0,H   7)          108.1385         0.325528   
     12. A(C   1,C   0,N   4)          114.1549         0.376114   
     13. A(H   6,C   0,H   7)          107.5460         0.289491   
     14. A(C   1,C   0,H   6)          108.1325         0.325522   
     15. A(N   4,C   0,H   6)          109.3211         0.332371   
     16. A(C   0,C   1,O   9)          124.6233         0.440575   
     17. A(C   0,C   1,O   5)          112.2783         0.403088   
     18. A(O   5,C   1,O   9)          123.0983         0.484741   
     19. A(C   0,N   4,H   3)          109.8571         0.339472   
     20. A(C   0,N   4,H   2)          109.8661         0.339474   
     21. A(H   2,N   4,H   3)          106.6706         0.301359   
     22. A(C   1,O   5,H   8)          110.6101         0.373333   
     23. D(O   5,C   1,C   0,N   4)    179.8919         0.011196   
     24. D(O   9,C   1,C   0,N   4)     -0.0576         0.011196   
     25. D(O   9,C   1,C   0,H   6)    121.8414         0.011196   
     26. D(O   5,C   1,C   0,H   6)    -58.2090         0.011196   
     27. D(O   5,C   1,C   0,H   7)     57.9647         0.011196   
     28. D(H   2,N   4,C   0,H   6)   -179.8861         0.017768   
     29. D(H   2,N   4,C   0,C   1)    -58.6428         0.017768   
     30. D(H   3,N   4,C   0,H   6)    -62.8343         0.017768   
     31. D(H   3,N   4,C   0,C   1)     58.4090         0.017768   
     32. D(H   2,N   4,C   0,H   7)     62.6221         0.017768   
     33. D(H   8,O   5,C   1,O   9)     -0.0307         0.034272   
     34. D(H   8,O   5,C   1,C   0)   -179.9812         0.034272   
    -----------------------------------------------------------------

Number of atoms                         .... 10
Number of degrees of freedom            .... 34


         *************************************************************
         *                GEOMETRY OPTIMIZATION CYCLE   1            *
         *************************************************************
---------------------------------
CARTESIAN COORDINATES (ANGSTROEM)
---------------------------------
  C     -4.977551   -1.323083   -0.153995
  C     -4.782569   -2.270042    1.018656
  H     -6.461651   -0.192238    0.643965
  H     -4.970997    0.416105    0.891412
  N     -5.557438   -0.048535    0.205015
  O     -4.246706   -3.437024    0.644378
  H     -4.003482   -1.158065   -0.623984
  H     -5.618675   -1.818656   -0.889003
  H     -4.133230   -4.022354    1.410576
  O     -5.071990   -2.015793    2.157209

----------------------------
CARTESIAN COORDINATES (A.U.)
----------------------------
  NO LB      ZA    FRAG     MASS         X           Y           Z
   0 C     6.0000    0    12.011   -9.406208   -2.500264   -0.291009
   1 C     6.0000    0    12.011   -9.037746   -4.289758    1.924981
   2 H     1.0000    0     1.008  -12.210750   -0.363277    1.216917
   3 H     1.0000    0     1.008   -9.393822    0.786324    1.684525
   4 N     7.0000    0    14.007  -10.502035   -0.091718    0.387422
   5 O     8.0000    0    15.999   -8.025112   -6.495033    1.217698
   6 H     1.0000    0     1.008   -7.565484   -2.188425   -1.179159
   7 H     1.0000    0     1.008  -10.617756   -3.436762   -1.679972
   8 H     1.0000    0     1.008   -7.810673   -7.601148    2.665602
   9 O     8.0000    0    15.999   -9.584672   -3.809296    4.076535

--------------------------------
INTERNAL COORDINATES (ANGSTROEM)
--------------------------------
 C      0   0   0     0.000000000000     0.00000000     0.00000000
 C      1   0   0     1.519822389748     0.00000000     0.00000000
 H      1   2   0     2.029310888282    97.91128967     0.00000000
 H      3   1   2     1.628913802666    66.33373974    93.37039807
 N      3   1   2     1.015346400441    42.06290665   128.12576073
 O      2   1   3     1.337564566763   112.27831406   155.95724356
 H      1   2   3     1.094043358835   108.13247892   145.83371056
 H      1   2   3     1.094015355890   108.13854561   262.00741784
 H      6   2   1     0.970848825581   110.61011441   180.01877776
 O      2   1   3     1.201961073632   124.62332946   336.00766254

---------------------------
INTERNAL COORDINATES (A.U.)
---------------------------
 C      0   0   0     0.000000000000     0.00000000     0.00000000
 C      1   0   0     2.872048088826     0.00000000     0.00000000
 H      1   2   0     3.834841819437    97.91128967     0.00000000
 H      3   1   2     3.078200982803    66.33373974    93.37039807
 N      3   1   2     1.918726627896    42.06290665   128.12576073
 O      2   1   3     2.527630717618   112.27831406   155.95724356
 H      1   2   3     2.067442326833   108.13247892   145.83371056
 H      1   2   3     2.067389408936   108.13854561   262.00741784
 H      6   2   1     1.834638397788   110.61011441   180.01877776
 O      2   1   3     2.271377252798   124.62332946   336.00766254

---------------------
BASIS SET INFORMATION
---------------------
There are 4 groups of distinct atoms

 Group   1 Type C   : 10s4p1d contracted to 3s2p1d pattern {631/31/1}
 Group   2 Type H   : 4s1p contracted to 2s1p pattern {31/1}
 Group   3 Type N   : 10s4p1d contracted to 3s2p1d pattern {631/31/1}
 Group   4 Type O   : 10s4p1d contracted to 3s2p1d pattern {631/31/1}

Atom   0C    basis set group =>   1
Atom   1C    basis set group =>   1
Atom   2H    basis set group =>   2
Atom   3H    basis set group =>   2
Atom   4N    basis set group =>   3
Atom   5O    basis set group =>   4
Atom   6H    basis set group =>   2
Atom   7H    basis set group =>   2
Atom   8H    basis set group =>   2
Atom   9O    basis set group =>   4
---------------------------------
AUXILIARY/J BASIS SET INFORMATION
---------------------------------
There are 4 groups of distinct atoms

 Group   1 Type C   : 12s5p4d2f1g contracted to 6s4p3d1f1g pattern {711111/2111/211/2/1}
 Group   2 Type H   : 5s2p1d contracted to 3s1p1d pattern {311/2/1}
 Group   3 Type N   : 12s5p4d2f1g contracted to 6s4p3d1f1g pattern {711111/2111/211/2/1}
 Group   4 Type O   : 12s5p4d2f1g contracted to 6s4p3d1f1g pattern {711111/2111/211/2/1}

Atom   0C    basis set group =>   1
Atom   1C    basis set group =>   1
Atom   2H    basis set group =>   2
Atom   3H    basis set group =>   2
Atom   4N    basis set group =>   3
Atom   5O    basis set group =>   4
Atom   6H    basis set group =>   2
Atom   7H    basis set group =>   2
Atom   8H    basis set group =>   2
Atom   9O    basis set group =>   4
------------------------------------------------------------------------------
                             ORCA STARTUP CALCULATIONS
                           -- RI-GTO INTEGRALS CHOSEN --
------------------------------------------------------------------------------
------------------------------------------------------------------------------
                   ___                                                        
                  /   \      - P O W E R E D   B Y -                         
                 /     \                                                     
                 |  |  |   _    _      __       _____    __    __             
                 |  |  |  | |  | |    /  \     |  _  \  |  |  /  |          
                  \  \/   | |  | |   /    \    | | | |  |  | /  /          
                 / \  \   | |__| |  /  /\  \   | |_| |  |  |/  /          
                |  |  |   |  __  | /  /__\  \  |    /   |      \           
                |  |  |   | |  | | |   __   |  |    \   |  |\   \          
                \     /   | |  | | |  |  |  |  | |\  \  |  | \   \       
                 \___/    |_|  |_| |__|  |__|  |_| \__\ |__|  \__/        
                                                                              
                      - O R C A' S   B I G   F R I E N D -                    
                                      &                                       
                       - I N T E G R A L  F E E D E R -                       
                                                                              
 v1 FN, 2020, v2 2021, v3 2022-2024                                           
------------------------------------------------------------------------------


----------------------
SHARK INTEGRAL PACKAGE
----------------------

Number of atoms                             ...     10
Number of basis functions                   ...     95
Number of shells                            ...     45
Maximum angular momentum                    ...      2
Integral batch strategy                     ... SHARK/LIBINT Hybrid
RI-J (if used) integral strategy            ... SPLIT-RIJ (Revised 2003 algorithm where possible)
Printlevel                                  ...      1
Contraction scheme used                     ... SEGMENTED contraction
Prescreening option                         ... SCHWARTZ
   Thresh                                   ... 2.500e-11
   Tcut                                     ... 2.500e-12
   Tpresel                                  ... 2.500e-12 
Coulomb Range Separation                    ... NOT USED
Exchange Range Separation                   ... NOT USED
Multipole approximations                    ... NOT USED
Finite Nucleus Model                        ... NOT USED
CABS basis                                  ... NOT available
Auxiliary Coulomb fitting basis             ... AVAILABLE
   # of basis functions in Aux-J            ...    300
   # of shells in Aux-J                     ...    100
   Maximum angular momentum in Aux-J        ...      4
Auxiliary J/K fitting basis                 ... NOT available
Auxiliary Correlation fitting basis         ... NOT available
Auxiliary 'external' fitting basis          ... NOT available

Checking pre-screening integrals            ... done (  0.0 sec) Dimension = 45
   => SHARK Basis and OBASIS are compatible. Storing Pre-screening
Shell pair information
Shell pair cut-off parameter TPreSel        ...   2.5e-12
Total number of shell pairs                 ...      1035
Shell pairs after pre-screening             ...      1003
Total number of primitive shell pairs       ...      5170
Primitive shell pairs kept                  ...      3743
          la=0 lb=0:    314 shell pairs
          la=1 lb=0:    360 shell pairs
          la=1 lb=1:    117 shell pairs
          la=2 lb=0:    123 shell pairs
          la=2 lb=1:     74 shell pairs
          la=2 lb=2:     15 shell pairs

Checking whether 4 symmetric matrices of dimension 95 fit in memory
:Max Core in MB      =   4096.00
 MB in use           =      4.70
 MB left             =   4091.30
 MB needed           =      0.14
 Data fit in memory  = YES
Calculating RI/J V-Matrix + Cholesky decomp.... done (  0.0 sec)
Calculating Nuclear repulsion               ... done (  0.0 sec) ENN=    179.915764063273 Eh

Diagonalization of the overlap matrix:
Smallest eigenvalue                        ... 4.362e-03
Time for diagonalization                   ...    0.001 sec
Threshold for overlap eigenvalues          ... 1.000e-07
Number of eigenvalues below threshold      ... 0
Time for construction of square roots      ...    0.000 sec
Total time needed                          ...    0.001 sec

-------------------
DFT GRID GENERATION
-------------------

General Integration Accuracy     IntAcc      ... 4.388
Radial Grid Type                 RadialGrid  ... OptM3 with GC (2021)
Angular Grid (max. ang.)         AngularGrid ... 4 (Lebedev-302)
Angular grid pruning method      GridPruning ... 4 (adaptive)
Weight generation scheme         WeightScheme... mBecke (2022)
Basis function cutoff            BFCut       ... 1.0000e-11
Integration weight cutoff        WCut        ... 1.0000e-14
Partially contracted basis set               ... off
Rotationally invariant grid construction     ... off
Angular grids for H and He will be reduced by one unit

Total number of grid points                  ...    46639
Total number of batches                      ...      735
Average number of points per batch           ...       63
Average number of grid points per atom       ...     4664
Grids setup in   0.1 sec
Initializing property integral containers    ... done (  0.0 sec)

SHARK setup successfully completed in   0.2 seconds

Maximum memory used throughout the entire STARTUP-calculation: 19.9 MB
-------------------------------------------------------------------------------
                                 ORCA GUESS
                   Start orbitals & Density for SCF / CASSCF
-------------------------------------------------------------------------------

------------
SCF SETTINGS
------------
Hamiltonian:
 Density Functional     Method          .... DFT(GTOs)
 Exchange Functional    Exchange        .... B97(D)
 Correlation Functional Correlation     .... B97(D)
 Gradients option       PostSCFGGA      .... off
 RI-approximation to the Coulomb term is turned on
   Number of AuxJ basis functions       .... 300


General Settings:
 Integral files         IntName         .... 0
 Hartree-Fock type      HFTyp           .... RHF
 Total Charge           Charge          ....    0
 Multiplicity           Mult            ....    1
 Number of Electrons    NEL             ....   40
 Basis Dimension        Dim             ....   95
 Nuclear Repulsion      ENuc            ....    179.9157640633 Eh

Convergence Acceleration:
 AO-DIIS                CNVDIIS         .... on
   Start iteration      DIISMaxIt       ....    12
   Startup error        DIISStart       ....  0.200000
   # of expansion vecs  DIISMaxEq       ....     5
   Bias factor          DIISBfac        ....   1.050
   Max. coefficient     DIISMaxC        ....  10.000
 MO-DIIS                CNVKDIIS        .... off
 Trust-Rad. Augm. Hess. CNVTRAH         .... auto
   Auto Start mean grad. ratio tolernc. ....  1.125000
   Auto Start start iteration           ....    50
   Auto Start num. interpolation iter.  ....    10
   Max. Number of Micro iterations      ....    24
   Max. Number of Macro iterations      .... Maxiter - #DIIS iter
   Number of Davidson start vectors     ....     2
   Converg. threshold    (grad. norm)   ....   1.000e-05
   Grad. Scal. Fac. for Micro threshold ....   0.100
   Minimum threshold for Micro iter.    ....   1.000e-02
   NR start threshold (gradient norm)   ....   1.000e-04
   Initial trust radius                 ....   0.400
   Minimum AH scaling param. (alpha)    ....   1.000
   Maximum AH scaling param. (alpha)    .... 1000.000
   Quad. conv. algorithm                .... NR
   White noise on init. David. guess    .... on
   Maximum white noise                  ....   0.010
   Pseudo random numbers                .... off
   Inactive MOs                         .... canonical
   Orbital update algorithm             .... Taylor
   Preconditioner                       .... Diag
   Full preconditioner red. dimension   ....   250
 SOSCF                 CNVSOSCF           .... on
   Start iteration     SOSCFMaxIt         ....   150
   Startup grad/error  SOSCFStart         ....  0.003300
   Hessian update      SOSCFHessUp        .... L-BFGS
   Autom. constraints  SOSCFAutoConstrain .... off
 Level Shifting         CNVShift        .... on
   Level shift para.    LevelShift      ....    0.2500
   Turn off err/grad.   ShiftErr        ....    0.0010
 Zerner damping         CNVZerner       .... off
 Static damping         CNVDamp         .... on
   Fraction old density DampFac         ....    0.7000
   Max. Damping (<1)    DampMax         ....    0.9800
   Min. Damping (>=0)   DampMin         ....    0.0000
   Turn off err/grad.   DampErr         ....    0.1000

SCF Procedure:
 Maximum # iterations   MaxIter         ....   125
 SCF integral mode      SCFMode         .... Direct
   Integral package                     .... SHARK and LIBINT hybrid scheme
 Reset frequency        DirectResetFreq ....    20
 Integral Threshold     Thresh          ....  2.500e-11 Eh
 Primitive CutOff       TCut            ....  2.500e-12 Eh

Convergence Tolerance:
 Convergence Check Mode ConvCheckMode   .... Total+1el-Energy
 Convergence forced     ConvForced      .... 0
 Energy Change          TolE            ....  1.000e-08 Eh
 1-El. energy change                    ....  1.000e-05 Eh
 Orbital Gradient       TolG            ....  1.000e-05
 Orbital Rotation angle TolX            ....  1.000e-05
 DIIS Error             TolErr          ....  5.000e-07

------------------------------
INITIAL GUESS: MODEL POTENTIAL
------------------------------
Loading Hartree-Fock densities                     ... done
Calculating cut-offs                               ... done
Initializing the effective Hamiltonian             ... done
Setting up the integral package (SHARK)            ... done
Starting the Coulomb interaction                   ... done (   0.0 sec)
Making the grid                                    ... done (   0.0 sec)
Mapping shells                                     ... done
Starting the XC term evaluation                    ... done (   0.0 sec)
  promolecular density results
     # of electrons  =     39.997266251
     EX              =    -34.198705364
     EC              =     -1.792989310
     EX+EC           =    -35.991694674
Transforming the Hamiltonian                       ... done (   0.0 sec)
Diagonalizing the Hamiltonian                      ... done (   0.0 sec)
Back transforming the eigenvectors                 ... done (   0.0 sec)
Now organizing SCF variables                       ... done
                      ------------------
                      INITIAL GUESS DONE (   0.1 sec)
                      ------------------
             **** ENERGY FILE WAS UPDATED (0.en.tmp) ****
Finished Guess after   0.1 sec
Maximum memory used throughout the entire GUESS-calculation: 8.2 MB

-------------------------------------------------------------------------------------------
                                      ORCA LEAN-SCF
                              memory conserving SCF solver
-------------------------------------------------------------------------------------------

----------------------------------------D-I-I-S--------------------------------------------
Iteration    Energy (Eh)           Delta-E    RMSDP     MaxDP     DIISErr   Damp  Time(sec)
-------------------------------------------------------------------------------------------
               ***  Starting incremental Fock matrix formation  ***
    1    -284.0210801899115154     0.00e+00  5.95e-03  1.09e-01  2.62e-01  0.700   0.2
    2    -284.1366600704752727    -1.16e-01  3.56e-03  5.75e-02  9.50e-02  0.700   0.1
                               ***Turning on AO-DIIS***
    3    -284.1692966605687047    -3.26e-02  1.24e-03  1.42e-02  2.56e-02  0.700   0.1
    4    -284.1918663671193599    -2.26e-02  1.59e-03  1.66e-02  1.75e-02  0.000   0.1
    5    -284.2452569691564577    -5.34e-02  5.99e-04  6.73e-03  9.99e-03  0.000   0.1
    6    -284.2457921607352773    -5.35e-04  2.14e-04  2.20e-03  3.33e-03  0.000   0.1
                              *** Initializing SOSCF ***
---------------------------------------S-O-S-C-F--------------------------------------
Iteration    Energy (Eh)           Delta-E    RMSDP     MaxDP     MaxGrad    Time(sec)
--------------------------------------------------------------------------------------
    7    -284.2458347613497835    -4.26e-05  7.94e-05  9.06e-04  1.16e-03     0.1
               *** Restarting incremental Fock matrix formation ***
    8    -284.2458406925909458    -5.93e-06  5.32e-05  7.08e-04  1.30e-04     0.2
    9    -284.2458409089431370    -2.16e-07  2.49e-05  3.45e-04  2.03e-04     0.1
   10    -284.2458411231371542    -2.14e-07  2.46e-05  3.49e-04  1.92e-04     0.1
   11    -284.2458412141374424    -9.10e-08  1.14e-05  1.52e-04  8.61e-05     0.1
   12    -284.2458413095544643    -9.54e-08  9.36e-06  1.12e-04  3.60e-05     0.1
   13    -284.2458413260316092    -1.65e-08  2.93e-06  4.48e-05  2.07e-05     0.1
   14    -284.2458413333972658    -7.37e-09  2.33e-06  2.34e-05  1.09e-05     0.1
                 **** Energy Check signals convergence ****

               *****************************************************
               *                     SUCCESS                       *
               *           SCF CONVERGED AFTER  14 CYCLES          *
               *****************************************************

             **** ENERGY FILE WAS UPDATED (0.en.tmp) ****

----------------
TOTAL SCF ENERGY
----------------

Total Energy       :       -284.24584133644396 Eh           -7734.72257 eV

Components:
Nuclear Repulsion  :        179.91576406327272 Eh            4895.75684 eV
Electronic Energy  :       -464.16160539971668 Eh          -12630.47940 eV
One Electron Energy:       -744.39314654206032 Eh          -20255.96731 eV
Two Electron Energy:        280.23154114234364 Eh            7625.48791 eV

Virial components:
Potential Energy   :       -567.03400843220311 Eh          -15429.77980 eV
Kinetic Energy     :        282.78816709575921 Eh            7695.05724 eV
Virial Ratio       :          2.00515465076087

DFT components:
N(Alpha)           :       19.999999580536 electrons
N(Beta)            :       19.999999580536 electrons
N(Total)           :       39.999999161072 electrons
E(X)               :      -34.933720546307 Eh       
E(C)               :       -1.782776717544 Eh       
E(XC)              :      -36.716497263851 Eh       

---------------
SCF CONVERGENCE
---------------

  Last Energy change         ...    7.3657e-09  Tolerance :   1.0000e-08
  Last MAX-Density change    ...    2.3385e-05  Tolerance :   1.0000e-07
  Last RMS-Density change    ...    2.3251e-06  Tolerance :   5.0000e-09
  Last DIIS Error            ...    1.1577e-03  Tolerance :   5.0000e-07
  Last Orbital Gradient      ...    1.0942e-05  Tolerance :   1.0000e-05
  Last Orbital Rotation      ...    2.3833e-05  Tolerance :   1.0000e-05


----------------
ORBITAL ENERGIES
----------------

  NO   OCC          E(Eh)            E(eV) 
   0   2.0000     -18.814408      -511.9661 
   1   2.0000     -18.755116      -510.3526 
   2   2.0000     -13.988539      -380.6475 
   3   2.0000     -10.029720      -272.9226 
   4   2.0000      -9.945454      -270.6296 
   5   2.0000      -1.021250       -27.7896 
   6   2.0000      -0.933287       -25.3960 
   7   2.0000      -0.810970       -22.0676 
   8   2.0000      -0.651912       -17.7394 
   9   2.0000      -0.551078       -14.9956 
  10   2.0000      -0.457082       -12.4378 
  11   2.0000      -0.442833       -12.0501 
  12   2.0000      -0.420248       -11.4355 
  13   2.0000      -0.392164       -10.6713 
  14   2.0000      -0.377212       -10.2645 
  15   2.0000      -0.339005        -9.2248 
  16   2.0000      -0.328174        -8.9301 
  17   2.0000      -0.275431        -7.4949 
  18   2.0000      -0.227686        -6.1956 
  19   2.0000      -0.196493        -5.3468 
  20   0.0000      -0.015892        -0.4324 
  21   0.0000       0.052233         1.4213 
  22   0.0000       0.068559         1.8656 
  23   0.0000       0.117235         3.1901 
  24   0.0000       0.121628         3.3097 
  25   0.0000       0.172154         4.6846 
  26   0.0000       0.197217         5.3665 
  27   0.0000       0.207183         5.6377 
  28   0.0000       0.279731         7.6119 
  29   0.0000       0.340490         9.2652 
  30   0.0000       0.505565        13.7571 
*Only the first 10 virtual orbitals were printed.

                    ********************************
                    * MULLIKEN POPULATION ANALYSIS *
                    ********************************

-----------------------
MULLIKEN ATOMIC CHARGES
-----------------------
   0 C :   -0.160722
   1 C :    0.475163
   2 H :    0.246694
   3 H :    0.246751
   4 N :   -0.554469
   5 O :   -0.451487
   6 H :    0.145444
   7 H :    0.145409
   8 H :    0.318970
   9 O :   -0.411752
Sum of atomic charges:   -0.0000000

--------------------------------
MULLIKEN REDUCED ORBITAL CHARGES
--------------------------------
  0 C s       :     3.213545  s :     3.213545
      pz      :     0.977008  p :     2.896527
      px      :     1.053769
      py      :     0.865750
      dz2     :     0.005381  d :     0.050651
      dxz     :     0.008197
      dyz     :     0.016266
      dx2y2   :     0.011688
      dxy     :     0.009119

  1 C s       :     2.985918  s :     2.985918
      pz      :     0.854462  p :     2.414138
      px      :     0.779456
      py      :     0.780220
      dz2     :     0.031412  d :     0.124781
      dxz     :     0.021511
      dyz     :     0.040566
      dx2y2   :     0.015024
      dxy     :     0.016268

  2 H s       :     0.729413  s :     0.729413
      pz      :     0.007837  p :     0.023894
      px      :     0.010614
      py      :     0.005443

  3 H s       :     0.729356  s :     0.729356
      pz      :     0.009446  p :     0.023893
      px      :     0.006854
      py      :     0.007594

  4 N s       :     3.583727  s :     3.583727
      pz      :     1.511421  p :     3.942249
      px      :     1.144078
      py      :     1.286750
      dz2     :     0.003574  d :     0.028493
      dxz     :     0.009471
      dyz     :     0.004500
      dx2y2   :     0.006051
      dxy     :     0.004896

  5 O s       :     3.820260  s :     3.820260
      pz      :     1.578834  p :     4.608634
      px      :     1.709499
      py      :     1.320301
      dz2     :     0.004637  d :     0.022593
      dxz     :     0.002896
      dyz     :     0.008375
      dx2y2   :     0.003373
      dxy     :     0.003311

  6 H s       :     0.843426  s :     0.843426
      pz      :     0.003470  p :     0.011130
      px      :     0.005660
      py      :     0.002000

  7 H s       :     0.843460  s :     0.843460
      pz      :     0.004605  p :     0.011131
      px      :     0.003691
      py      :     0.002835

  8 H s       :     0.643087  s :     0.643087
      pz      :     0.016395  p :     0.037943
      px      :     0.009157
      py      :     0.012391

  9 O s       :     3.854796  s :     3.854796
      pz      :     1.381692  p :     4.528822
      px      :     1.447404
      py      :     1.699726
      dz2     :     0.009339  d :     0.028135
      dxz     :     0.009201
      dyz     :     0.007429
      dx2y2   :     0.001228
      dxy     :     0.000938



                     *******************************
                     * LOEWDIN POPULATION ANALYSIS *
                     *******************************

----------------------
LOEWDIN ATOMIC CHARGES
----------------------
   0 C :   -0.101914
   1 C :    0.096085
   2 H :    0.128631
   3 H :    0.128655
   4 N :   -0.252128
   5 O :   -0.143186
   6 H :    0.091380
   7 H :    0.091378
   8 H :    0.182067
   9 O :   -0.220968

-------------------------------
LOEWDIN REDUCED ORBITAL CHARGES
-------------------------------
  0 C s       :     2.895757  s :     2.895757
      pz      :     1.043746  p :     3.092767
      px      :     1.073956
      py      :     0.975064
      dz2     :     0.011942  d :     0.113390
      dxz     :     0.017398
      dyz     :     0.039856
      dx2y2   :     0.024851
      dxy     :     0.019344

  1 C s       :     2.858364  s :     2.858364
      pz      :     1.041153  p :     2.746743
      px      :     0.807080
      py      :     0.898510
      dz2     :     0.077569  d :     0.298808
      dxz     :     0.047145
      dyz     :     0.101038
      dx2y2   :     0.034353
      dxy     :     0.038703

  2 H s       :     0.792716  s :     0.792716
      pz      :     0.024751  p :     0.078653
      px      :     0.038083
      py      :     0.015819

  3 H s       :     0.792685  s :     0.792685
      pz      :     0.033037  p :     0.078660
      px      :     0.022072
      py      :     0.023551

  4 N s       :     3.195007  s :     3.195007
      pz      :     1.512739  p :     3.999415
      px      :     1.170768
      py      :     1.315908
      dz2     :     0.005836  d :     0.057706
      dxz     :     0.015744
      dyz     :     0.008465
      dx2y2   :     0.014987
      dxy     :     0.012674

  5 O s       :     3.471292  s :     3.471292
      pz      :     1.582302  p :     4.621166
      px      :     1.686287
      py      :     1.352577
      dz2     :     0.008394  d :     0.050729
      dxz     :     0.003886
      dyz     :     0.018890
      dx2y2   :     0.009819
      dxy     :     0.009740

  6 H s       :     0.869202  s :     0.869202
      pz      :     0.011427  p :     0.039418
      px      :     0.021801
      py      :     0.006190

  7 H s       :     0.869200  s :     0.869200
      pz      :     0.016728  p :     0.039422
      px      :     0.013187
      py      :     0.009508

  8 H s       :     0.702179  s :     0.702179
      pz      :     0.052999  p :     0.115754
      px      :     0.025849
      py      :     0.036906

  9 O s       :     3.554699  s :     3.554699
      pz      :     1.482915  p :     4.608201
      px      :     1.438965
      py      :     1.686321
      dz2     :     0.024740  d :     0.058067
      dxz     :     0.015195
      dyz     :     0.014451
      dx2y2   :     0.001852
      dxy     :     0.001830



                      *****************************
                      * MAYER POPULATION ANALYSIS *
                      *****************************

  NA   - Mulliken gross atomic population
  ZA   - Total nuclear charge
  QA   - Mulliken gross atomic charge
  VA   - Mayer's total valence
  BVA  - Mayer's bonded valence
  FA   - Mayer's free valence

  ATOM       NA         ZA         QA         VA         BVA        FA
  0 C      6.1607     6.0000    -0.1607     3.8579     3.8579     0.0000
  1 C      5.5248     6.0000     0.4752     3.9718     3.9718    -0.0000
  2 H      0.7533     1.0000     0.2467     0.9215     0.9215    -0.0000
  3 H      0.7532     1.0000     0.2468     0.9216     0.9216    -0.0000
  4 N      7.5545     7.0000    -0.5545     2.9177     2.9177    -0.0000
  5 O      8.4515     8.0000    -0.4515     2.0278     2.0278    -0.0000
  6 H      0.8546     1.0000     0.1454     0.9467     0.9467     0.0000
  7 H      0.8546     1.0000     0.1454     0.9468     0.9468     0.0000
  8 H      0.6810     1.0000     0.3190     0.9162     0.9162     0.0000
  9 O      8.4118     8.0000    -0.4118     2.1226     2.1226    -0.0000

  Mayer bond orders larger than 0.100000
B(  0-C ,  1-C ) :   0.9055 B(  0-C ,  4-N ) :   1.0697 B(  0-C ,  6-H ) :   0.9335 
B(  0-C ,  7-H ) :   0.9336 B(  1-C ,  5-O ) :   1.0870 B(  1-C ,  9-O ) :   1.9446 
B(  2-H ,  4-N ) :   0.9090 B(  3-H ,  4-N ) :   0.9089 B(  5-O ,  8-H ) :   0.8510 


-------
TIMINGS
-------

Total SCF time: 0 days 0 hours 0 min 2 sec 

Total time                  ....       2.119 sec
Sum of individual times     ....       1.960 sec  ( 92.5%)

SCF preparation             ....       0.022 sec  (  1.0%)
Fock matrix formation       ....       1.921 sec  ( 90.7%)
  Startup                   ....       0.000 sec  (  0.0% of F)
  Split-RI-J                ....       0.429 sec  ( 22.3% of F)
  XC integration            ....       1.614 sec  ( 84.0% of F)
    XC Preparation          ....       0.000 sec  (  0.0% of XC)
    Basis function eval.    ....       0.550 sec  ( 34.1% of XC)
    Density eval.           ....       0.279 sec  ( 17.3% of XC)
    XC-Functional eval.     ....       0.427 sec  ( 26.4% of XC)
    XC-Potential eval.      ....       0.310 sec  ( 19.2% of XC)
Diagonalization             ....       0.000 sec  (  0.0%)
Density matrix formation    ....       0.002 sec  (  0.1%)
Total Energy calculation    ....       0.000 sec  (  0.0%)
Population analysis         ....       0.001 sec  (  0.0%)
Orbital Transformation      ....       0.001 sec  (  0.1%)
Orbital Orthonormalization  ....       0.000 sec  (  0.0%)
DIIS solution               ....       0.007 sec  (  0.3%)
SOSCF solution              ....       0.005 sec  (  0.2%)
Finished LeanSCF after   2.1 sec

Maximum memory used throughout the entire LEANSCF-calculation: 10.2 MB



-------------------------------------------------------------------------------
                          DFT DISPERSION CORRECTION                            
-------------------------------------------------------------------------------
Active option DFTDOPT                   ...         2   
Final C6-coefficient scaling factor     ...     1.250
Final VDW-radii scaling factor          ...     1.100
Damping factor alpha                    ...    20.000
-------------------------   ----------------
Dispersion correction           -0.007274844
-------------------------   ----------------


-------------------------   --------------------
FINAL SINGLE POINT ENERGY      -284.253116179976
-------------------------   --------------------

------------------------------------------------------------------------------
                         ORCA SCF GRADIENT CALCULATION
------------------------------------------------------------------------------

Nuc. rep. gradient        (SHARK) ... done (  0.0 sec)
HCore & Overlap gradient  (SHARK) ... done (  0.0 sec)
Split-RIJ-J gradient      (SHARK) ... done (  0.2 sec)
XC gradient                       ... done (  0.7 sec)
Dispersion correction             ... done (  0.0 sec)

-------------------
DISPERSION GRADIENT
-------------------

   1   C   :   -0.000167218    0.000162786    0.000612286
   2   C   :    0.000138169   -0.000023379   -0.000779881
   3   H   :   -0.000215902    0.000811804    0.000019704
   4   H   :   -0.000415837    0.000728730   -0.000014498
   5   N   :    0.000414486   -0.000955695   -0.000144538
   6   O   :    0.000051715   -0.000299852    0.000429883
   7   H   :   -0.000637161   -0.000160833   -0.000245627
   8   H   :    0.000609277    0.000347654   -0.000040513
   9   H   :   -0.000146195    0.000260201    0.000247329
  10   O   :    0.000368666   -0.000871415   -0.000084147

Difference to translation invariance:
           :   -0.0000000000    0.0000000000   -0.0000000000

Difference to rotation invariance:
           :   -0.0000000000   -0.0000000000    0.0000000000

Norm of the Dispersion gradient    ...    0.0024267973
RMS gradient                       ...    0.0004430705
MAX gradient                       ...    0.0009556949

------------------
CARTESIAN GRADIENT
------------------

   1   C   :    0.001742064   -0.003977863   -0.001060464
   2   C   :   -0.000910715   -0.000531977    0.007834269
   3   H   :    0.001235138    0.001109455   -0.003378622
   4   H   :   -0.000654013    0.000298495   -0.003682426
   5   N   :    0.002136940   -0.008430585    0.008031820
   6   O   :   -0.010696423    0.018280838    0.019647627
   7   H   :   -0.003826680    0.001165110    0.003974019
   8   H   :    0.000712681    0.002989920    0.004704884
   9   H   :    0.001894169   -0.002338887   -0.005766127
  10   O   :    0.008366841   -0.008564507   -0.030304980

Difference to translation invariance:
           :    0.0000000000    0.0000000000    0.0000000000

Difference to rotation invariance:
           :   -0.0000050569   -0.0000574549   -0.0000201282

Norm of the Cartesian gradient     ...    0.0474650723
RMS gradient                       ...    0.0086658969
MAX gradient                       ...    0.0303049804

-------
TIMINGS
-------

Total SCF gradient time     ....        0.834 sec

Densities                   ....       0.000 sec  (  0.0%)
One electron gradient       ....       0.022 sec  (  2.6%)
RI-J Coulomb gradient       ....       0.151 sec  ( 18.1%)
XC gradient                 ....       0.661 sec  ( 79.3%)

Maximum memory used throughout the entire SCFGRAD-calculation: 13.4 MB
------------------------------------------------------------------------------
                         ORCA GEOMETRY RELAXATION STEP
------------------------------------------------------------------------------

Reading the OPT-File                    .... done
Getting information on internals        .... done
Copying old internal coords+grads       .... done
Making the new internal coordinates     .... (2022 redundants) done
Validating the new internal coordinates .... (2022 redundants) done
Calculating the B-matrix                .... done
Calculating the G,G- and P matrices     .... done
Transforming gradient to internals      .... done
Projecting the internal gradient        .... done
Number of atoms                         ....  10
Number of internal coordinates          ....  34
Current Energy                          ....  -284.253116180 Eh
Current gradient norm                   ....     0.047465072 Eh/bohr
Maximum allowed component of the step   ....  0.300
Current trust radius                    ....  0.300
Evaluating the initial hessian          ....  (Almloef) done
Projecting the Hessian                  .... done
Forming the augmented Hessian           .... done
Diagonalizing the augmented Hessian     .... done
Last element of RFO vector              ....  0.996478935
Lowest eigenvalues of augmented Hessian:
 -0.002964708  0.011195806  0.017767948  0.017800068  0.034272354
Length of the computed step             ....  0.084139759
The final length of the internal step   ....  0.084139759
Converting the step to Cartesian space:
 Initial RMS(Int)=    0.0144298496
Transforming coordinates:
 Iter   0:  RMS(Cart)=    0.0167695733 RMS(Int)=    1.0772103335
done
Storing new coordinates                 .... done

                                .--------------------.
          ----------------------|Geometry convergence|-------------------------
          Item                value                   Tolerance       Converged
          ---------------------------------------------------------------------
          RMS gradient        0.0076150536            0.0001000000      NO
          MAX gradient        0.0325330165            0.0003000000      NO
          RMS step            0.0144298496            0.0020000000      NO
          MAX step            0.0312843724            0.0040000000      NO
          -------------------------------------------------------------------------
          ........................................................
          Max(Bonds)      0.0166      Max(Angles)    1.62
          Max(Dihed)        1.33      Max(Improp)    0.00
          ---------------------------------------------------------------------

The optimization has not yet converged - more geometry cycles are needed


    ---------------------------------------------------------------------------
                         Redundant Internal Coordinates
                            (Angstroem and degrees)

        Definition                    Value    dE/dq     Step     New-Value
    ----------------------------------------------------------------------------
     1. B(C   1,C   0)                1.5198 -0.011066  0.0150    1.5348   
     2. B(N   4,H   2)                1.0153 -0.002716  0.0034    1.0187   
     3. B(N   4,C   0)                1.4456 -0.007040  0.0081    1.4537   
     4. B(N   4,H   3)                1.0154 -0.002731  0.0034    1.0187   
     5. B(O   5,C   1)                1.3376 -0.021318  0.0166    1.3541   
     6. B(H   6,C   0)                1.0940 -0.004940  0.0073    1.1014   
     7. B(H   7,C   0)                1.0940 -0.004932  0.0073    1.1013   
     8. B(H   8,O   5)                0.9708 -0.002920  0.0031    0.9739   
     9. B(O   9,C   1)                1.2020 -0.032533  0.0154    1.2173   
    10. A(N   4,C   0,H   7)          109.34 -0.000749    0.21    109.55   
    11. A(C   1,C   0,H   7)          108.14  0.001473   -0.18    107.96   
    12. A(C   1,C   0,N   4)          114.15 -0.003226    0.73    114.88   
    13. A(H   6,C   0,H   7)          107.55  0.001780   -0.90    106.65   
    14. A(C   1,C   0,H   6)          108.13  0.001389   -0.17    107.96   
    15. A(N   4,C   0,H   6)          109.32 -0.000346    0.21    109.53   
    16. A(C   0,C   1,O   9)          124.62 -0.000699    0.13    124.75   
    17. A(C   0,C   1,O   5)          112.28  0.005572   -0.74    111.54   
    18. A(O   5,C   1,O   9)          123.10 -0.004873    0.61    123.71   
    19. A(C   0,N   4,H   3)          109.86  0.001502   -0.55    109.31   
    20. A(C   0,N   4,H   2)          109.87  0.001562   -0.56    109.31   
    21. A(H   2,N   4,H   3)          106.67  0.000833   -0.85    105.82   
    22. A(C   1,O   5,H   8)          110.61  0.010666   -1.62    108.99   
    23. D(O   5,C   1,C   0,N   4)    179.89 -0.000070    0.00    179.89   
    24. D(O   9,C   1,C   0,N   4)     -0.06  0.000661   -0.32     -0.38   
    25. D(O   9,C   1,C   0,H   6)    121.84 -0.000910    0.31    122.15   
    26. D(O   5,C   1,C   0,H   6)    -58.21 -0.001641    0.63    -57.58   
    27. D(O   5,C   1,C   0,H   7)     57.96  0.001958   -0.61     57.35   
    28. D(H   2,N   4,C   0,H   6)   -179.89 -0.000569    0.36   -179.53   
    29. D(H   2,N   4,C   0,C   1)    -58.64 -0.001230    0.79    -57.86   
    30. D(H   3,N   4,C   0,H   6)    -62.83  0.002253   -1.33    -64.17   
    31. D(H   3,N   4,C   0,C   1)     58.41  0.001591   -0.91     57.50   
    32. D(H   2,N   4,C   0,H   7)     62.62 -0.002084    1.20     63.83   
    33. D(H   8,O   5,C   1,O   9)     -0.03 -0.000363    0.16      0.13   
    34. D(H   8,O   5,C   1,C   0)   -179.98  0.000353   -0.15   -180.13   
    ----------------------------------------------------------------------------

Geometry step timings:
Preparation and reading OPT file:      0.000 s ( 3.016 %)
Internal coordinates            :      0.000 s ( 1.856 %)
B/P matrices and projection     :      0.000 s (30.162 %)
Hessian update/contruction      :      0.000 s (12.297 %)
Making the step                 :      0.000 s (23.666 %)
Converting the step to Cartesian:      0.000 s ( 4.408 %)
Storing new data                :      0.000 s ( 3.016 %)
Checking convergence            :      0.000 s ( 2.552 %)
Final printing                  :      0.000 s (19.026 %)
Total time                      :      0.000 s

Time for energy+gradient        :      3.289 s
Time for complete geometry iter :      3.305 s

         *************************************************************
         *                GEOMETRY OPTIMIZATION CYCLE   2            *
         *************************************************************
---------------------------------
CARTESIAN COORDINATES (ANGSTROEM)
---------------------------------
  C     -4.979853   -1.318177   -0.152394
  C     -4.783099   -2.276811    1.029954
  H     -6.464876   -0.180592    0.641590
  H     -4.977847    0.425501    0.891401
  N     -5.562186   -0.031933    0.193457
  O     -4.240168   -3.451825    0.632199
  H     -3.999679   -1.162152   -0.629771
  H     -5.616258   -1.822680   -0.896268
  H     -4.129988   -4.028989    1.408903
  O     -5.070333   -2.022027    2.185158

----------------------------
CARTESIAN COORDINATES (A.U.)
----------------------------
  NO LB      ZA    FRAG     MASS         X           Y           Z
   0 C     6.0000    0    12.011   -9.410559   -2.490994   -0.287983
   1 C     6.0000    0    12.011   -9.038748   -4.302549    1.946330
   2 H     1.0000    0     1.008  -12.216845   -0.341269    1.212429
   3 H     1.0000    0     1.008   -9.406768    0.804080    1.684504
   4 N     7.0000    0    14.007  -10.511008   -0.060344    0.365580
   5 O     8.0000    0    15.999   -8.012757   -6.523003    1.194683
   6 H     1.0000    0     1.008   -7.558299   -2.196149   -1.190094
   7 H     1.0000    0     1.008  -10.613189   -3.444367   -1.693701
   8 H     1.0000    0     1.008   -7.804547   -7.613686    2.662440
   9 O     8.0000    0    15.999   -9.581540   -3.821077    4.129349

--------------------------------
INTERNAL COORDINATES (ANGSTROEM)
--------------------------------
 C      0   0   0     0.000000000000     0.00000000     0.00000000
 C      1   0   0     1.534808375550     0.00000000     0.00000000
 H      1   2   0     2.032192035454    98.18298504     0.00000000
 H      3   1   2     1.625118030413    66.43275159    93.42074623
 N      3   1   2     1.018710791290    42.46352216   129.09859242
 O      2   1   3     1.354119543181   111.53682531   156.02064489
 H      1   2   3     1.101350487494   107.95698168   146.39951400
 H      1   2   3     1.101309419879   107.95608565   261.33009261
 H      6   2   1     0.973923132861   108.98608022   179.86804934
 O      2   1   3     1.217338875659   124.75455481   335.75079625

---------------------------
INTERNAL COORDINATES (A.U.)
---------------------------
 C      0   0   0     0.000000000000     0.00000000     0.00000000
 C      1   0   0     2.900367497839     0.00000000     0.00000000
 H      1   2   0     3.840286398544    98.18298504     0.00000000
 H      3   1   2     3.071028012778    66.43275159    93.42074623
 N      3   1   2     1.925084405208    42.46352216   129.09859242
 O      2   1   3     2.558915089203   111.53682531   156.02064489
 H      1   2   3     2.081250798824   107.95698168   146.39951400
 H      1   2   3     2.081173192279   107.95608565   261.33009261
 H      6   2   1     1.840447996598   108.98608022   179.86804934
 O      2   1   3     2.300437087172   124.75455481   335.75079625

------------------------------------------------------------------------------
                   ___                                                        
                  /   \      - P O W E R E D   B Y -                         
                 /     \                                                     
                 |  |  |   _    _      __       _____    __    __             
                 |  |  |  | |  | |    /  \     |  _  \  |  |  /  |          
                  \  \/   | |  | |   /    \    | | | |  |  | /  /          
                 / \  \   | |__| |  /  /\  \   | |_| |  |  |/  /          
                |  |  |   |  __  | /  /__\  \  |    /   |      \           
                |  |  |   | |  | | |   __   |  |    \   |  |\   \          
                \     /   | |  | | |  |  |  |  | |\  \  |  | \   \       
                 \___/    |_|  |_| |__|  |__|  |_| \__\ |__|  \__/        
                                                                              
                      - O R C A' S   B I G   F R I E N D -                    
                                      &                                       
                       - I N T E G R A L  F E E D E R -                       
                                                                              
 v1 FN, 2020, v2 2021, v3 2022-2024                                           
------------------------------------------------------------------------------


----------------------
SHARK INTEGRAL PACKAGE
----------------------

Number of atoms                             ...     10
Number of basis functions                   ...     95
Number of shells                            ...     45
Maximum angular momentum                    ...      2
Integral batch strategy                     ... SHARK/LIBINT Hybrid
RI-J (if used) integral strategy            ... SPLIT-RIJ (Revised 2003 algorithm where possible)
Printlevel                                  ...      1
Contraction scheme used                     ... SEGMENTED contraction
Prescreening option                         ... SCHWARTZ
   Thresh                                   ... 2.500e-11
   Tcut                                     ... 2.500e-12
   Tpresel                                  ... 2.500e-12 
Coulomb Range Separation                    ... NOT USED
Exchange Range Separation                   ... NOT USED
Multipole approximations                    ... NOT USED
Finite Nucleus Model                        ... NOT USED
CABS basis                                  ... NOT available
Auxiliary Coulomb fitting basis             ... AVAILABLE
   # of basis functions in Aux-J            ...    300
   # of shells in Aux-J                     ...    100
   Maximum angular momentum in Aux-J        ...      4
Auxiliary J/K fitting basis                 ... NOT available
Auxiliary Correlation fitting basis         ... NOT available
Auxiliary 'external' fitting basis          ... NOT available

Checking pre-screening integrals            ... done (  0.0 sec) Dimension = 45
   => SHARK Basis and OBASIS are compatible. Storing Pre-screening
Shell pair information
Shell pair cut-off parameter TPreSel        ...   2.5e-12
Total number of shell pairs                 ...      1035
Shell pairs after pre-screening             ...      1003
Total number of primitive shell pairs       ...      5170
Primitive shell pairs kept                  ...      3737
          la=0 lb=0:    314 shell pairs
          la=1 lb=0:    360 shell pairs
          la=1 lb=1:    117 shell pairs
          la=2 lb=0:    123 shell pairs
          la=2 lb=1:     74 shell pairs
          la=2 lb=2:     15 shell pairs

Checking whether 4 symmetric matrices of dimension 95 fit in memory
:Max Core in MB      =   4096.00
 MB in use           =      4.77
 MB left             =   4091.23
 MB needed           =      0.14
 Data fit in memory  = YES
Calculating RI/J V-Matrix + Cholesky decomp.... done (  0.0 sec)
Calculating Nuclear repulsion               ... done (  0.0 sec) ENN=    178.196419337216 Eh

Diagonalization of the overlap matrix:
Smallest eigenvalue                        ... 4.670e-03
Time for diagonalization                   ...    0.001 sec
Threshold for overlap eigenvalues          ... 1.000e-07
Number of eigenvalues below threshold      ... 0
Time for construction of square roots      ...    0.000 sec
Total time needed                          ...    0.001 sec

-------------------
DFT GRID GENERATION
-------------------

General Integration Accuracy     IntAcc      ... 4.388
Radial Grid Type                 RadialGrid  ... OptM3 with GC (2021)
Angular Grid (max. ang.)         AngularGrid ... 4 (Lebedev-302)
Angular grid pruning method      GridPruning ... 4 (adaptive)
Weight generation scheme         WeightScheme... mBecke (2022)
Basis function cutoff            BFCut       ... 1.0000e-11
Integration weight cutoff        WCut        ... 1.0000e-14
Partially contracted basis set               ... off
Rotationally invariant grid construction     ... off
Angular grids for H and He will be reduced by one unit

Total number of grid points                  ...    46651
Total number of batches                      ...      735
Average number of points per batch           ...       63
Average number of grid points per atom       ...     4665
Grids setup in   0.1 sec
Initializing property integral containers    ... done (  0.0 sec)

SHARK setup successfully completed in   0.2 seconds

Maximum memory used throughout the entire STARTUP-calculation: 19.9 MB
Occupation numbers will be reassigned to an Aufbau configuration
             **** ENERGY FILE WAS UPDATED (0.en.tmp) ****
Finished Guess after   0.0 sec
Maximum memory used throughout the entire GUESS-calculation: 7.8 MB
----------------------------------------D-I-I-S--------------------------------------------
Iteration    Energy (Eh)           Delta-E    RMSDP     MaxDP     DIISErr   Damp  Time(sec)
-------------------------------------------------------------------------------------------
               ***  Starting incremental Fock matrix formation  ***
    1    -284.2472057256085236     0.00e+00  1.76e-04  2.30e-03  6.76e-03  0.700   0.2
    2    -284.2473522855398755    -1.47e-04  1.65e-04  2.36e-03  4.71e-03  0.700   0.1
                               ***Turning on AO-DIIS***
                              *** Initializing SOSCF ***
---------------------------------------S-O-S-C-F--------------------------------------
Iteration    Energy (Eh)           Delta-E    RMSDP     MaxDP     MaxGrad    Time(sec)
--------------------------------------------------------------------------------------
    3    -284.2474548563328085    -1.03e-04  4.30e-04  6.18e-03  3.10e-03     0.1
               *** Restarting incremental Fock matrix formation ***
    4    -284.2476864216853301    -2.32e-04  1.03e-04  1.76e-03  4.00e-04     0.1
    5    -284.2476757208290223     1.07e-05  7.70e-05  1.83e-03  1.40e-03     0.1
    6    -284.2476889357297409    -1.32e-05  5.02e-05  7.17e-04  2.76e-04     0.1
    7    -284.2476878419569175     1.09e-06  3.07e-05  4.89e-04  2.89e-04     0.1
    8    -284.2476897041896109    -1.86e-06  8.19e-06  1.88e-04  4.98e-05     0.1
    9    -284.2476896585081363     4.57e-08  5.20e-06  1.22e-04  9.13e-05     0.1
   10    -284.2476897253002335    -6.68e-08  8.62e-07  1.48e-05  3.56e-06     0.1
   11    -284.2476897247991019     5.01e-10  5.13e-07  8.63e-06  4.98e-06     0.1
                 **** Energy Check signals convergence ****

               *****************************************************
               *                     SUCCESS                       *
               *           SCF CONVERGED AFTER  11 CYCLES          *
               *****************************************************

             **** ENERGY FILE WAS UPDATED (0.en.tmp) ****

----------------
TOTAL SCF ENERGY
----------------

Total Energy       :       -284.24768972560986 Eh           -7734.77287 eV

Components:
Nuclear Repulsion  :        178.19641933721590 Eh            4848.97109 eV
Electronic Energy  :       -462.44410906282576 Eh          -12583.74395 eV
One Electron Energy:       -740.98045751850123 Eh          -20163.10332 eV
Two Electron Energy:        278.53634845567547 Eh            7579.35937 eV

Virial components:
Potential Energy   :       -566.86863867074487 Eh          -15425.27986 eV
Kinetic Energy     :        282.62094894513501 Eh            7690.50700 eV
Virial Ratio       :          2.00575591012112

DFT components:
N(Alpha)           :       19.999999399439 electrons
N(Beta)            :       19.999999399439 electrons
N(Total)           :       39.999998798877 electrons
E(X)               :      -34.891305131061 Eh       
E(C)               :       -1.781981243142 Eh       
E(XC)              :      -36.673286374203 Eh       

---------------
SCF CONVERGENCE
---------------

  Last Energy change         ...   -5.0113e-10  Tolerance :   1.0000e-08
  Last MAX-Density change    ...    8.6335e-06  Tolerance :   1.0000e-07
  Last RMS-Density change    ...    5.1304e-07  Tolerance :   5.0000e-09
  Last DIIS Error            ...    3.1015e-03  Tolerance :   5.0000e-07
  Last Orbital Gradient      ...    4.9773e-06  Tolerance :   1.0000e-05
  Last Orbital Rotation      ...    3.8754e-06  Tolerance :   1.0000e-05


Total SCF time: 0 days 0 hours 0 min 1 sec 
Finished LeanSCF after   1.7 sec

Maximum memory used throughout the entire LEANSCF-calculation: 10.3 MB



-------------------------------------------------------------------------------
                          DFT DISPERSION CORRECTION                            
-------------------------------------------------------------------------------
-------------------------   ----------------
Dispersion correction           -0.007280076
-------------------------   ----------------


-------------------------   --------------------
FINAL SINGLE POINT ENERGY      -284.254969801377
-------------------------   --------------------

------------------------------------------------------------------------------
                         ORCA SCF GRADIENT CALCULATION
------------------------------------------------------------------------------

Nuc. rep. gradient        (SHARK) ... done (  0.0 sec)
HCore & Overlap gradient  (SHARK) ... done (  0.0 sec)
Split-RIJ-J gradient      (SHARK) ... done (  0.1 sec)
XC gradient                       ... done (  0.7 sec)
Dispersion correction             ... done (  0.0 sec)

-------------------
DISPERSION GRADIENT
-------------------

   1   C   :   -0.000163464    0.000135035    0.000659886
   2   C   :    0.000138525    0.000004623   -0.000844463
   3   H   :   -0.000213646    0.000803378    0.000009462
   4   H   :   -0.000409264    0.000723686   -0.000026425
   5   N   :    0.000428384   -0.000949503   -0.000245838
   6   O   :    0.000030241   -0.000254945    0.000450853
   7   H   :   -0.000684016   -0.000149625   -0.000193157
   8   H   :    0.000619178    0.000380522    0.000022665
   9   H   :   -0.000132657    0.000231585    0.000238343
  10   O   :    0.000386720   -0.000924756   -0.000071325

Difference to translation invariance:
           :   -0.0000000000    0.0000000000    0.0000000000

Difference to rotation invariance:
           :   -0.0000000000   -0.0000000000   -0.0000000000

Norm of the Dispersion gradient    ...    0.0024909037
RMS gradient                       ...    0.0004547747
MAX gradient                       ...    0.0009495028

------------------
CARTESIAN GRADIENT
------------------

   1   C   :    0.000828242   -0.001085993   -0.000827388
   2   C   :    0.001391118   -0.003492604   -0.003743040
   3   H   :   -0.000148685    0.000885129   -0.001745814
   4   H   :   -0.000027247    0.000938656   -0.001717447
   5   N   :    0.000552239   -0.003026315    0.004203344
   6   O   :   -0.003878609    0.006686321    0.008273943
   7   H   :   -0.000123579    0.001070907    0.000846775
   8   H   :   -0.000868583    0.000669599    0.000799059
   9   H   :    0.001387398   -0.002255246   -0.002956319
  10   O   :    0.000887706   -0.000390454   -0.003133113

Difference to translation invariance:
           :    0.0000000000   -0.0000000000    0.0000000000

Difference to rotation invariance:
           :   -0.0000013230   -0.0000473295   -0.0000344788

Norm of the Cartesian gradient     ...    0.0149648615
RMS gradient                       ...    0.0027321974
MAX gradient                       ...    0.0082739435

-------
TIMINGS
-------

Total SCF gradient time     ....        0.826 sec

Densities                   ....       0.000 sec  (  0.0%)
One electron gradient       ....       0.022 sec  (  2.7%)
RI-J Coulomb gradient       ....       0.148 sec  ( 17.9%)
XC gradient                 ....       0.656 sec  ( 79.4%)

Maximum memory used throughout the entire SCFGRAD-calculation: 13.4 MB
------------------------------------------------------------------------------
                         ORCA GEOMETRY RELAXATION STEP
------------------------------------------------------------------------------

Reading the OPT-File                    .... done
Getting information on internals        .... done
Copying old internal coords+grads       .... done
Making the new internal coordinates     .... (2022 redundants) done
Validating the new internal coordinates .... (2022 redundants) done
Calculating the B-matrix                .... done
Calculating the G,G- and P matrices     .... done
Transforming gradient to internals      .... done
Projecting the internal gradient        .... done
Number of atoms                         ....  10
Number of internal coordinates          ....  34
Current Energy                          ....  -284.254969801 Eh
Current gradient norm                   ....     0.014964861 Eh/bohr
Maximum allowed component of the step   ....  0.300
Current trust radius                    ....  0.300
Updating the Hessian (BFGS)             .... done
Forming the augmented Hessian           .... done
Diagonalizing the augmented Hessian     .... done
Last element of RFO vector              ....  0.998033564
Lowest eigenvalues of augmented Hessian:
 -0.000530728  0.011195809  0.017767808  0.017818266  0.034272389
Length of the computed step             ....  0.062805275
The final length of the internal step   ....  0.062805275
Converting the step to Cartesian space:
 Initial RMS(Int)=    0.0107710158
Transforming coordinates:
 Iter   0:  RMS(Cart)=    0.0093379339 RMS(Int)=    1.0763140827
done
Storing new coordinates                 .... done
The predicted energy change is          ....    -0.000266411
Previously predicted energy change      ....    -0.001492848
Actually observed energy change         ....    -0.001853621
Ratio of predicted to observed change   ....     1.241667644
New trust radius                        ....     0.450000000

                                .--------------------.
          ----------------------|Geometry convergence|-------------------------
          Item                value                   Tolerance       Converged
          ---------------------------------------------------------------------
          Energy change      -0.0018536214            0.0000050000      NO
          RMS gradient        0.0019333342            0.0001000000      NO
          MAX gradient        0.0071307550            0.0003000000      NO
          RMS step            0.0107710158            0.0020000000      NO
          MAX step            0.0281510257            0.0040000000      NO
          -------------------------------------------------------------------------
          ........................................................
          Max(Bonds)      0.0081      Max(Angles)    1.61
          Max(Dihed)        1.22      Max(Improp)    0.00
          ---------------------------------------------------------------------

The optimization has not yet converged - more geometry cycles are needed


    ---------------------------------------------------------------------------
                         Redundant Internal Coordinates
                            (Angstroem and degrees)

        Definition                    Value    dE/dq     Step     New-Value
    ----------------------------------------------------------------------------
     1. B(C   1,C   0)                1.5348 -0.001571  0.0041    1.5389   
     2. B(N   4,H   2)                1.0187 -0.000764  0.0016    1.0203   
     3. B(N   4,C   0)                1.4537 -0.001038  0.0023    1.4560   
     4. B(N   4,H   3)                1.0187 -0.000771  0.0016    1.0203   
     5. B(O   5,C   1)                1.3541 -0.006405  0.0081    1.3623   
     6. B(H   6,C   0)                1.1014 -0.000327  0.0013    1.1026   
     7. B(H   7,C   0)                1.1013 -0.000343  0.0013    1.1026   
     8. B(H   8,O   5)                0.9739 -0.000865  0.0015    0.9754   
     9. B(O   9,C   1)                1.2173 -0.003265  0.0034    1.2207   
    10. A(N   4,C   0,H   7)          109.54 -0.000850    0.27    109.81   
[...]
----------------

Total Energy       :       -284.24807527284122 Eh           -7734.78336 eV

Components:
Nuclear Repulsion  :        177.81600815805052 Eh            4838.61957 eV
Electronic Energy  :       -462.06408343089174 Eh          -12573.40293 eV
One Electron Energy:       -740.18317095995940 Eh          -20141.40805 eV
Two Electron Energy:        278.11908752906766 Eh            7568.00512 eV

Virial components:
Potential Energy   :       -566.83485744184600 Eh          -15424.36063 eV
Kinetic Energy     :        282.58678216900472 Eh            7689.57727 eV
Virial Ratio       :          2.00587887760031

DFT components:
N(Alpha)           :       20.000001504382 electrons
N(Beta)            :       20.000001504382 electrons
N(Total)           :       40.000003008765 electrons
E(X)               :      -34.879219169347 Eh       
E(C)               :       -1.781850579762 Eh       
E(XC)              :      -36.661069749109 Eh       

---------------
SCF CONVERGENCE
---------------

  Last Energy change         ...    7.1421e-09  Tolerance :   1.0000e-08
  Last MAX-Density change    ...    5.1865e-05  Tolerance :   1.0000e-07
  Last RMS-Density change    ...    3.6772e-06  Tolerance :   5.0000e-09
  Last DIIS Error            ...    2.6355e-04  Tolerance :   5.0000e-07
  Last Orbital Gradient      ...    3.0453e-05  Tolerance :   1.0000e-05
  Last Orbital Rotation      ...    3.9151e-05  Tolerance :   1.0000e-05


----------------
ORBITAL ENERGIES
----------------

  NO   OCC          E(Eh)            E(eV) 
   0   2.0000     -18.817581      -512.0524 
   1   2.0000     -18.763231      -510.5735 
   2   2.0000     -13.994532      -380.8106 
   3   2.0000     -10.037614      -273.1374 
   4   2.0000      -9.951292      -270.7884 
   5   2.0000      -1.014028       -27.5931 
   6   2.0000      -0.931102       -25.3366 
   7   2.0000      -0.811713       -22.0878 
   8   2.0000      -0.649963       -17.6864 
   9   2.0000      -0.542652       -14.7663 
  10   2.0000      -0.453045       -12.3280 
  11   2.0000      -0.440619       -11.9898 
  12   2.0000      -0.423947       -11.5362 
  13   2.0000      -0.388060       -10.5596 
  14   2.0000      -0.377765       -10.2795 
  15   2.0000      -0.345032        -9.3888 
  16   2.0000      -0.326169        -8.8755 
  17   2.0000      -0.277015        -7.5380 
  18   2.0000      -0.233402        -6.3512 
  19   2.0000      -0.203837        -5.5467 
  20   0.0000      -0.026237        -0.7140 
  21   0.0000       0.051786         1.4092 
  22   0.0000       0.065997         1.7959 
  23   0.0000       0.113326         3.0838 
  24   0.0000       0.118805         3.2329 
  25   0.0000       0.164866         4.4862 
  26   0.0000       0.181599         4.9416 
  27   0.0000       0.191911         5.2222 
  28   0.0000       0.262277         7.1369 
  29   0.0000       0.330717         8.9993 
  30   0.0000       0.504174        13.7193 
*Only the first 10 virtual orbitals were printed.

                    ********************************
                    * MULLIKEN POPULATION ANALYSIS *
                    ********************************

-----------------------
MULLIKEN ATOMIC CHARGES
-----------------------
   0 C :   -0.160792
   1 C :    0.479958
   2 H :    0.246422
   3 H :    0.246538
   4 N :   -0.550847
   5 O :   -0.458770
   6 H :    0.147475
   7 H :    0.147356
   8 H :    0.320736
   9 O :   -0.418076
Sum of atomic charges:    0.0000000

--------------------------------
MULLIKEN REDUCED ORBITAL CHARGES
--------------------------------
  0 C s       :     3.223216  s :     3.223216
      pz      :     0.973380  p :     2.888197
      px      :     1.053771
      py      :     0.861046
      dz2     :     0.005241  d :     0.049379
      dxz     :     0.007984
      dyz     :     0.015793
      dx2y2   :     0.011495
      dxy     :     0.008865

  1 C s       :     3.007447  s :     3.007447
      pz      :     0.840203  p :     2.394730
      px      :     0.776510
      py      :     0.778017
      dz2     :     0.029566  d :     0.117864
      dxz     :     0.020759
      dyz     :     0.039116
      dx2y2   :     0.013596
      dxy     :     0.014827

  2 H s       :     0.729955  s :     0.729955
      pz      :     0.007752  p :     0.023623
      px      :     0.010377
      py      :     0.005493

  3 H s       :     0.729841  s :     0.729841
      pz      :     0.009434  p :     0.023621
      px      :     0.006902
      py      :     0.007285

  4 N s       :     3.608468  s :     3.608468
      pz      :     1.484827  p :     3.912903
      px      :     1.145038
      py      :     1.283038
      dz2     :     0.004054  d :     0.029475
      dxz     :     0.010120
      dyz     :     0.004429
      dx2y2   :     0.005903
      dxy     :     0.004967

  5 O s       :     3.838228  s :     3.838228
      pz      :     1.554168  p :     4.597518
      px      :     1.712407
      py      :     1.330943
      dz2     :     0.005341  d :     0.023024
      dxz     :     0.002981
      dyz     :     0.008242
      dx2y2   :     0.003195
      dxy     :     0.003265

  6 H s       :     0.841518  s :     0.841518
      pz      :     0.003439  p :     0.011007
      px      :     0.005659
      py      :     0.001909

  7 H s       :     0.841637  s :     0.841637
      pz      :     0.004559  p :     0.011007
      px      :     0.003614
      py      :     0.002834

  8 H s       :     0.641788  s :     0.641788
      pz      :     0.017008  p :     0.037476
      px      :     0.008990
      py      :     0.011478

  9 O s       :     3.868924  s :     3.868924
      pz      :     1.373624  p :     4.521741
      px      :     1.449447
      py      :     1.698670
      dz2     :     0.009208  d :     0.027410
      dxz     :     0.008952
      dyz     :     0.007272
      dx2y2   :     0.001116
      dxy     :     0.000863



                     *******************************
                     * LOEWDIN POPULATION ANALYSIS *
                     *******************************

----------------------
LOEWDIN ATOMIC CHARGES
----------------------
   0 C :   -0.102994
   1 C :    0.118831
   2 H :    0.130625
   3 H :    0.130663
   4 N :   -0.256352
   5 O :   -0.160881
   6 H :    0.092651
   7 H :    0.092605
   8 H :    0.183939
   9 O :   -0.229089

-------------------------------
LOEWDIN REDUCED ORBITAL CHARGES
-------------------------------
  0 C s       :     2.904683  s :     2.904683
      pz      :     1.041407  p :     3.089063
      px      :     1.075859
      py      :     0.971797
      dz2     :     0.011531  d :     0.109247
      dxz     :     0.016741
      dyz     :     0.038240
      dx2y2   :     0.024151
      dxy     :     0.018585

  1 C s       :     2.874136  s :     2.874136
      pz      :     1.032232  p :     2.727938
      px      :     0.803705
      py      :     0.892000
      dz2     :     0.072471  d :     0.279096
      dxz     :     0.044945
      dyz     :     0.096169
      dx2y2   :     0.030585
      dxy     :     0.034927

  2 H s       :     0.792308  s :     0.792308
      pz      :     0.024585  p :     0.077067
      px      :     0.036670
      py      :     0.015812

  3 H s       :     0.792259  s :     0.792259
      pz      :     0.033185  p :     0.077077
      px      :     0.021807
      py      :     0.022085

  4 N s       :     3.218736  s :     3.218736
      pz      :     1.490090  p :     3.979989
      px      :     1.173546
      py      :     1.316353
      dz2     :     0.006374  d :     0.057626
      dxz     :     0.016519
      dyz     :     0.008124
      dx2y2   :     0.014296
      dxy     :     0.012314

  5 O s       :     3.497351  s :     3.497351
      pz      :     1.561622  p :     4.615035
      px      :     1.691650
      py      :     1.361762
      dz2     :     0.009142  d :     0.048495
      dxz     :     0.003739
      dyz     :     0.017569
      dx2y2   :     0.008890
      dxy     :     0.009154

  6 H s       :     0.868602  s :     0.868602
      pz      :     0.011287  p :     0.038747
      px      :     0.021631
      py      :     0.005829

  7 H s       :     0.868641  s :     0.868641
      pz      :     0.016561  p :     0.038754
      px      :     0.012697
      py      :     0.009496

  8 H s       :     0.701988  s :     0.701988
      pz      :     0.054883  p :     0.114073
      px      :     0.025234
      py      :     0.033956

  9 O s       :     3.568920  s :     3.568920
      pz      :     1.475110  p :     4.604416
      px      :     1.441739
      py      :     1.687567
      dz2     :     0.024171  d :     0.055753
      dxz     :     0.014593
      dyz     :     0.013739
      dx2y2   :     0.001641
      dxy     :     0.001610



                      *****************************
                      * MAYER POPULATION ANALYSIS *
                      *****************************

  NA   - Mulliken gross atomic population
  ZA   - Total nuclear charge
  QA   - Mulliken gross atomic charge
  VA   - Mayer's total valence
  BVA  - Mayer's bonded valence
  FA   - Mayer's free valence

  ATOM       NA         ZA         QA         VA         BVA        FA
  0 C      6.1608     6.0000    -0.1608     3.8524     3.8524    -0.0000
  1 C      5.5200     6.0000     0.4800     3.9399     3.9399     0.0000
  2 H      0.7536     1.0000     0.2464     0.9200     0.9200     0.0000
  3 H      0.7535     1.0000     0.2465     0.9202     0.9202    -0.0000
  4 N      7.5508     7.0000    -0.5508     2.9137     2.9137     0.0000
  5 O      8.4588     8.0000    -0.4588     2.0223     2.0223     0.0000
  6 H      0.8525     1.0000     0.1475     0.9462     0.9462    -0.0000
  7 H      0.8526     1.0000     0.1474     0.9463     0.9463    -0.0000
  8 H      0.6793     1.0000     0.3207     0.9151     0.9151    -0.0000
  9 O      8.4181     8.0000    -0.4181     2.1145     2.1145    -0.0000

  Mayer bond orders larger than 0.100000
B(  0-C ,  1-C ) :   0.9045 B(  0-C ,  4-N ) :   1.0652 B(  0-C ,  6-H ) :   0.9319 
B(  0-C ,  7-H ) :   0.9320 B(  1-C ,  5-O ) :   1.0714 B(  1-C ,  9-O ) :   1.9255 
B(  2-H ,  4-N ) :   0.9077 B(  3-H ,  4-N ) :   0.9075 B(  5-O ,  8-H ) :   0.8517 


-------
TIMINGS
-------

Total SCF time: 0 days 0 hours 0 min 0 sec 

Total time                  ....       0.741 sec
Sum of individual times     ....       0.586 sec  ( 79.1%)

SCF preparation             ....       0.023 sec  (  3.2%)
Fock matrix formation       ....       0.554 sec  ( 74.7%)
  Startup                   ....       0.000 sec  (  0.0% of F)
  Split-RI-J                ....       0.142 sec  ( 25.6% of F)
  XC integration            ....       0.535 sec  ( 96.7% of F)
    Basis function eval.    ....       0.182 sec  ( 34.0% of XC)
    Density eval.           ....       0.095 sec  ( 17.7% of XC)
    XC-Functional eval.     ....       0.142 sec  ( 26.5% of XC)
    XC-Potential eval.      ....       0.101 sec  ( 18.8% of XC)
Diagonalization             ....       0.000 sec  (  0.0%)
Density matrix formation    ....       0.000 sec  (  0.1%)
Total Energy calculation    ....       0.000 sec  (  0.0%)
Population analysis         ....       0.005 sec  (  0.7%)
Orbital Transformation      ....       0.001 sec  (  0.1%)
Orbital Orthonormalization  ....       0.000 sec  (  0.0%)
DIIS solution               ....       0.001 sec  (  0.1%)
SOSCF solution              ....       0.002 sec  (  0.3%)
Finished LeanSCF after   0.7 sec

Maximum memory used throughout the entire LEANSCF-calculation: 10.5 MB



-------------------------------------------------------------------------------
                          DFT DISPERSION CORRECTION                            
-------------------------------------------------------------------------------
Active option DFTDOPT                   ...         2   
Final C6-coefficient scaling factor     ...     1.250
Final VDW-radii scaling factor          ...     1.100
Damping factor alpha                    ...    20.000
-------------------------   ----------------
Dispersion correction           -0.007304493
-------------------------   ----------------


-------------------------   --------------------
FINAL SINGLE POINT ENERGY      -284.255379765517
-------------------------   --------------------

                                *** OPTIMIZATION RUN DONE ***


------------------------------------------------------------------------------
                              ORCA PROPERTY CALCULATIONS
------------------------------------------------------------------------------

GBWName                                 ... 0.gbw
Number of atoms                         ...     10
Number of basis functions               ...     95
Max core memory                         ...   4096 MB

Electric properties:
Dipole moment                           ... YES
Quadrupole moment                       ...  NO
Static polarizability (Dipole/Dipole)   ...  NO
Static polarizability (Dipole/Quad.)    ...  NO
Static polarizability (Quad./Quad.)     ...  NO
Static polarizability (Velocity)        ...  NO
Static hyperpolarizability              ...  NO

Atomic electric properties:
Dipole moment                           ...  NO
Quadrupole moment                       ...  NO
Static polarizability                   ...  NO

Choice of electric origin               ... Center of mass
Position of electric origin             ...    -9.301989    -3.471576     1.495373

General magnetic properties:
Magnetizability                         ...  NO

EPR properties:
g-Tensor (aka g-matrix)                 ...  NO
Zero-Field splitting spin-orbit         ...  NO
Zero-field splitting spin-spin          ...  NO
Hyperfine couplings                     ...  NO (   0 nuclei)
Quadrupole couplings                    ...  NO (   0 nuclei)
Contact density                         ...  NO (   0 nuclei)

NMR properties:
Chemical shifts                         ...  NO (   0 nuclei)
Spin-rotation constants                 ...  NO (   0 nuclei)
Spin-spin couplings                     ...  NO (   0 nuclei,    0 pairs)

Choice of magnetic origin               ... GIAO
Position of magnetic origin             ...     0.000000     0.000000     0.000000

Properties with geometric perturbations:
SCF Hessian                             ...  NO
IR spectrum                             ...  NO
VCD spectrum                            ...  NO
X-ray spectroscopy properties:
SCF XES/XAS/RIXS spectra                ...  NO

SCF SOC stabilization energy            ...  NO
Diagonal Born-Oppenheimer correction    ...  NO

-------------
DIPOLE MOMENT
-------------

Method             : SCF
Type of density    : Electron Density
Multiplicity       :   1
Irrep              :   0
Energy             :  -284.2480752728412199 Eh
Basis              : AO
                                X                 Y                 Z
Electronic contribution:      0.727664303      -2.706661321       2.320334516
Nuclear contribution   :     -0.536665898       2.239157495      -2.344141657
                        -----------------------------------------
Total Dipole Moment    :      0.190998405      -0.467503826      -0.023807141
                        -----------------------------------------
Magnitude (a.u.)       :      0.505575907
Magnitude (Debye)      :      1.285071830



--------------------
Rotational spectrum 
--------------------
 
Rotational constants in cm-1:             0.337892             0.127806             0.095753 
Rotational constants in MHz :         10129.745833          3831.531150          2870.601826 

Dipole components along the rotational axes: 
x,y,z [a.u.] :    -0.473689    -0.176683     0.003026 
x,y,z [Debye]:    -1.204021    -0.449093     0.007693 

 

Dipole moment calculation done in   0.0 sec 

Maximum memory used throughout the entire PROP-calculation: 6.0 MB

--------------------------------
SUGGESTED CITATIONS FOR THIS RUN
--------------------------------

Below you find a list of papers that are relevant to this ORCA run
We neither can nor want to force you to cite these papers, but we appreciate if you do
You receive ORCA, which is the product of decades of hard work by many enthusiastic individuals, for free
The only thing we kindly ask in return is that you cite our papers,
We deeply appreciate it, if you show your appreciation for ORCA by not just citing the generic ORCA reference.

Please note that relegating all ORCA citations to the supporting information does *not* help us.
SI sections are not indexed - citations you put there will not count into any citation statistics
But we need these citations in order to attract the funding resources that allow us to do what we are doing

Therefore, if you are a happy ORCA user, please consider citing a few of the papers listed below in the main body of your paper

In addition to the list printed below, the program has created the file 0.bibtex that contains the list in bibtex format
You can import this file easily into all common literature databanks and citation aid programs


List of essential papers. We consider these as the minimum necessary citations

  1. Neese, F.
     Software update: the ORCA program system, version 6.0
     WIRES Comput. Molec. Sci. 2025 15(1), e70019
     doi.org/10.1002/wcms.7019

List of papers to cite with high priority. The work reported in these papers was absolutely
necessary for this run to complete.
Our perspective: the developers of density functionals and basis sets usually get cited in chemistry papers
Good! But without the algorithms to do something with them, the functionals or basis sets would not do anything.
Hence, in our opinion, the algorithm design and method developments papers are equally worthy of getting cited

  1. Neese, F.
     An improvement of the resolution of the identity approximation for the formation of the Coulomb matrix
     J. Comp. Chem. 2003 24(14), 1740-1747
     doi.org/10.1002/jcc.10318
  2. Grimme, S.
     Semiempirical GGA-type density functional constructed with a long-range dispersion correction
     J.Comput.Chem. 2006 27(15), 1787-1799
     doi.org/10.1002/jcc.20495
  3. Neese, F.
     The SHARK Integral Generation and Digestion System
     J. Comp. Chem. 2022 44(3), 381
     doi.org/10.1002/jcc.26942

List of suggested additional citations. These are papers that are important in the 'surrounding' of 
of this run, or papers that preceded the highly important papers. If you like your results we are grateful for a citation.

  1. Neese, F.
     The ORCA program system
     WIRES Comput. Molec. Sci. 2012 2(1), 73-78
     doi.org/10.1002/wcms.81
  2. Neese, F.
     Software update: the ORCA program system, version 4.0
     WIRES Comput. Molec. Sci. 2018 8(1), 1-6
     doi.org/10.1002/wcms.1327
  3. Neese, F.; Wennmohs, F.; Becker, U.; Riplinger, C.
     The ORCA quantum chemistry program package
     J. Chem. Phys. 2020 152(22), 224108
     doi.org/10.1063/5.0004608
  4. Neese, F.
     Software update: The ORCA program system—Version 5.0
     WIRES Comput. Molec. Sci. 2022 12(1), e1606
     doi.org/10.1002/wcms.1606

List of optional additional citations

  1. Neese, F.
     Approximate second-order SCF convergence for spin unrestricted wavefunctions
     Chem. Phys. Lett. 2000 325(1-3), 93-98
     doi.org/10.1016/s0009-2614(00)00662-x

Timings for individual modules:

Sum of individual times          ...       16.809 sec (=   0.280 min)
Startup calculation              ...        1.304 sec (=   0.022 min)   7.8 %
SCF iterations                   ...       10.303 sec (=   0.172 min)  61.3 %
Property calculations            ...        0.030 sec (=   0.001 min)   0.2 %
SCF Gradient evaluation          ...        5.165 sec (=   0.086 min)  30.7 %
Geometry relaxation              ...        0.006 sec (=   0.000 min)   0.0 %
                             ****ORCA TERMINATED NORMALLY****
TOTAL RUN TIME: 0 days 0 hours 0 minutes 16 seconds 951 msec
