
                                 *****************
                                 * O   R   C   A *
                                 *****************

                                            #,                                       
                                            ###                                      
                                            ####                                     
                                            #####                                    
                                            ######                                   
                                           ########,                                 
                                     ,,################,,,,,                         
                               ,,#################################,,                 
                          ,,##########################################,,             
                       ,#########################################, ''#####,          
                    ,#############################################,,   '####,        
                  ,##################################################,,,,####,       
                ,###########''''           ''''###############################       
              ,#####''   ,,,,##########,,,,          '''####'''          '####       
            ,##' ,,,,###########################,,,                        '##       
           ' ,,###''''                  '''############,,,                           
         ,,##''                                '''############,,,,        ,,,,,,###''
      ,#''                                            '''#######################'''  
     '                                                          ''''####''''         
             ,#######,   #######,   ,#######,      ##                                
            ,#'     '#,  ##    ##  ,#'     '#,    #''#        ,####,    ,#,          
            ##       ##  ##   ,#'  ##            #'  '#       #'       ,# #          
            ##       ##  #######   ##           ,######,      #####,      #          
            '#,     ,#'  ##    ##  '#,     ,#' ,#      #,     #,   #      #          
             '#######'   ##     ##  '#######'  #'      '#     '####' #    #          



                #########################################################
                #                        -***-                          #
                #          Department of theory and spectroscopy        #
                #                                                       #
                #                      Frank Neese                      #
                #                                                       #
                #     Directorship, Architecture, Infrastructure        #
                #                    SHARK, DRIVERS                     #
                #        Core code/Algorithms in most modules           #
                #                                                       #
                #        Max Planck Institute fuer Kohlenforschung      #
                #                Kaiser Wilhelm Platz 1                 #
                #                 D-45470 Muelheim/Ruhr                 #
                #                      Germany                          #
                #                                                       #
                #                  All rights reserved                  #
                #                        -***-                          #
                #########################################################


                         Program Version 6.1.0  -  RELEASE   -
                                (GIT: $679e74b$)
                          ($2025-06-10 18:02:51 +0200$)


 With contributions from (in alphabetic order):
[Max-Planck-Institut fuer Kohlenforschung]                               
  Daniel Aravena         : Magnetic Suceptibility                        
  Michael Atanasov       : Ab Initio Ligand Field Theory (pilot matlab implementation)
  Alexander A. Auer      : GIAO ZORA, VPT2 properties, NMR spectrum      
  Ute Becker             : All parallelization in ORCA, NUMFREQ, NUMCALC 
  Giovanni Bistoni       : ED, misc. LED, open-shell LED, HFLD           
  Dmytro Bykov           : pre 5.0 version of the SCF Hessian            
  Marcos Casanova-Páez   : Triplet and SCS-CIS(D). UHF-(DLPNO)-IP/EA/STEOM-CCSD. UHF-CVS-IP/STEOM-CCSD   
  Vijay G. Chilkuri      : MRCI spin determinant printing, contributions to CSF-ICE 
  Pauline Colinet        : FMM embedding                                 
  Dipayan Datta          : RHF DLPNO-CCSD density                        
  Achintya Kumar Dutta   : EOM-CC, STEOM-CC                              
  Nicolas Foglia         : Exact transition moments, OPA infrastructure, MCD improvements    
  Dmitry Ganyushin       : Spin-Orbit,Spin-Spin,Magnetic field MRCI      
  Miquel Garcia-Rates    : C-PCM and meta-GGA Hessian, CCSD/C-PCM, Gaussian charge scheme 
  Tiago L. C. Gouveia    : GS-ROHF, GS-ROCIS                             
  Yang Guo               : DLPNO-NEVPT2, F12-NEVPT2, CIM, IAO-localization        
  Andreas Hansen         : Spin unrestricted coupled pair/coupled cluster methods 
  Ingolf Harden          : AUTO-CI MPn and infrastructure                
  Benjamin Helmich-Paris : MC-RPA, TRAH-(SCF,CASSCF), AVAS, COSX integrals, SCF dyn. polar., MC-PDFT, srDFT 
  Lee Huntington         : MR-EOM, pCC                                   
  Robert Izsak           : Overlap fitted RIJCOSX, COSX-SCS-MP3, EOM     
  Riya Kayal             : Wick's Theorem for AUTO-CI, AUTO-CI UHF-CCSDT 
  Emily Kempfer          : AUTO-CI RHF CISDT and CCSDT, approximate NEVPT4
  Christian Kollmar      : KDIIS, OOCD, Brueckner-CCSD(T), CCSD density, CASPT2, CASPT2-K, improved NEVPT2 
  Axel Koslowski         : Symmetry handling                             
  Simone Kossmann        : meta-GGA functionals, TD-DFT gradient, OOMP2, (MP2 Hessian; deprecated post 5.0) 
  Lucas Lang             : DCDCAS, Hyperfine gauge corrections, ICE-SOC+SSC
  Marvin Lechner         : AUTO-CI (C++ implementation), FIC-MRCC        
  Spencer Leger          : CASSCF response                               
  Dagmar Lenk            : GEPOL surface, SMD, ORCA-2-JSON               
  Dimitrios Liakos       : Extrapolation schemes; Compound Job, Property file
  Dimitrios Manganas     : Further ROCIS development; embedding schemes. LFT, Crystal Embedding 
  Dimitrios Pantazis     : SARC Basis sets                               
  Anastasios Papadopoulos: AUTO-CI, single reference methods and gradients 
  Taras Petrenko         : pre 6.0 DFT Hessian and TD-DFT gradient,  ECA, NRVS 
  Petra Pikulova         : Analytic Raman intensities                    
  Peter Pinski           : DLPNO-MP2, DLPNO-MP2 Gradient                 
  Shashank Vittal Rao    : ES-AILFT, MagRelax                            
  Christoph Reimann      : Effective Core Potentials                     
  Marius Retegan         : Local ZFS, SOC                                
  Christoph Riplinger    : Optimizer, TS searches, QM/MM, DLPNO-CCSD(T), (RO)-DLPNO pert. Triples 
  Michael Roemelt        : Original ROCIS implementation, recursive CI coupling coefficients
  Masaaki Saitow         : Open-shell DLPNO-CCSD energy and density      
  Barbara Sandhoefer     : DKH picture change effects                    
  Yorick L. A. Schmerwitz: GMF and freeze-and-release deltaSCF, NEB S-IDPP initial path                    
  Kantharuban Sivalingam : CASSCF convergence/infrastructure, NEVPT2, NEVPT3, NEVPT4(SD), FIC-MRCI and CEPA variants
  Bernardo de Souza      : ESD, SOC TD-DFT                               
  Georgi L. Stoychev     : AutoAux, RI-MP2 NMR, DLPNO-MP2 response, X2C  
  Van Anh Tran           : RI-MP2 g-tensors                              
  Willem Van den Heuvel  : Paramagnetic NMR                              
  Zikuan Wang            : NOTCH, Electric field optimization            
  Frank Wennmohs         : Technical directorship and infrastructure     
  Hang Xu                : AUTO-CI-Response properties                   
                                                                         
[FACCTs GmbH]                                                            
  Markus Bursch, Nicolas Foglia, Miquel Garcia-Rates, Ingolf Harden, Hagen Neugebauer, Anastasios Papadopoulos, 
  Christoph Riplinger, Bernardo de Souza, Georgi L. Stoychev                                                    
                                                                 
  APM, various basis sets, CI-OPT, improved COSX, DLPNO-Multilevel,           
  DOCKER, DRACO, updates on ESD, Fragmentator, GOAT, IRC, LR-CPCM, L-BFGS, MBIS, meta-GGA TD-DFT gradient, ML-optimized integration grids, 
  MM, NACMEs, nearIR, NEB, NEB-TS, NL-DFT gradient (VV10), 2- and 3-layer-ONIOM, interface openCOSMO-RS, QMMM,   
  Crystal-QMMM, RESP, rigid body optimization, SF, symmetry and pop. for TD-DFT, various functionals, SOLVATOR                                   
                                                                         
[Other institutions]                                                     
  V. Asgeirsson          : NEB                                           
  Christoph Bannwarth    : sTDA-DFT, sTD-DFT, PBEh-3c, B97-3c, D3        
  Giovanni Bistoni       : ETS/NOCV, ADLD/ADEX, COVALED                  
  Martin Brehm           : Molecular dynamics                            
  Ronald Cardenas        : ETS/NOCV                                      
  Martina Colucci        : COVALED                                       
  Sebastian Ehlert       : rSCAN, r2SCAN, r2SCAN-3c, D4, dhf basis sets  
  Marvin Friede          : D4 for Fr, Ra, Ac-Lr                          
  Lars Goerigk           : TD-DFT with DH, B97 family of functionals     
  Stefan Grimme          : VdW corrections, initial TS optimization, DFT functionals, gCP, sTDA/sTD-DF 
  Waldemar Hujo          : DFT-NL                                        
  H. Jonsson             : NEB                                           
  Holger Kruse           : gCP                                           
  Marcel Mueller         : wB97X-3c, vDZP basis set                      
  Hagen Neugebauer       : wr2SCAN, Native XTB                           
  Gianluca Regni         : ADLD/ADEX                                     
  Tobias Risthaus        : pre 6.0 range-separated hybrid DFT and stability analysis
  Lukas Wittmann         : regularized MP2, r2SCAN double-hybrids, wr2SCAN        
                                                                         
We gratefully acknowledge several colleagues who have allowed us to      
interface, adapt or use parts of their codes:                            
  Ed Valeev, F. Pavosevic, A. Kumar             : LibInt (2-el integral package), F12 methods 
  Garnet Chan, S. Sharma, J. Yang, R. Olivares  : DMRG                   
  Ulf Ekstrom                                   : XCFun DFT Library      
  Mihaly Kallay                                 : mrcc  (arbitrary order and MRCC methods)
  Frank Weinhold                                : gennbo (NPA and NBO analysis)           
  Simon Mueller                                 : openCOSMO-RS                            
  Christopher J. Cramer and Donald G. Truhlar   : smd solvation model                     
  S Lehtola, MJT Oliveira, MAL Marques          : LibXC Library                           
  Liviu Ungur et al                             : ANISO software                          


 Your calculation uses the libint2 library for the computation of 2-el integrals
 For citations please refer to: http://libint.valeyev.net

 Your ORCA version has been built with support for libXC version: 7.0.0
 For citations please refer to: https://libxc.gitlab.io

 This ORCA versions uses:
   CBLAS   interface :  Fast vector & matrix operations
   LAPACKE interface :  Fast linear algebra routines
   SCALAPACK package :  Parallel linear algebra routines
   Shared memory     :  Shared parallel matrices
   BLAS/LAPACK       :  OpenBLAS 0.3.29  USE64BITINT DYNAMIC_ARCH NO_AFFINITY Haswell SINGLE_THREADED
        Core in use  :  Haswell
   Copyright (c) 2011-2014, The OpenBLAS Project


  ***********************************
  * Starting time: Wed Aug 13 23:46:55 2025
  * Host name:     CHEMLAB02
  * Process ID:    1540834
  * Working dir.:  /home/vivek/mm-project/vivek/B97-D/i/5
  ***********************************



***************************************
The coordinates will be read from file: /home/vivek/mm-project/vivek/xtb-goat/i/I_CONF/5.xyz
***************************************


Your calculation utilizes empirical dispersion correction


Warning: RI is on but no J-basis has been assigned. Assigning Def2/J (nothing to worry about!)
================================================================================

----- Orbital basis set information -----
Your calculation utilizes the basis: 6-31G**
   H-He, Li-Ne : W. J. Hehre, R. Ditchfield and J.A. Pople, J. Chem. Phys. 56, 2257 (1972).
                 Note: He and Ne are unpublished basis sets taken from the Gaussian program.
                 Note: Li and B from J. D. Dill and J. A. Pople, J. Chem. Phys. 62, 2921 (1975).
   Na - Ar     : M. M. Francl, W. J. Pietro, W. J. Hehre, J. S. Binkley, M. S. Gordon, 
                 D. J. DeFrees and J. A. Pople, J. Chem. Phys. 77, 3654 (1982).
   K - Zn      : V. A. Rassolov, J. A. Pople, M. A. Ratner, and T. L. Windus, J. Chem. Phys. 109, 1223 (1998).

----- AuxJ basis set information -----
Your calculation utilizes the auxiliary basis: def2/J
   H-Rn: F. Weigend, Phys. Chem. Chem. Phys. 8, 1057 (2006).
   Fr-Lr: K. Eichkorn, F. Weigend, O. Treutler, R. Ahlrichs; Theor. Chem. Acc. 97, 119 (1997).

================================================================================
                                        WARNINGS
                       Please study these warnings very carefully!
================================================================================


INFO   : The exchange functional is Grimme's B97(-D)
         As described in S. Grimme, J. Comput. Chem. 27, 1787 (2006).
         Note that this functional defaults to a pure GGA. 

INFO   : The correlation functional is Grimme's B97(-D)
         As described in S. Grimme, J. Comput. Chem. 27, 1787 (2006).

================================================================================
                                       INPUT FILE
================================================================================
NAME = 5.inp
|  1> ! B97-D 6-31G** 
|  2> 
|  3> * xyzfile 0 1 /home/vivek/mm-project/vivek/xtb-goat/i/I_CONF/5.xyz
|  4> 
|  5>                          ****END OF INPUT****
================================================================================

                       ****************************
                       * Single Point Calculation *
                       ****************************

---------------------------------
CARTESIAN COORDINATES (ANGSTROEM)
---------------------------------
  C     -9.300386    4.040780    0.564482
  C    -10.640139    4.768506    0.577574
  C     -8.135912    4.939189    0.137498
  H     -4.837759    4.697151    0.654845
  H     -5.617033    5.750457   -0.310873
  C     -6.782329    4.202885    0.298998
  H     -7.032204    1.663651   -1.701484
  C     -8.314950    5.463705   -1.286827
  C     -6.497774    3.309017   -0.899875
  H     -7.410924    5.958393   -1.634247
  N     -5.724155    5.171567    0.516428
  O     -7.249406    2.202032   -0.922959
  H    -10.579943    5.665462    1.190097
  O     -5.667888    3.543623   -1.739322
  H     -8.081705    5.792595    0.821214
  H     -8.543446    4.649310   -1.972173
  H     -9.126394    6.184928   -1.327520
  H     -6.838068    3.560086    1.185131
  H     -9.098178    3.665076    1.570101
  H     -9.359002    3.179782   -0.103435
  H    -10.944121    5.053875   -0.425631
  H    -11.410368    4.122214    0.991905

----------------------------
CARTESIAN COORDINATES (A.U.)
----------------------------
  NO LB      ZA    FRAG     MASS         X           Y           Z
   0 C     6.0000    0    12.011  -17.575182    7.635968    1.066716
   1 C     6.0000    0    12.011  -20.106949    9.011170    1.091457
   2 C     6.0000    0    12.011  -15.374646    9.333715    0.259833
   3 H     1.0000    0     1.008   -9.142040    8.876329    1.237478
   4 H     1.0000    0     1.008  -10.614654   10.866790   -0.587464
   5 C     6.0000    0    12.011  -12.816744    7.942302    0.565024
   6 H     1.0000    0     1.008  -13.288940    3.143845   -3.215338
   7 C     6.0000    0    12.011  -15.712979   10.324906   -2.431750
   8 C     6.0000    0    12.011  -12.279014    6.253136   -1.700517
   9 H     1.0000    0     1.008  -14.004616   11.259731   -3.088278
  10 N     7.0000    0    14.007  -10.817085    9.772846    0.975907
  11 O     8.0000    0    15.999  -13.699391    4.161237   -1.744140
  12 H     1.0000    0     1.008  -19.993194   10.706172    2.248958
  13 O     8.0000    0    15.999  -10.710756    6.696477   -3.286842
  14 H     1.0000    0     1.008  -15.272209   10.946417    1.551870
  15 H     1.0000    0     1.008  -16.144773    8.785923   -3.726867
  16 H     1.0000    0     1.008  -17.246385   11.687820   -2.508649
  17 H     1.0000    0     1.008  -12.922076    6.727588    2.239574
  18 H     1.0000    0     1.008  -17.193064    6.925990    2.967061
  19 H     1.0000    0     1.008  -17.685950    6.008917   -0.195464
  20 H     1.0000    0     1.008  -20.681392    9.550440   -0.804327
  21 H     1.0000    0     1.008  -21.562470    7.789856    1.874429

--------------------------------
INTERNAL COORDINATES (ANGSTROEM)
--------------------------------
 C      0   0   0     0.000000000000     0.00000000     0.00000000
 C      1   0   0     1.524695173607     0.00000000     0.00000000
 C      1   2   0     1.531487130127   112.98734524     0.00000000
 H      3   1   2     3.347244385920   131.58212066   158.30075691
 H      4   3   1     1.627677238986    52.39331088   171.46115730
 C      3   1   2     1.549327066354   110.88171202   173.39756780
 H      6   3   1     3.242232532807   103.91892928    61.57047575
 C      3   1   2     1.528355792992   111.84386820   298.21899851
 C      6   3   1     1.522257283059   111.11734179    82.67152928
 H      8   3   1     1.087511286283   110.88225631   189.49428583
 N      4   3   1     1.014853567424    23.72372329   211.80504096
 O      7   6   3     0.971148825735    24.27800989   293.01297298
 H      2   1   3     1.087813883402   110.47272602   305.87270396
 O      9   6   3     1.203504305113   124.31618579   107.67894625
 H      3   1   2     1.094855058892   108.71097165    58.22332390
 H      8   3   1     1.088645442730   110.76544456   309.73809356
 H      8   3   1     1.086397431401   110.50174809    69.93029042
 H      6   3   1     1.096143031815   108.57420151   324.56410034
 H      1   2   3     1.092388031656   108.59662769   120.45199386
 H      1   2   3     1.091268400452   109.55039330   237.68721426
 H      2   1   3     1.086398649622   111.30363440    66.59653453
 H      2   1   3     1.087480836272   109.99714512   186.31340013

---------------------------
INTERNAL COORDINATES (A.U.)
---------------------------
 C      0   0   0     0.000000000000     0.00000000     0.00000000
 C      1   0   0     2.881256315829     0.00000000     0.00000000
 C      1   2   0     2.894091253565   112.98734524     0.00000000
 H      3   1   2     6.325375192694   131.58212066   158.30075691
 H      4   3   1     3.075864216101    52.39331088   171.46115730
 C      3   1   2     2.927803847281   110.88171202   173.39756780
 H      6   3   1     6.126931549495   103.91892928    61.57047575
 C      3   1   2     2.888173883946   111.84386820   298.21899851
 C      6   3   1     2.876649370348   111.11734179    82.67152928
 H      8   3   1     2.055098498622   110.88225631   189.49428583
 N      4   3   1     1.917795308465    23.72372329   211.80504096
 O      7   6   3     1.835205315918    24.27800989   293.01297298
 H      2   1   3     2.055670324307   110.47272602   305.87270396
 O      9   6   3     2.274293537659   124.31618579   107.67894625
 H      3   1   2     2.068976217644   108.71097165    58.22332390
 H      8   3   1     2.057241743701   110.76544456   309.73809356
 H      8   3   1     2.052993617943   110.50174809    69.93029042
 H      6   3   1     2.071410133737   108.57420151   324.56410034
 H      1   2   3     2.064314211803   108.59662769   120.45199386
 H      1   2   3     2.062198415457   109.55039330   237.68721426
 H      2   1   3     2.052995920048   111.30363440    66.59653453
 H      2   1   3     2.055040956442   109.99714512   186.31340013

---------------------
BASIS SET INFORMATION
---------------------
There are 4 groups of distinct atoms

 Group   1 Type C   : 10s4p1d contracted to 3s2p1d pattern {631/31/1}
 Group   2 Type H   : 4s1p contracted to 2s1p pattern {31/1}
 Group   3 Type N   : 10s4p1d contracted to 3s2p1d pattern {631/31/1}
 Group   4 Type O   : 10s4p1d contracted to 3s2p1d pattern {631/31/1}

Atom   0C    basis set group =>   1
Atom   1C    basis set group =>   1
Atom   2C    basis set group =>   1
Atom   3H    basis set group =>   2
Atom   4H    basis set group =>   2
Atom   5C    basis set group =>   1
Atom   6H    basis set group =>   2
Atom   7C    basis set group =>   1
Atom   8C    basis set group =>   1
Atom   9H    basis set group =>   2
Atom  10N    basis set group =>   3
Atom  11O    basis set group =>   4
Atom  12H    basis set group =>   2
Atom  13O    basis set group =>   4
Atom  14H    basis set group =>   2
Atom  15H    basis set group =>   2
Atom  16H    basis set group =>   2
Atom  17H    basis set group =>   2
Atom  18H    basis set group =>   2
Atom  19H    basis set group =>   2
Atom  20H    basis set group =>   2
Atom  21H    basis set group =>   2
---------------------------------
AUXILIARY/J BASIS SET INFORMATION
---------------------------------
There are 4 groups of distinct atoms

 Group   1 Type C   : 12s5p4d2f1g contracted to 6s4p3d1f1g pattern {711111/2111/211/2/1}
 Group   2 Type H   : 5s2p1d contracted to 3s1p1d pattern {311/2/1}
 Group   3 Type N   : 12s5p4d2f1g contracted to 6s4p3d1f1g pattern {711111/2111/211/2/1}
 Group   4 Type O   : 12s5p4d2f1g contracted to 6s4p3d1f1g pattern {711111/2111/211/2/1}

Atom   0C    basis set group =>   1
Atom   1C    basis set group =>   1
Atom   2C    basis set group =>   1
Atom   3H    basis set group =>   2
Atom   4H    basis set group =>   2
Atom   5C    basis set group =>   1
Atom   6H    basis set group =>   2
Atom   7C    basis set group =>   1
Atom   8C    basis set group =>   1
Atom   9H    basis set group =>   2
Atom  10N    basis set group =>   3
Atom  11O    basis set group =>   4
Atom  12H    basis set group =>   2
Atom  13O    basis set group =>   4
Atom  14H    basis set group =>   2
Atom  15H    basis set group =>   2
Atom  16H    basis set group =>   2
Atom  17H    basis set group =>   2
Atom  18H    basis set group =>   2
Atom  19H    basis set group =>   2
Atom  20H    basis set group =>   2
Atom  21H    basis set group =>   2
------------------------------------------------------------------------------
                             ORCA STARTUP CALCULATIONS
                           -- RI-GTO INTEGRALS CHOSEN --
------------------------------------------------------------------------------
------------------------------------------------------------------------------
                   ___                                                        
                  /   \      - P O W E R E D   B Y -                         
                 /     \                                                     
                 |  |  |   _    _      __       _____    __    __             
                 |  |  |  | |  | |    /  \     |  _  \  |  |  /  |          
                  \  \/   | |  | |   /    \    | | | |  |  | /  /          
                 / \  \   | |__| |  /  /\  \   | |_| |  |  |/  /          
                |  |  |   |  __  | /  /__\  \  |    /   |      \           
                |  |  |   | |  | | |   __   |  |    \   |  |\   \          
                \     /   | |  | | |  |  |  |  | |\  \  |  | \   \       
                 \___/    |_|  |_| |__|  |__|  |_| \__\ |__|  \__/        
                                                                              
                      - O R C A' S   B I G   F R I E N D -                    
                                      &                                       
                       - I N T E G R A L  F E E D E R -                       
                                                                              
 v1 FN, 2020, v2 2021, v3 2022-2024                                           
------------------------------------------------------------------------------


----------------------
SHARK INTEGRAL PACKAGE
----------------------

Number of atoms                             ...     22
Number of basis functions                   ...    191
Number of shells                            ...     93
Maximum angular momentum                    ...      2
Integral batch strategy                     ... SHARK/LIBINT Hybrid
RI-J (if used) integral strategy            ... SPLIT-RIJ (Revised 2003 algorithm where possible)
Printlevel                                  ...      1
Contraction scheme used                     ... SEGMENTED contraction
Prescreening option                         ... SCHWARTZ
   Thresh                                   ... 1.000e-10
   Tcut                                     ... 1.000e-11
   Tpresel                                  ... 1.000e-11 
Coulomb Range Separation                    ... NOT USED
Exchange Range Separation                   ... NOT USED
Multipole approximations                    ... NOT USED
Finite Nucleus Model                        ... NOT USED
CABS basis                                  ... NOT available
Auxiliary Coulomb fitting basis             ... AVAILABLE
   # of basis functions in Aux-J            ...    584
   # of shells in Aux-J                     ...    200
   Maximum angular momentum in Aux-J        ...      4
Auxiliary J/K fitting basis                 ... NOT available
Auxiliary Correlation fitting basis         ... NOT available
Auxiliary 'external' fitting basis          ... NOT available

Checking pre-screening integrals            ... done (  0.0 sec) Dimension = 93
   => SHARK Basis and OBASIS are compatible. Storing Pre-screening
Shell pair information
Shell pair cut-off parameter TPreSel        ...   1.0e-11
Total number of shell pairs                 ...      4371
Shell pairs after pre-screening             ...      3943
Total number of primitive shell pairs       ...     20328
Primitive shell pairs kept                  ...     12167
          la=0 lb=0:   1301 shell pairs
          la=1 lb=0:   1468 shell pairs
          la=1 lb=1:    438 shell pairs
          la=2 lb=0:    439 shell pairs
          la=2 lb=1:    254 shell pairs
          la=2 lb=2:     43 shell pairs

Checking whether 4 symmetric matrices of dimension 191 fit in memory
:Max Core in MB      =   4096.00
 MB in use           =      8.65
 MB left             =   4087.35
 MB needed           =      0.56
 Data fit in memory  = YES
Calculating RI/J V-Matrix + Cholesky decomp.... done (  0.0 sec)
Calculating Nuclear repulsion               ... done (  0.0 sec) ENN=    496.148611016916 Eh

Diagonalization of the overlap matrix:
Smallest eigenvalue                        ... 2.717e-03
Time for diagonalization                   ...    0.002 sec
Threshold for overlap eigenvalues          ... 1.000e-07
Number of eigenvalues below threshold      ... 0
Time for construction of square roots      ...    0.001 sec
Total time needed                          ...    0.003 sec

-------------------
DFT GRID GENERATION
-------------------

General Integration Accuracy     IntAcc      ... 4.388
Radial Grid Type                 RadialGrid  ... OptM3 with GC (2021)
Angular Grid (max. ang.)         AngularGrid ... 4 (Lebedev-302)
Angular grid pruning method      GridPruning ... 4 (adaptive)
Weight generation scheme         WeightScheme... mBecke (2022)
Basis function cutoff            BFCut       ... 1.0000e-10
Integration weight cutoff        WCut        ... 1.0000e-14
Partially contracted basis set               ... off
Rotationally invariant grid construction     ... off
Angular grids for H and He will be reduced by one unit

Total number of grid points                  ...    95523
Total number of batches                      ...     1503
Average number of points per batch           ...       63
Average number of grid points per atom       ...     4342
Grids setup in   0.4 sec
Initializing property integral containers    ... done (  0.0 sec)

SHARK setup successfully completed in   0.4 seconds

Maximum memory used throughout the entire STARTUP-calculation: 40.6 MB
-------------------------------------------------------------------------------
                                 ORCA GUESS
                   Start orbitals & Density for SCF / CASSCF
-------------------------------------------------------------------------------

------------
SCF SETTINGS
------------
Hamiltonian:
 Density Functional     Method          .... DFT(GTOs)
 Exchange Functional    Exchange        .... B97(D)
 Correlation Functional Correlation     .... B97(D)
 Gradients option       PostSCFGGA      .... off
 RI-approximation to the Coulomb term is turned on
   Number of AuxJ basis functions       .... 584


General Settings:
 Integral files         IntName         .... 5
 Hartree-Fock type      HFTyp           .... RHF
 Total Charge           Charge          ....    0
 Multiplicity           Mult            ....    1
 Number of Electrons    NEL             ....   72
 Basis Dimension        Dim             ....  191
 Nuclear Repulsion      ENuc            ....    496.1486110169 Eh

Convergence Acceleration:
 AO-DIIS                CNVDIIS         .... on
   Start iteration      DIISMaxIt       ....    12
   Startup error        DIISStart       ....  0.200000
   # of expansion vecs  DIISMaxEq       ....     5
   Bias factor          DIISBfac        ....   1.050
   Max. coefficient     DIISMaxC        ....  10.000
 MO-DIIS                CNVKDIIS        .... off
 Trust-Rad. Augm. Hess. CNVTRAH         .... auto
   Auto Start mean grad. ratio tolernc. ....  1.125000
   Auto Start start iteration           ....    50
   Auto Start num. interpolation iter.  ....    10
   Max. Number of Micro iterations      ....    24
   Max. Number of Macro iterations      .... Maxiter - #DIIS iter
   Number of Davidson start vectors     ....     2
   Converg. threshold    (grad. norm)   ....   5.000e-05
   Grad. Scal. Fac. for Micro threshold ....   0.100
   Minimum threshold for Micro iter.    ....   1.000e-02
   NR start threshold (gradient norm)   ....   1.000e-04
   Initial trust radius                 ....   0.400
   Minimum AH scaling param. (alpha)    ....   1.000
   Maximum AH scaling param. (alpha)    .... 1000.000
   Quad. conv. algorithm                .... NR
   White noise on init. David. guess    .... on
   Maximum white noise                  ....   0.010
   Pseudo random numbers                .... off
   Inactive MOs                         .... canonical
   Orbital update algorithm             .... Taylor
   Preconditioner                       .... Diag
   Full preconditioner red. dimension   ....   250
 SOSCF                 CNVSOSCF           .... on
   Start iteration     SOSCFMaxIt         ....   150
   Startup grad/error  SOSCFStart         ....  0.003300
   Hessian update      SOSCFHessUp        .... L-BFGS
   Autom. constraints  SOSCFAutoConstrain .... off
 Level Shifting         CNVShift        .... on
   Level shift para.    LevelShift      ....    0.2500
   Turn off err/grad.   ShiftErr        ....    0.0010
 Zerner damping         CNVZerner       .... off
 Static damping         CNVDamp         .... on
   Fraction old density DampFac         ....    0.7000
   Max. Damping (<1)    DampMax         ....    0.9800
   Min. Damping (>=0)   DampMin         ....    0.0000
   Turn off err/grad.   DampErr         ....    0.1000

SCF Procedure:
 Maximum # iterations   MaxIter         ....   125
 SCF integral mode      SCFMode         .... Direct
   Integral package                     .... SHARK and LIBINT hybrid scheme
 Reset frequency        DirectResetFreq ....    20
 Integral Threshold     Thresh          ....  1.000e-10 Eh
 Primitive CutOff       TCut            ....  1.000e-11 Eh

Convergence Tolerance:
 Convergence Check Mode ConvCheckMode   .... Total+1el-Energy
 Convergence forced     ConvForced      .... 0
 Energy Change          TolE            ....  1.000e-06 Eh
 1-El. energy change                    ....  1.000e-03 Eh
 Orbital Gradient       TolG            ....  5.000e-05
 Orbital Rotation angle TolX            ....  5.000e-05
 DIIS Error             TolErr          ....  1.000e-06

------------------------------
INITIAL GUESS: MODEL POTENTIAL
------------------------------
Loading Hartree-Fock densities                     ... done
Calculating cut-offs                               ... done
Initializing the effective Hamiltonian             ... done
Setting up the integral package (SHARK)            ... done
Starting the Coulomb interaction                   ... done (   0.1 sec)
Making the grid                                    ... done (   0.1 sec)
Mapping shells                                     ... done
Starting the XC term evaluation                    ... done (   0.1 sec)
  promolecular density results
     # of electrons  =     71.996974900
     EX              =    -56.844422092
     EC              =     -3.119831297
     EX+EC           =    -59.964253388
Transforming the Hamiltonian                       ... done (   0.0 sec)
Diagonalizing the Hamiltonian                      ... done (   0.0 sec)
Back transforming the eigenvectors                 ... done (   0.0 sec)
Now organizing SCF variables                       ... done
                      ------------------
                      INITIAL GUESS DONE (   0.3 sec)
                      ------------------
             **** ENERGY FILE WAS UPDATED (5.en.tmp) ****
Finished Guess after   0.3 sec
Maximum memory used throughout the entire GUESS-calculation: 13.8 MB

-------------------------------------------------------------------------------------------
                                      ORCA LEAN-SCF
                              memory conserving SCF solver
-------------------------------------------------------------------------------------------

----------------------------------------D-I-I-S--------------------------------------------
Iteration    Energy (Eh)           Delta-E    RMSDP     MaxDP     DIISErr   Damp  Time(sec)
-------------------------------------------------------------------------------------------
               ***  Starting incremental Fock matrix formation  ***
    1    -441.0168089435141496     0.00e+00  3.53e-03  9.58e-02  2.59e-01  0.700   0.6
    2    -441.1941332885746192    -1.77e-01  2.33e-03  5.06e-02  9.71e-02  0.700   0.5
                               ***Turning on AO-DIIS***
    3    -441.2499609242707379    -5.58e-02  9.00e-04  1.57e-02  2.63e-02  0.700   0.5
    4    -441.2856012886362009    -3.56e-02  1.19e-03  1.85e-02  1.29e-02  0.000   0.5
    5    -441.3678616077147012    -8.23e-02  4.01e-04  7.84e-03  9.28e-03  0.000   0.5
                              *** Initializing SOSCF ***
---------------------------------------S-O-S-C-F--------------------------------------
Iteration    Energy (Eh)           Delta-E    RMSDP     MaxDP     MaxGrad    Time(sec)
--------------------------------------------------------------------------------------
    6    -441.3687233205036478    -8.62e-04  1.46e-04  2.67e-03  3.13e-03     0.5
               *** Restarting incremental Fock matrix formation ***
    7    -441.3687878594608378    -6.45e-05  1.23e-04  3.52e-03  8.87e-04     0.6
    8    -441.3687568898872655     3.10e-05  6.79e-05  2.53e-03  2.53e-03     0.5
    9    -441.3687973813900385    -4.05e-05  4.28e-05  8.12e-04  2.22e-04     0.4
   10    -441.3687951523309607     2.23e-06  2.47e-05  5.35e-04  1.74e-04     0.5
   11    -441.3687990004385142    -3.85e-06  6.21e-06  2.03e-04  2.78e-05     0.4
   12    -441.3687989281335717     7.23e-08  3.66e-06  1.31e-04  4.77e-05     0.4
                 **** Energy Check signals convergence ****

               *****************************************************
               *                     SUCCESS                       *
               *           SCF CONVERGED AFTER  12 CYCLES          *
               *****************************************************

             **** ENERGY FILE WAS UPDATED (5.en.tmp) ****

----------------
TOTAL SCF ENERGY
----------------

Total Energy       :       -441.36879904651352 Eh          -12010.25561 eV

Components:
Nuclear Repulsion  :        496.14861101691628 Eh           13500.89008 eV
Electronic Energy  :       -937.51741006342979 Eh          -25511.14569 eV
One Electron Energy:      -1584.29115446304831 Eh          -43110.75402 eV
Two Electron Energy:        646.77374439961852 Eh           17599.60833 eV

Virial components:
Potential Energy   :       -880.48377583204456 Eh          -23959.18160 eV
Kinetic Energy     :        439.11497678553110 Eh           11948.92599 eV
Virial Ratio       :          2.00513264721117

DFT components:
N(Alpha)           :       35.999899607149 electrons
N(Beta)            :       35.999899607149 electrons
N(Total)           :       71.999799214299 electrons
E(X)               :      -58.274960038655 Eh       
E(C)               :       -3.117314016542 Eh       
E(XC)              :      -61.392274055197 Eh       

---------------
SCF CONVERGENCE
---------------

  Last Energy change         ...   -7.2305e-08  Tolerance :   1.0000e-06
  Last MAX-Density change    ...    1.3070e-04  Tolerance :   1.0000e-05
  Last RMS-Density change    ...    3.6597e-06  Tolerance :   1.0000e-06
  Last DIIS Error            ...    3.1309e-03  Tolerance :   1.0000e-06
  Last Orbital Gradient      ...    4.7674e-05  Tolerance :   5.0000e-05
  Last Orbital Rotation      ...    4.0890e-05  Tolerance :   5.0000e-05


----------------
ORBITAL ENERGIES
----------------

  NO   OCC          E(Eh)            E(eV) 
   0   2.0000     -18.814334      -511.9641 
   1   2.0000     -18.752213      -510.2737 
   2   2.0000     -13.983047      -380.4981 
   3   2.0000     -10.025886      -272.8182 
   4   2.0000      -9.942246      -270.5423 
   5   2.0000      -9.911749      -269.7124 
   6   2.0000      -9.897023      -269.3117 
   7   2.0000      -9.895124      -269.2600 
   8   2.0000      -9.891447      -269.1600 
   9   2.0000      -1.020552       -27.7706 
  10   2.0000      -0.930611       -25.3232 
  11   2.0000      -0.813231       -22.1291 
  12   2.0000      -0.729830       -19.8597 
  13   2.0000      -0.661610       -18.0033 
  14   2.0000      -0.634352       -17.2616 
  15   2.0000      -0.581677       -15.8282 
  16   2.0000      -0.542288       -14.7564 
  17   2.0000      -0.501147       -13.6369 
  18   2.0000      -0.456914       -12.4333 
  19   2.0000      -0.431039       -11.7292 
  20   2.0000      -0.421140       -11.4598 
  21   2.0000      -0.409057       -11.1310 
  22   2.0000      -0.394077       -10.7234 
  23   2.0000      -0.378414       -10.2972 
  24   2.0000      -0.373243       -10.1565 
  25   2.0000      -0.355725        -9.6798 
  26   2.0000      -0.343889        -9.3577 
  27   2.0000      -0.335122        -9.1191 
  28   2.0000      -0.316009        -8.5991 
  29   2.0000      -0.312554        -8.5050 
  30   2.0000      -0.283861        -7.7242 
  31   2.0000      -0.278669        -7.5830 
  32   2.0000      -0.277035        -7.5385 
  33   2.0000      -0.270283        -7.3548 
  34   2.0000      -0.222421        -6.0524 
  35   2.0000      -0.192552        -5.2396 
  36   0.0000      -0.016135        -0.4391 
  37   0.0000       0.050605         1.3770 
  38   0.0000       0.065058         1.7703 
  39   0.0000       0.090458         2.4615 
  40   0.0000       0.099985         2.7207 
  41   0.0000       0.117998         3.2109 
  42   0.0000       0.121190         3.2977 
  43   0.0000       0.132974         3.6184 
  44   0.0000       0.144767         3.9393 
  45   0.0000       0.150978         4.1083 
  46   0.0000       0.158899         4.3239 
*Only the first 10 virtual orbitals were printed.

                    ********************************
                    * MULLIKEN POPULATION ANALYSIS *
                    ********************************

-----------------------
MULLIKEN ATOMIC CHARGES
-----------------------
   0 C :   -0.186309
   1 C :   -0.336489
   2 C :   -0.061052
   3 H :    0.241414
   4 H :    0.245357
   5 C :   -0.050619
   6 H :    0.315278
   7 C :   -0.344132
   8 C :    0.494659
   9 H :    0.111819
  10 N :   -0.556830
  11 O :   -0.451119
  12 H :    0.107491
  13 O :   -0.421696
  14 H :    0.116916
  15 H :    0.111483
  16 H :    0.114774
  17 H :    0.122254
  18 H :    0.095646
  19 H :    0.113916
  20 H :    0.110888
  21 H :    0.106351
Sum of atomic charges:   -0.0000000

--------------------------------
MULLIKEN REDUCED ORBITAL CHARGES
--------------------------------
  0 C s       :     3.224240  s :     3.224240
      pz      :     1.024503  p :     2.924905
      px      :     0.915921
      py      :     0.984481
      dz2     :     0.007046  d :     0.037164
      dxz     :     0.004762
      dyz     :     0.009289
      dx2y2   :     0.007917
      dxy     :     0.008150

  1 C s       :     3.248849  s :     3.248849
      pz      :     1.047821  p :     3.057271
      px      :     0.985896
      py      :     1.023554
      dz2     :     0.005540  d :     0.030369
      dxz     :     0.004944
      dyz     :     0.007149
      dx2y2   :     0.005581
      dxy     :     0.007154

  2 C s       :     3.214358  s :     3.214358
      pz      :     0.948386  p :     2.804490
      px      :     0.886854
      py      :     0.969249
      dz2     :     0.008469  d :     0.042205
      dxz     :     0.006205
      dyz     :     0.011247
      dx2y2   :     0.007290
      dxy     :     0.008995

  3 H s       :     0.734728  s :     0.734728
      pz      :     0.007321  p :     0.023858
      px      :     0.009974
      py      :     0.006562

  4 H s       :     0.730654  s :     0.730654
      pz      :     0.010703  p :     0.023990
      px      :     0.004783
      py      :     0.008504

  5 C s       :     3.200949  s :     3.200949
      pz      :     0.965289  p :     2.792949
      px      :     0.903556
      py      :     0.924105
      dz2     :     0.007888  d :     0.056721
      dxz     :     0.007087
      dyz     :     0.017359
      dx2y2   :     0.011327
      dxy     :     0.013060

  6 H s       :     0.646790  s :     0.646790
      pz      :     0.017132  p :     0.037931
      px      :     0.008994
      py      :     0.011806

  7 C s       :     3.252064  s :     3.252064
      pz      :     0.970969  p :     3.061858
      px      :     1.052821
      py      :     1.038068
      dz2     :     0.006761  d :     0.030210
      dxz     :     0.004125
      dyz     :     0.008398
      dx2y2   :     0.002575
      dxy     :     0.008352

  8 C s       :     2.990425  s :     2.990425
      pz      :     0.857161  p :     2.390511
      px      :     0.767674
      py      :     0.765676
      dz2     :     0.028182  d :     0.124405
      dxz     :     0.018725
      dyz     :     0.023605
      dx2y2   :     0.023570
      dxy     :     0.030323

  9 H s       :     0.876504  s :     0.876504
      pz      :     0.003050  p :     0.011677
      px      :     0.005208
      py      :     0.003418

 10 N s       :     3.589721  s :     3.589721
      pz      :     1.518757  p :     3.938341
      px      :     1.114159
      py      :     1.305425
      dz2     :     0.007212  d :     0.028768
      dxz     :     0.002426
      dyz     :     0.006157
      dx2y2   :     0.004275
      dxy     :     0.008698

 11 O s       :     3.825849  s :     3.825849
      pz      :     1.555627  p :     4.602523
      px      :     1.669856
      py      :     1.377040
      dz2     :     0.004202  d :     0.022747
      dxz     :     0.003189
      dyz     :     0.005414
      dx2y2   :     0.004365
      dxy     :     0.005577

 12 H s       :     0.880976  s :     0.880976
      pz      :     0.003826  p :     0.011534
      px      :     0.002540
      py      :     0.005168

 13 O s       :     3.857663  s :     3.857663
      pz      :     1.456396  p :     4.535942
      px      :     1.409810
      py      :     1.669736
      dz2     :     0.007228  d :     0.028091
      dxz     :     0.007205
      dyz     :     0.004604
      dx2y2   :     0.005049
      dxy     :     0.004005

 14 H s       :     0.871483  s :     0.871483
      pz      :     0.004135  p :     0.011602
      px      :     0.002446
      py      :     0.005021

 15 H s       :     0.876921  s :     0.876921
      pz      :     0.004120  p :     0.011596
      px      :     0.002857
      py      :     0.004618

 16 H s       :     0.873492  s :     0.873492
      pz      :     0.002558  p :     0.011734
      px      :     0.004867
      py      :     0.004309

 17 H s       :     0.866688  s :     0.866688
      pz      :     0.005256  p :     0.011058
      px      :     0.002097
      py      :     0.003705

 18 H s       :     0.892830  s :     0.892830
      pz      :     0.005827  p :     0.011524
      px      :     0.002629
      py      :     0.003068

 19 H s       :     0.874187  s :     0.874187
      pz      :     0.004030  p :     0.011897
      px      :     0.002641
      py      :     0.005226

 20 H s       :     0.877451  s :     0.877451
      pz      :     0.005788  p :     0.011662
      px      :     0.002943
      py      :     0.002931

 21 H s       :     0.882079  s :     0.882079
      pz      :     0.003200  p :     0.011570
      px      :     0.004502
      py      :     0.003867



                     *******************************
                     * LOEWDIN POPULATION ANALYSIS *
                     *******************************

----------------------
LOEWDIN ATOMIC CHARGES
----------------------
   0 C :   -0.126630
   1 C :   -0.202592
   2 C :   -0.061294
   3 H :    0.126236
   4 H :    0.125008
   5 C :   -0.049350
   6 H :    0.180289
   7 C :   -0.201346
   8 C :    0.102250
   9 H :    0.070639
  10 N :   -0.244790
  11 O :   -0.138585
  12 H :    0.067605
  13 O :   -0.223283
  14 H :    0.076584
  15 H :    0.069957
  16 H :    0.073949
  17 H :    0.081972
  18 H :    0.065005
  19 H :    0.069554
  20 H :    0.067903
  21 H :    0.070920

-------------------------------
LOEWDIN REDUCED ORBITAL CHARGES
-------------------------------
  0 C s       :     2.898421  s :     2.898421
      pz      :     1.073422  p :     3.145483
      px      :     1.015701
      py      :     1.056360
      dz2     :     0.015869  d :     0.082727
      dxz     :     0.009916
      dyz     :     0.018788
      dx2y2   :     0.016997
      dxy     :     0.021156

  1 C s       :     2.914622  s :     2.914622
      pz      :     1.091677  p :     3.223683
      px      :     1.051034
      py      :     1.080971
      dz2     :     0.011901  d :     0.064288
      dxz     :     0.009759
      dyz     :     0.014258
      dx2y2   :     0.012165
      dxy     :     0.016205

  2 C s       :     2.888382  s :     2.888382
      pz      :     1.040049  p :     3.075423
      px      :     0.994703
      py      :     1.040671
      dz2     :     0.021591  d :     0.097489
      dxz     :     0.012824
      dyz     :     0.024175
      dx2y2   :     0.015967
      dxy     :     0.022932

  3 H s       :     0.794937  s :     0.794937
      pz      :     0.020582  p :     0.078827
      px      :     0.036671
      py      :     0.021574

  4 H s       :     0.795382  s :     0.795382
      pz      :     0.039596  p :     0.079610
      px      :     0.012248
      py      :     0.027766

  5 C s       :     2.884726  s :     2.884726
      pz      :     1.037947  p :     3.035761
      px      :     0.991630
      py      :     1.006184
      dz2     :     0.019339  d :     0.128863
      dxz     :     0.013875
      dyz     :     0.040529
      dx2y2   :     0.023629
      dxy     :     0.031491

  6 H s       :     0.704046  s :     0.704046
      pz      :     0.054557  p :     0.115665
      px      :     0.026194
      py      :     0.034914

  7 C s       :     2.915115  s :     2.915115
      pz      :     1.044638  p :     3.222195
      px      :     1.090222
      py      :     1.087335
      dz2     :     0.015835  d :     0.064036
      dxz     :     0.008477
      dyz     :     0.018006
      dx2y2   :     0.004958
      dxy     :     0.016760

  8 C s       :     2.859672  s :     2.859672
      pz      :     0.972990  p :     2.740674
      px      :     0.884102
      py      :     0.883582
      dz2     :     0.066121  d :     0.297403
      dxz     :     0.046922
      dyz     :     0.054873
      dx2y2   :     0.053122
      dxy     :     0.076366

  9 H s       :     0.889095  s :     0.889095
      pz      :     0.009404  p :     0.040266
      px      :     0.019798
      py      :     0.011064

 10 N s       :     3.196314  s :     3.196314
      pz      :     1.506617  p :     3.990283
      px      :     1.160159
      py      :     1.323508
      dz2     :     0.011381  d :     0.058193
      dxz     :     0.004785
      dyz     :     0.011544
      dx2y2   :     0.010798
      dxy     :     0.019684

 11 O s       :     3.471811  s :     3.471811
      pz      :     1.550089  p :     4.615825
      px      :     1.667139
      py      :     1.398596
      dz2     :     0.008597  d :     0.050949
      dxz     :     0.004639
      dyz     :     0.013549
      dx2y2   :     0.009690
      dxy     :     0.014474

 12 H s       :     0.892910  s :     0.892910
      pz      :     0.012827  p :     0.039485
      px      :     0.007218
      py      :     0.019440

 13 O s       :     3.554109  s :     3.554109
      pz      :     1.507688  p :     4.611229
      px      :     1.450789
      py      :     1.652752
      dz2     :     0.012335  d :     0.057944
      dxz     :     0.020309
      dyz     :     0.008054
      dx2y2   :     0.009153
      dxy     :     0.008093

 14 H s       :     0.883614  s :     0.883614
      pz      :     0.014215  p :     0.039802
      px      :     0.006697
      py      :     0.018889

 15 H s       :     0.890005  s :     0.890005
      pz      :     0.014670  p :     0.040038
      px      :     0.008068
      py      :     0.017300

 16 H s       :     0.885764  s :     0.885764
      pz      :     0.007405  p :     0.040287
      px      :     0.017594
      py      :     0.015288

 17 H s       :     0.878429  s :     0.878429
      pz      :     0.020220  p :     0.039599
      px      :     0.006763
      py      :     0.012616

 18 H s       :     0.896134  s :     0.896134
      pz      :     0.022019  p :     0.038861
      px      :     0.007483
      py      :     0.009359

 19 H s       :     0.889850  s :     0.889850
      pz      :     0.014091  p :     0.040596
      px      :     0.007343
      py      :     0.019162

 20 H s       :     0.892128  s :     0.892128
      pz      :     0.022649  p :     0.039969
      px      :     0.008797
      py      :     0.008523

 21 H s       :     0.889609  s :     0.889609
      pz      :     0.009774  p :     0.039471
      px      :     0.016280
      py      :     0.013417



                      *****************************
                      * MAYER POPULATION ANALYSIS *
                      *****************************

  NA   - Mulliken gross atomic population
  ZA   - Total nuclear charge
  QA   - Mulliken gross atomic charge
  VA   - Mayer's total valence
  BVA  - Mayer's bonded valence
  FA   - Mayer's free valence

  ATOM       NA         ZA         QA         VA         BVA        FA
  0 C      6.1863     6.0000    -0.1863     3.8901     3.8901     0.0000
  1 C      6.3365     6.0000    -0.3365     3.8952     3.8952    -0.0000
  2 C      6.0611     6.0000    -0.0611     3.8942     3.8942     0.0000
  3 H      0.7586     1.0000     0.2414     0.9231     0.9231    -0.0000
  4 H      0.7546     1.0000     0.2454     0.9295     0.9295     0.0000
  5 C      6.0506     6.0000    -0.0506     3.8626     3.8626    -0.0000
  6 H      0.6847     1.0000     0.3153     0.9205     0.9205     0.0000
  7 C      6.3441     6.0000    -0.3441     3.8845     3.8845    -0.0000
  8 C      5.5053     6.0000     0.4947     3.9500     3.9500    -0.0000
  9 H      0.8882     1.0000     0.1118     0.9582     0.9582    -0.0000
 10 N      7.5568     7.0000    -0.5568     2.9110     2.9110     0.0000
 11 O      8.4511     8.0000    -0.4511     2.0402     2.0402     0.0000
 12 H      0.8925     1.0000     0.1075     0.9555     0.9555    -0.0000
 13 O      8.4217     8.0000    -0.4217     2.1071     2.1071    -0.0000
 14 H      0.8831     1.0000     0.1169     0.9588     0.9588    -0.0000
 15 H      0.8885     1.0000     0.1115     0.9606     0.9606    -0.0000
 16 H      0.8852     1.0000     0.1148     0.9576     0.9576    -0.0000
 17 H      0.8777     1.0000     0.1223     0.9530     0.9530     0.0000
 18 H      0.9044     1.0000     0.0956     0.9541     0.9541    -0.0000
 19 H      0.8861     1.0000     0.1139     0.9636     0.9636    -0.0000
 20 H      0.8891     1.0000     0.1109     0.9562     0.9562     0.0000
 21 H      0.8936     1.0000     0.1064     0.9544     0.9544    -0.0000

  Mayer bond orders larger than 0.100000
B(  0-C ,  1-C ) :   1.0100 B(  0-C ,  2-C ) :   0.9976 B(  0-C , 18-H ) :   0.9493 
B(  0-C , 19-H ) :   0.9384 B(  1-C , 12-H ) :   0.9620 B(  1-C , 20-H ) :   0.9605 
B(  1-C , 21-H ) :   0.9615 B(  2-C ,  5-C ) :   0.9599 B(  2-C ,  7-C ) :   1.0032 
B(  2-C , 14-H ) :   0.9285 B(  3-H , 10-N ) :   0.9077 B(  4-H , 10-N ) :   0.8979 
B(  5-C ,  8-C ) :   0.8955 B(  5-C , 10-N ) :   1.0558 B(  5-C , 17-H ) :   0.9219 
B(  6-H , 11-O ) :   0.8512 B(  7-C ,  9-H ) :   0.9521 B(  7-C , 15-H ) :   0.9514 
B(  7-C , 16-H ) :   0.9547 B(  8-C , 11-O ) :   1.0784 B(  8-C , 13-O ) :   1.9155 


-------
TIMINGS
-------

Total SCF time: 0 days 0 hours 0 min 6 sec 

Total time                  ....       6.288 sec
Sum of individual times     ....       5.867 sec  ( 93.3%)

SCF preparation             ....       0.026 sec  (  0.4%)
Fock matrix formation       ....       5.784 sec  ( 92.0%)
  Startup                   ....       0.001 sec  (  0.0% of F)
  Split-RI-J                ....       2.066 sec  ( 35.7% of F)
  XC integration            ....       4.122 sec  ( 71.3% of F)
    XC Preparation          ....       0.000 sec  (  0.0% of XC)
    Basis function eval.    ....       1.455 sec  ( 35.3% of XC)
    Density eval.           ....       0.929 sec  ( 22.5% of XC)
    XC-Functional eval.     ....       0.729 sec  ( 17.7% of XC)
    XC-Potential eval.      ....       0.904 sec  ( 21.9% of XC)
Diagonalization             ....       0.000 sec  (  0.0%)
Density matrix formation    ....       0.004 sec  (  0.1%)
Total Energy calculation    ....       0.001 sec  (  0.0%)
Population analysis         ....       0.003 sec  (  0.0%)
Orbital Transformation      ....       0.006 sec  (  0.1%)
Orbital Orthonormalization  ....       0.000 sec  (  0.0%)
DIIS solution               ....       0.027 sec  (  0.4%)
SOSCF solution              ....       0.016 sec  (  0.3%)
Finished LeanSCF after   6.3 sec

Maximum memory used throughout the entire LEANSCF-calculation: 21.6 MB



-------------------------------------------------------------------------------
                          DFT DISPERSION CORRECTION                            
-------------------------------------------------------------------------------
Active option DFTDOPT                   ...         2   
Final C6-coefficient scaling factor     ...     1.250
Final VDW-radii scaling factor          ...     1.100
Damping factor alpha                    ...    20.000
-------------------------   ----------------
Dispersion correction           -0.035489184
-------------------------   ----------------


-------------------------   --------------------
FINAL SINGLE POINT ENERGY      -441.404288230682
-------------------------   --------------------


------------------------------------------------------------------------------
                              ORCA PROPERTY CALCULATIONS
------------------------------------------------------------------------------

GBWName                                 ... 5.gbw
Number of atoms                         ...     22
Number of basis functions               ...    191
Max core memory                         ...   4096 MB

Electric properties:
Dipole moment                           ... YES
Quadrupole moment                       ...  NO
Static polarizability (Dipole/Dipole)   ...  NO
Static polarizability (Dipole/Quad.)    ...  NO
Static polarizability (Quad./Quad.)     ...  NO
Static polarizability (Velocity)        ...  NO
Static hyperpolarizability              ...  NO

Atomic electric properties:
Dipole moment                           ...  NO
Quadrupole moment                       ...  NO
Static polarizability                   ...  NO

Choice of electric origin               ... Center of mass
Position of electric origin             ...   -14.308133     7.862418    -0.630057

General magnetic properties:
Magnetizability                         ...  NO

EPR properties:
g-Tensor (aka g-matrix)                 ...  NO
Zero-Field splitting spin-orbit         ...  NO
Zero-field splitting spin-spin          ...  NO
Hyperfine couplings                     ...  NO (   0 nuclei)
Quadrupole couplings                    ...  NO (   0 nuclei)
Contact density                         ...  NO (   0 nuclei)

NMR properties:
Chemical shifts                         ...  NO (   0 nuclei)
Spin-rotation constants                 ...  NO (   0 nuclei)
Spin-spin couplings                     ...  NO (   0 nuclei,    0 pairs)

Choice of magnetic origin               ... GIAO
Position of magnetic origin             ...     0.000000     0.000000     0.000000

Properties with geometric perturbations:
SCF Hessian                             ...  NO
IR spectrum                             ...  NO
VCD spectrum                            ...  NO
X-ray spectroscopy properties:
SCF XES/XAS/RIXS spectra                ...  NO

SCF SOC stabilization energy            ...  NO
Diagonal Born-Oppenheimer correction    ...  NO

-------------
DIPOLE MOMENT
-------------

Method             : SCF
Type of density    : Electron Density
Multiplicity       :   1
Irrep              :   0
Energy             :  -441.3687990465135158 Eh
Basis              : AO
                                X                 Y                 Z
Electronic contribution:      9.420910096      -5.899997056      -3.119017978
Nuclear contribution   :     -9.760057505       5.460517107       3.045148497
                        -----------------------------------------
Total Dipole Moment    :     -0.339147410      -0.439479949      -0.073869480
                        -----------------------------------------
Magnitude (a.u.)       :      0.560018117
Magnitude (Debye)      :      1.423452929



--------------------
Rotational spectrum 
--------------------
 
Rotational constants in cm-1:             0.079276             0.036623             0.031863 
Rotational constants in MHz :          2376.641652          1097.917329           955.217527 

Dipole components along the rotational axes: 
x,y,z [a.u.] :     0.167845    -0.530917     0.059795 
x,y,z [Debye]:     0.426628    -1.349484     0.151988 

 

Dipole moment calculation done in   0.0 sec 

Maximum memory used throughout the entire PROP-calculation: 12.2 MB

--------------------------------
SUGGESTED CITATIONS FOR THIS RUN
--------------------------------

Below you find a list of papers that are relevant to this ORCA run
We neither can nor want to force you to cite these papers, but we appreciate if you do
You receive ORCA, which is the product of decades of hard work by many enthusiastic individuals, for free
The only thing we kindly ask in return is that you cite our papers,
We deeply appreciate it, if you show your appreciation for ORCA by not just citing the generic ORCA reference.

Please note that relegating all ORCA citations to the supporting information does *not* help us.
SI sections are not indexed - citations you put there will not count into any citation statistics
But we need these citations in order to attract the funding resources that allow us to do what we are doing

Therefore, if you are a happy ORCA user, please consider citing a few of the papers listed below in the main body of your paper

In addition to the list printed below, the program has created the file 5.bibtex that contains the list in bibtex format
You can import this file easily into all common literature databanks and citation aid programs


List of essential papers. We consider these as the minimum necessary citations

  1. Neese, F.
     Software update: the ORCA program system, version 6.0
     WIRES Comput. Molec. Sci. 2025 15(1), e70019
     doi.org/10.1002/wcms.7019

List of papers to cite with high priority. The work reported in these papers was absolutely
necessary for this run to complete.
Our perspective: the developers of density functionals and basis sets usually get cited in chemistry papers
Good! But without the algorithms to do something with them, the functionals or basis sets would not do anything.
Hence, in our opinion, the algorithm design and method developments papers are equally worthy of getting cited

  1. Neese, F.
     An improvement of the resolution of the identity approximation for the formation of the Coulomb matrix
     J. Comp. Chem. 2003 24(14), 1740-1747
     doi.org/10.1002/jcc.10318
  2. Grimme, S.
     Semiempirical GGA-type density functional constructed with a long-range dispersion correction
     J.Comput.Chem. 2006 27(15), 1787-1799
     doi.org/10.1002/jcc.20495
  3. Neese, F.
     The SHARK Integral Generation and Digestion System
     J. Comp. Chem. 2022 44(3), 381
     doi.org/10.1002/jcc.26942

List of suggested additional citations. These are papers that are important in the 'surrounding' of 
of this run, or papers that preceded the highly important papers. If you like your results we are grateful for a citation.

  1. Neese, F.
     The ORCA program system
     WIRES Comput. Molec. Sci. 2012 2(1), 73-78
     doi.org/10.1002/wcms.81
  2. Neese, F.
     Software update: the ORCA program system, version 4.0
     WIRES Comput. Molec. Sci. 2018 8(1), 1-6
     doi.org/10.1002/wcms.1327
  3. Neese, F.; Wennmohs, F.; Becker, U.; Riplinger, C.
     The ORCA quantum chemistry program package
     J. Chem. Phys. 2020 152(22), 224108
     doi.org/10.1063/5.0004608
  4. Neese, F.
     Software update: The ORCA program system—Version 5.0
     WIRES Comput. Molec. Sci. 2022 12(1), e1606
     doi.org/10.1002/wcms.1606

List of optional additional citations

  1. Neese, F.
     Approximate second-order SCF convergence for spin unrestricted wavefunctions
     Chem. Phys. Lett. 2000 325(1-3), 93-98
     doi.org/10.1016/s0009-2614(00)00662-x

Timings for individual modules:

Sum of individual times          ...        7.098 sec (=   0.118 min)
Startup calculation              ...        0.454 sec (=   0.008 min)   6.4 %
SCF iterations                   ...        6.612 sec (=   0.110 min)  93.2 %
Property calculations            ...        0.031 sec (=   0.001 min)   0.4 %
                             ****ORCA TERMINATED NORMALLY****
TOTAL RUN TIME: 0 days 0 hours 0 minutes 7 seconds 138 msec
