
                                 *****************
                                 * O   R   C   A *
                                 *****************

                                            #,                                       
                                            ###                                      
                                            ####                                     
                                            #####                                    
                                            ######                                   
                                           ########,                                 
                                     ,,################,,,,,                         
                               ,,#################################,,                 
                          ,,##########################################,,             
                       ,#########################################, ''#####,          
                    ,#############################################,,   '####,        
                  ,##################################################,,,,####,       
                ,###########''''           ''''###############################       
              ,#####''   ,,,,##########,,,,          '''####'''          '####       
            ,##' ,,,,###########################,,,                        '##       
           ' ,,###''''                  '''############,,,                           
         ,,##''                                '''############,,,,        ,,,,,,###''
      ,#''                                            '''#######################'''  
     '                                                          ''''####''''         
             ,#######,   #######,   ,#######,      ##                                
            ,#'     '#,  ##    ##  ,#'     '#,    #''#        ,####,    ,#,          
            ##       ##  ##   ,#'  ##            #'  '#       #'       ,# #          
            ##       ##  #######   ##           ,######,      #####,      #          
            '#,     ,#'  ##    ##  '#,     ,#' ,#      #,     #,   #      #          
             '#######'   ##     ##  '#######'  #'      '#     '####' #    #          



                #########################################################
                #                        -***-                          #
                #          Department of theory and spectroscopy        #
                #                                                       #
                #                      Frank Neese                      #
                #                                                       #
                #     Directorship, Architecture, Infrastructure        #
                #                    SHARK, DRIVERS                     #
                #        Core code/Algorithms in most modules           #
                #                                                       #
                #        Max Planck Institute fuer Kohlenforschung      #
                #                Kaiser Wilhelm Platz 1                 #
                #                 D-45470 Muelheim/Ruhr                 #
                #                      Germany                          #
                #                                                       #
                #                  All rights reserved                  #
                #                        -***-                          #
                #########################################################


                         Program Version 6.1.0  -  RELEASE   -
                                (GIT: $679e74b$)
                          ($2025-06-10 18:02:51 +0200$)


 With contributions from (in alphabetic order):
[Max-Planck-Institut fuer Kohlenforschung]                               
  Daniel Aravena         : Magnetic Suceptibility                        
  Michael Atanasov       : Ab Initio Ligand Field Theory (pilot matlab implementation)
  Alexander A. Auer      : GIAO ZORA, VPT2 properties, NMR spectrum      
  Ute Becker             : All parallelization in ORCA, NUMFREQ, NUMCALC 
  Giovanni Bistoni       : ED, misc. LED, open-shell LED, HFLD           
  Dmytro Bykov           : pre 5.0 version of the SCF Hessian            
  Marcos Casanova-Páez   : Triplet and SCS-CIS(D). UHF-(DLPNO)-IP/EA/STEOM-CCSD. UHF-CVS-IP/STEOM-CCSD   
  Vijay G. Chilkuri      : MRCI spin determinant printing, contributions to CSF-ICE 
  Pauline Colinet        : FMM embedding                                 
  Dipayan Datta          : RHF DLPNO-CCSD density                        
  Achintya Kumar Dutta   : EOM-CC, STEOM-CC                              
  Nicolas Foglia         : Exact transition moments, OPA infrastructure, MCD improvements    
  Dmitry Ganyushin       : Spin-Orbit,Spin-Spin,Magnetic field MRCI      
  Miquel Garcia-Rates    : C-PCM and meta-GGA Hessian, CCSD/C-PCM, Gaussian charge scheme 
  Tiago L. C. Gouveia    : GS-ROHF, GS-ROCIS                             
  Yang Guo               : DLPNO-NEVPT2, F12-NEVPT2, CIM, IAO-localization        
  Andreas Hansen         : Spin unrestricted coupled pair/coupled cluster methods 
  Ingolf Harden          : AUTO-CI MPn and infrastructure                
  Benjamin Helmich-Paris : MC-RPA, TRAH-(SCF,CASSCF), AVAS, COSX integrals, SCF dyn. polar., MC-PDFT, srDFT 
  Lee Huntington         : MR-EOM, pCC                                   
  Robert Izsak           : Overlap fitted RIJCOSX, COSX-SCS-MP3, EOM     
  Riya Kayal             : Wick's Theorem for AUTO-CI, AUTO-CI UHF-CCSDT 
  Emily Kempfer          : AUTO-CI RHF CISDT and CCSDT, approximate NEVPT4
  Christian Kollmar      : KDIIS, OOCD, Brueckner-CCSD(T), CCSD density, CASPT2, CASPT2-K, improved NEVPT2 
  Axel Koslowski         : Symmetry handling                             
  Simone Kossmann        : meta-GGA functionals, TD-DFT gradient, OOMP2, (MP2 Hessian; deprecated post 5.0) 
  Lucas Lang             : DCDCAS, Hyperfine gauge corrections, ICE-SOC+SSC
  Marvin Lechner         : AUTO-CI (C++ implementation), FIC-MRCC        
  Spencer Leger          : CASSCF response                               
  Dagmar Lenk            : GEPOL surface, SMD, ORCA-2-JSON               
  Dimitrios Liakos       : Extrapolation schemes; Compound Job, Property file
  Dimitrios Manganas     : Further ROCIS development; embedding schemes. LFT, Crystal Embedding 
  Dimitrios Pantazis     : SARC Basis sets                               
  Anastasios Papadopoulos: AUTO-CI, single reference methods and gradients 
  Taras Petrenko         : pre 6.0 DFT Hessian and TD-DFT gradient,  ECA, NRVS 
  Petra Pikulova         : Analytic Raman intensities                    
  Peter Pinski           : DLPNO-MP2, DLPNO-MP2 Gradient                 
  Shashank Vittal Rao    : ES-AILFT, MagRelax                            
  Christoph Reimann      : Effective Core Potentials                     
  Marius Retegan         : Local ZFS, SOC                                
  Christoph Riplinger    : Optimizer, TS searches, QM/MM, DLPNO-CCSD(T), (RO)-DLPNO pert. Triples 
  Michael Roemelt        : Original ROCIS implementation, recursive CI coupling coefficients
  Masaaki Saitow         : Open-shell DLPNO-CCSD energy and density      
  Barbara Sandhoefer     : DKH picture change effects                    
  Yorick L. A. Schmerwitz: GMF and freeze-and-release deltaSCF, NEB S-IDPP initial path                    
  Kantharuban Sivalingam : CASSCF convergence/infrastructure, NEVPT2, NEVPT3, NEVPT4(SD), FIC-MRCI and CEPA variants
  Bernardo de Souza      : ESD, SOC TD-DFT                               
  Georgi L. Stoychev     : AutoAux, RI-MP2 NMR, DLPNO-MP2 response, X2C  
  Van Anh Tran           : RI-MP2 g-tensors                              
  Willem Van den Heuvel  : Paramagnetic NMR                              
  Zikuan Wang            : NOTCH, Electric field optimization            
  Frank Wennmohs         : Technical directorship and infrastructure     
  Hang Xu                : AUTO-CI-Response properties                   
                                                                         
[FACCTs GmbH]                                                            
  Markus Bursch, Nicolas Foglia, Miquel Garcia-Rates, Ingolf Harden, Hagen Neugebauer, Anastasios Papadopoulos, 
  Christoph Riplinger, Bernardo de Souza, Georgi L. Stoychev                                                    
                                                                 
  APM, various basis sets, CI-OPT, improved COSX, DLPNO-Multilevel,           
  DOCKER, DRACO, updates on ESD, Fragmentator, GOAT, IRC, LR-CPCM, L-BFGS, MBIS, meta-GGA TD-DFT gradient, ML-optimized integration grids, 
  MM, NACMEs, nearIR, NEB, NEB-TS, NL-DFT gradient (VV10), 2- and 3-layer-ONIOM, interface openCOSMO-RS, QMMM,   
  Crystal-QMMM, RESP, rigid body optimization, SF, symmetry and pop. for TD-DFT, various functionals, SOLVATOR                                   
                                                                         
[Other institutions]                                                     
  V. Asgeirsson          : NEB                                           
  Christoph Bannwarth    : sTDA-DFT, sTD-DFT, PBEh-3c, B97-3c, D3        
  Giovanni Bistoni       : ETS/NOCV, ADLD/ADEX, COVALED                  
  Martin Brehm           : Molecular dynamics                            
  Ronald Cardenas        : ETS/NOCV                                      
  Martina Colucci        : COVALED                                       
  Sebastian Ehlert       : rSCAN, r2SCAN, r2SCAN-3c, D4, dhf basis sets  
  Marvin Friede          : D4 for Fr, Ra, Ac-Lr                          
  Lars Goerigk           : TD-DFT with DH, B97 family of functionals     
  Stefan Grimme          : VdW corrections, initial TS optimization, DFT functionals, gCP, sTDA/sTD-DF 
  Waldemar Hujo          : DFT-NL                                        
  H. Jonsson             : NEB                                           
  Holger Kruse           : gCP                                           
  Marcel Mueller         : wB97X-3c, vDZP basis set                      
  Hagen Neugebauer       : wr2SCAN, Native XTB                           
  Gianluca Regni         : ADLD/ADEX                                     
  Tobias Risthaus        : pre 6.0 range-separated hybrid DFT and stability analysis
  Lukas Wittmann         : regularized MP2, r2SCAN double-hybrids, wr2SCAN        
                                                                         
We gratefully acknowledge several colleagues who have allowed us to      
interface, adapt or use parts of their codes:                            
  Ed Valeev, F. Pavosevic, A. Kumar             : LibInt (2-el integral package), F12 methods 
  Garnet Chan, S. Sharma, J. Yang, R. Olivares  : DMRG                   
  Ulf Ekstrom                                   : XCFun DFT Library      
  Mihaly Kallay                                 : mrcc  (arbitrary order and MRCC methods)
  Frank Weinhold                                : gennbo (NPA and NBO analysis)           
  Simon Mueller                                 : openCOSMO-RS                            
  Christopher J. Cramer and Donald G. Truhlar   : smd solvation model                     
  S Lehtola, MJT Oliveira, MAL Marques          : LibXC Library                           
  Liviu Ungur et al                             : ANISO software                          


 Your calculation uses the libint2 library for the computation of 2-el integrals
 For citations please refer to: http://libint.valeyev.net

 Your ORCA version has been built with support for libXC version: 7.0.0
 For citations please refer to: https://libxc.gitlab.io

 This ORCA versions uses:
   CBLAS   interface :  Fast vector & matrix operations
   LAPACKE interface :  Fast linear algebra routines
   SCALAPACK package :  Parallel linear algebra routines
   Shared memory     :  Shared parallel matrices
   BLAS/LAPACK       :  OpenBLAS 0.3.29  USE64BITINT DYNAMIC_ARCH NO_AFFINITY Haswell SINGLE_THREADED
        Core in use  :  Haswell
   Copyright (c) 2011-2014, The OpenBLAS Project


  ***********************************
  * Starting time: Sun Aug 10 12:43:46 2025
  * Host name:     chemlab03
  * Process ID:    1801767
  * Working dir.:  /home/test/Desktop/Aishani MM/attachments
  ***********************************



***************************************
The coordinates will be read from file: q.xyz
***************************************


Your calculation utilizes the semiempirical GFN2-xTB method
Please cite in your paper:
Bannwarth, C.; Ehlert S.; Grimme, S. J. Chem. Theory Comput. 2019, 15, 1652.
   

================================================================================

================================================================================
                                        WARNINGS
                       Please study these warnings very carefully!
================================================================================


================================================================================
 STARTING AUTOMATIC FRAGMENTATION: 
================================================================================

WARNING: Geometry Optimization
  ===> : Switching off AutoStart
         For restart on a previous wavefunction, please use MOREAD

WARNING: Found dipole moment calculation with XTB calculation
  ===> : Switching off dipole moment calculation


================================================================================
                                       INPUT FILE
================================================================================
NAME = q.inp
|  1> ! xtb goat
|  2> 
|  3> * xyzfile 0 1 q.xyz
|  4> 
|  5>                          ****END OF INPUT****
================================================================================

                       *****************************
                       * Geometry Optimization Run *
                       *****************************


                       *********************************
                       *              GOAT             *
                       * Global Optimization Algorithm *
                       *********************************

Geometry optimization settings:
Update method            Update   .... BFGS
Choice of coordinates    CoordSys .... (2022) Redundant Internals
Initial Hessian          InHess   .... Almloef's Model
Max. no of cycles        MaxIter  .... 60

Convergence Tolerances:
Energy Change            TolE     ....  5.0000e-06 Eh
Max. Gradient            TolMAXG  ....  3.0000e-04 Eh/bohr
RMS Gradient             TolRMSG  ....  1.0000e-04 Eh/bohr
Max. Displacement        TolMAXD  ....  4.0000e-03 bohr
RMS Displacement         TolRMSD  ....  2.0000e-03 bohr
Strict Convergence                .... True

------------------------------------------------------------------------------
                        ORCA OPTIMIZATION COORDINATE SETUP
------------------------------------------------------------------------------

The optimization will be done in redundant internal coordinates (2022)
Making redundant internal coordinates   ...  (2022 redundants) done
Evaluating the initial hessian          ...  (Almloef) done
Evaluating the coordinates              ...  done
Calculating the B-matrix                .... done
Calculating the G-matrix                .... done
The number of degrees of freedom        ....   83

    -----------------------------------------------------------------
                    Redundant Internal Coordinates


    -----------------------------------------------------------------
         Definition                    Initial Value    Approx d2E/dq
    -----------------------------------------------------------------
      1. B(C   1,C   0)                  1.5348         0.367050   
      2. B(C   4,C   0)                  1.5317         0.371299   
      3. B(O   5,C   1)                  1.3467         0.655989   
      4. B(H   6,O   5)                  0.9801         0.482885   
      5. B(O   7,C   1)                  1.2223         1.036129   
      6. B(C   8,C   4)                  1.5293         0.374473   
      7. B(N   9,C   0)                  1.4828         0.397914   
      8. B(N   9,H   3)                  1.0234         0.411889   
      9. B(N   9,H   2)                  1.0236         0.411669   
     10. B(H  10,C   0)                  1.0961         0.352151   
     11. B(H  11,C   4)                  1.0981         0.349574   
     12. B(H  12,C   4)                  1.0985         0.349010   
     13. B(C  13,C   8)                  1.5125         0.398397   
     14. B(H  14,C   8)                  1.0961         0.352124   
     15. B(H  15,C   8)                  1.0960         0.352312   
     16. B(O  16,C  13)                  1.2241         1.029209   
     17. B(N  17,C  13)                  1.3644         0.614754   
     18. B(H  18,N  17)                  1.0102         0.432389   
     19. B(H  19,N  17)                  1.0115         0.430328   
     20. A(C   4,C   0,N   9)          110.6021         0.364627   
     21. A(C   1,C   0,N   9)          109.7449         0.363910   
     22. A(C   1,C   0,C   4)          110.6103         0.361882   
     23. A(N   9,C   0,H  10)          107.7358         0.324547   
     24. A(C   1,C   0,H  10)          107.5118         0.322201   
     25. A(C   4,C   0,H  10)          110.5430         0.322809   
     26. A(C   0,C   1,O   7)          126.1925         0.430399   
     27. A(O   5,C   1,O   7)          120.4407         0.475145   
     28. A(C   0,C   1,O   5)          113.3313         0.396844   
     29. A(C   0,C   4,C   8)          112.8592         0.363121   
     30. A(H  11,C   4,H  12)          105.6046         0.288074   
     31. A(C   0,C   4,H  11)          109.2209         0.322421   
     32. A(C   8,C   4,H  12)          109.6119         0.322786   
     33. A(C   0,C   4,H  12)          110.1782         0.322336   
     34. A(C   8,C   4,H  11)          109.1027         0.322871   
     35. A(C   1,O   5,H   6)          104.3351         0.369002   
     36. A(H  14,C   8,H  15)          108.4046         0.288827   
     37. A(C  13,C   8,H  15)          107.8797         0.326591   
     38. A(C  13,C   8,H  14)          108.0513         0.326563   
     39. A(C   4,C   8,H  14)          109.9832         0.323256   
     40. A(C   4,C   8,C  13)          111.8957         0.367527   
     41. A(C   4,C   8,H  15)          110.5166         0.323284   
     42. A(H   2,N   9,H   3)          103.5394         0.298502   
     43. A(C   0,N   9,H   3)          107.7639         0.330207   
     44. A(C   0,N   9,H   2)          107.9081         0.330178   
     45. A(O  16,C  13,N  17)          120.9775         0.468935   
     46. A(C   8,C  13,N  17)          114.0680         0.398033   
     47. A(C   8,C  13,O  16)          124.9515         0.436264   
     48. A(H  18,N  17,H  19)          118.8853         0.302954   
     49. A(C  13,N  17,H  19)          117.5849         0.357815   
     50. A(C  13,N  17,H  18)          122.7648         0.358106   
     51. D(O   5,C   1,C   0,C   4)     61.9134         0.010101   
     52. D(O   5,C   1,C   0,N   9)   -175.7827         0.010101   
     53. D(O   5,C   1,C   0,H  10)    -58.8696         0.010101   
     54. D(O   7,C   1,C   0,C   4)   -120.2617         0.010101   
     55. D(O   7,C   1,C   0,N   9)      2.0422         0.010101   
     56. D(C   8,C   4,C   0,N   9)     59.3639         0.011016   
     57. D(C   8,C   4,C   0,C   1)   -178.8352         0.011016   
     58. D(H  11,C   4,C   0,N   9)   -179.0954         0.011016   
     59. D(H  11,C   4,C   0,C   1)    -57.2945         0.011016   
     60. D(H  11,C   4,C   0,H  10)     61.6683         0.011016   
     61. D(C   8,C   4,C   0,H  10)    -59.8724         0.011016   
     62. D(H   6,O   5,C   1,O   7)      1.8742         0.031851   
     63. D(H   6,O   5,C   1,C   0)    179.8382         0.031851   
     64. D(C  13,C   8,C   4,H  11)     52.8930         0.011194   
     65. D(C  13,C   8,C   4,C   0)    174.5005         0.011194   
     66. D(H  14,C   8,C   4,H  12)    177.6042         0.011194   
     67. D(H  14,C   8,C   4,H  11)    -67.2065         0.011194   
     68. D(H  14,C   8,C   4,C   0)     54.4010         0.011194   
     69. D(C  13,C   8,C   4,H  12)    -62.2963         0.011194   
     70. D(H   3,N   9,C   0,C   4)    176.1368         0.013522   
     71. D(H   3,N   9,C   0,C   1)     53.8281         0.013522   
     72. D(H   2,N   9,C   0,H  10)   -174.1601         0.013522   
     73. D(H   2,N   9,C   0,C   4)     64.9212         0.013522   
     74. D(H   2,N   9,C   0,C   1)    -57.3876         0.013522   
     75. D(N  17,C  13,C   8,H  14)    -60.3668         0.011784   
     76. D(N  17,C  13,C   8,C   4)    178.4104         0.011784   
     77. D(O  16,C  13,C   8,H  15)   -123.9829         0.011784   
     78. D(O  16,C  13,C   8,H  14)    119.0126         0.011784   
     79. D(O  16,C  13,C   8,C   4)     -2.2101         0.011784   
     80. D(H  18,N  17,C  13,O  16)    172.7992         0.030562   
     81. D(H  18,N  17,C  13,C   8)     -7.7940         0.030562   
     82. D(H  19,N  17,C  13,O  16)      2.9417         0.030562   
     83. D(H  19,N  17,C  13,C   8)   -177.6515         0.030562   
    -----------------------------------------------------------------

Number of atoms                         .... 20
Number of degrees of freedom            .... 83


         *************************************************************
         *                GEOMETRY OPTIMIZATION CYCLE   1            *
         *************************************************************
---------------------------------
CARTESIAN COORDINATES (ANGSTROEM)
---------------------------------
  C     1.352245    2.551543   -0.508345
  C     2.500186    3.525505   -0.209637
  H     0.220334    3.228091    1.053994
  H    -0.041444    4.032050   -0.313740
  C     1.656066    1.166340    0.070360
  O     3.670897    3.155994   -0.763354
  H     4.298705    3.859458   -0.495663
  O     2.416367    4.567322    0.424109
  C     0.555661    0.145551   -0.222894
  N     0.085705    3.083794    0.049631
  H     1.240621    2.497379   -1.597376
  H     2.604812    0.801261   -0.344813
  H     1.815323    1.235450    1.155070
  C     0.936395   -1.242997    0.240354
  H     0.362030    0.102773   -1.300905
  H    -0.374092    0.426501    0.284783
  O     2.007709   -1.542699    0.751206
  N    -0.029393   -2.183762    0.030991
  H    -0.958918   -1.951203   -0.289016
  H     0.155060   -3.124346    0.354121

----------------------------
CARTESIAN COORDINATES (A.U.)
----------------------------
  NO LB    ZA    FRAG    MASS        X           Y           Z
   0 C   6.0000    1    12.011    2.555372    4.821717   -0.960633
   1 C   6.0000    1    12.011    4.724668    6.662239   -0.396156
   2 H   1.0000    1     1.008    0.416370    6.100207    1.991760
   3 H   1.0000    1     1.008   -0.078318    7.619470   -0.592882
   4 C   6.0000    1    12.011    3.129511    2.204063    0.132961
   5 O   8.0000    1    15.999    6.936990    5.963964   -1.442531
   6 H   1.0000    1     1.008    8.123375    7.293318   -0.936667
   7 O   8.0000    1    15.999    4.566272    8.630988    0.801450
   8 C   6.0000    1    12.011    1.050048    0.275051   -0.421209
   9 N   7.0000    1    14.007    0.161959    5.827526    0.093789
  10 H   1.0000    1     1.008    2.344433    4.719363   -3.018604
  11 H   1.0000    1     1.008    4.922381    1.514164   -0.651602
  12 H   1.0000    1     1.008    3.430463    2.334663    2.182766
  13 C   6.0000    1    12.011    1.769530   -2.348924    0.454203
  14 H   1.0000    1     1.008    0.684138    0.194212   -2.458353
  15 H   1.0000    1     1.008   -0.706931    0.805970    0.538162
  16 O   8.0000    1    15.999    3.794020   -2.915279    1.419574
  17 N   7.0000    1    14.007   -0.055544   -4.126711    0.058564
  18 H   1.0000    1     1.008   -1.812093   -3.687240   -0.546161
  19 H   1.0000    1     1.008    0.293020   -5.904158    0.669192

      -----------------------------------------------------------      
     |                   =====================                   |     
     |                           x T B                           |     
     |                   =====================                   |     
     |                         S. Grimme                         |     
     |          Mulliken Center for Theoretical Chemistry        |     
     |                    University of Bonn                     |     
      -----------------------------------------------------------      

   * xtb version 6.7.1 (edcfbbe) compiled by 'albert@albert-system' on 2024-07-22

   xtb is free software: you can redistribute it and/or modify it under
   the terms of the GNU Lesser General Public License as published by
   the Free Software Foundation, either version 3 of the License, or
   (at your option) any later version.
   
   xtb is distributed in the hope that it will be useful,
   but WITHOUT ANY WARRANTY; without even the implied warranty of
   MERCHANTABILITY or FITNESS FOR A PARTICULAR PURPOSE.  See the
   GNU Lesser General Public License for more details.
   
   Cite this work as:
   * C. Bannwarth, E. Caldeweyher, S. Ehlert, A. Hansen, P. Pracht,
     J. Seibert, S. Spicher, S. Grimme, WIREs Comput. Mol. Sci., 2020, 11,
     e01493. DOI: 10.1002/wcms.1493
   
   for GFN2-xTB:
   * C. Bannwarth, S. Ehlert and S. Grimme., J. Chem. Theory Comput., 2019,
     15, 1652-1671. DOI: 10.1021/acs.jctc.8b01176
   for GFN1-xTB:
   * S. Grimme, C. Bannwarth, P. Shushkov, J. Chem. Theory Comput., 2017,
     13, 1989-2009. DOI: 10.1021/acs.jctc.7b00118
   for GFN0-xTB:
   * P. Pracht, E. Caldeweyher, S. Ehlert, S. Grimme, ChemRxiv, 2019, preprint.
     DOI: 10.26434/chemrxiv.8326202.v1
   for GFN-FF:
   * S. Spicher and S. Grimme, Angew. Chem. Int. Ed., 2020, 59, 15665-15673.
     DOI: 10.1002/anie.202004239
   
   for ALPB and GBSA implicit solvation:
   * S. Ehlert, M. Stahn, S. Spicher, S. Grimme, J. Chem. Theory Comput.,
     2021, 17, 4250-4261. DOI: 10.1021/acs.jctc.1c00471
   
   for ddCOSMO and CPCM-X implicit solvation:
   * M. Stahn, S. Ehlert, S. Grimme, J. Phys. Chem. A,
     2023, XX, XXXX-XXXX. DOI: 10.1021/acs.jpca.3c04382
   
   for DFT-D4:
   * E. Caldeweyher, C. Bannwarth and S. Grimme, J. Chem. Phys., 2017,
     147, 034112. DOI: 10.1063/1.4993215
   * E. Caldeweyher, S. Ehlert, A. Hansen, H. Neugebauer, S. Spicher,
     C. Bannwarth and S. Grimme, J. Chem. Phys., 2019, 150, 154122.
     DOI: 10.1063/1.5090222
   * E. Caldeweyher, J.-M. Mewes, S. Ehlert and S. Grimme, Phys. Chem. Chem. Phys.
     2020, 22, 8499-8512. DOI: 10.1039/D0CP00502A
   
   for sTDA-xTB:
   * S. Grimme and C. Bannwarth, J. Chem. Phys., 2016, 145, 054103.
     DOI: 10.1063/1.4959605
   
   in the mass-spec context:
   * V. Asgeirsson, C. Bauer and S. Grimme, Chem. Sci., 2017, 8, 4879.
     DOI: 10.1039/c7sc00601b
   * J. Koopman and S. Grimme, ACS Omega 2019, 4, 12, 15120-15133.
     DOI: 10.1021/acsomega.9b02011
   
   for metadynamics refer to:
   * S. Grimme, J. Chem. Theory Comput., 2019, 155, 2847-2862
     DOI: 10.1021/acs.jctc.9b00143
   
   for SPH calculations refer to:
   * S. Spicher and S. Grimme, J. Chem. Theory Comput., 2021, 17, 1701-1714
     DOI: 10.1021/acs.jctc.0c01306
   
   for ONIOM refer to:
   * C. Plett, A. Katbashev, S. Ehlert, S. Grimme, M. Bursch,
     Phys. Chem. Chem. Phys., 2023, 25, 17860-17868. DOI: 10.1039/D3CP02178E
   
   for DIPRO refer to:
   * J. Kohn, N. Gildemeister, S. Grimme, D. Fazzi, A. Hansen,
     J. Chem. Phys., 2023, just accepted.
   
   for PTB refer to:
   * S. Grimme, M. Mueller, A. Hansen, J. Chem. Phys., 2023, 158, 124111.
     DOI: 10.1063/5.0137838
   
   with help from (in alphabetical order)
   P. Atkinson, C. Bannwarth, F. Bohle, G. Brandenburg, E. Caldeweyher
   M. Checinski, S. Dohm, S. Ehlert, S. Ehrlich, I. Gerasimov, C. Hölzer
   A. Katbashev, J. Kohn, J. Koopman, C. Lavigne, S. Lehtola, F. März, M. Müller,
   F. Musil, H. Neugebauer, J. Pisarek, C. Plett, P. Pracht, F. Pultar,
   J. Seibert, P. Shushkov, S. Spicher, M. Stahn, M. Steiner, T. Strunk,
   J. Stückrath, T. Rose, and J. Unsleber
   
 * started run on 2025/08/10 at 12:43:46.852     
   ID    Z sym.   atoms
    1    6 C      1, 2, 5, 9, 14
    2    1 H      3, 4, 7, 11-13, 15, 16, 19, 20
    3    8 O      6, 8, 17
    4    7 N      10, 18

           -------------------------------------------------
          |                Calculation Setup                |
           -------------------------------------------------

          program call               : /home/test/orca/orca_6_1_0_linux_x86-64_shared_openmpi418/otool_xtb q_XTB.xyz --grad -c 0 -u 0 -P 1 --namespace q --input q_XTB.input.tmp --acc 0.200000
          calculation namespace      : q
          coordinate file            : q_XTB.xyz
          omp threads                :                     1


           -------------------------------------------------
          |                 G F N 2 - x T B                 |
           -------------------------------------------------

        Reference                      10.1021/acs.jctc.8b01176
      * Hamiltonian:
        H0-scaling (s, p, d)           1.850000    2.230000    2.230000
        zeta-weighting                 0.500000
      * Dispersion:
        s8                             2.700000
        a1                             0.520000
        a2                             5.000000
        s9                             5.000000
      * Repulsion:
        kExp                           1.500000    1.000000
        rExp                           1.000000
      * Coulomb:
        alpha                          2.000000
        third order                    shell-resolved
        anisotropic                    true
        a3                             3.000000
        a5                             4.000000
        cn-shift                       1.200000
        cn-exp                         4.000000
        max-rad                        5.000000


          ...................................................
          :                      SETUP                      :
          :.................................................:
          :  # basis functions                  50          :
          :  # atomic orbitals                  50          :
          :  # shells                           30          :
          :  # electrons                        58          :
          :  max. iterations                   250          :
          :  Hamiltonian                  GFN2-xTB          :
          :  restarted?                      false          :
          :  GBSA solvation                  false          :
          :  PC potential                    false          :
          :  electronic temp.          300.0000000     K    :
          :  accuracy                    0.2000000          :
          :  -> integral cutoff          0.3198970E+02      :
          :  -> integral neglect         0.2000000E-08      :
          :  -> SCF convergence          0.2000000E-06 Eh   :
          :  -> wf. convergence          0.2000000E-04 e    :
          :  Broyden damping             0.4000000          :
          :  net charge                          0          :
          :  unpaired electrons                  0          :
          ...................................................

 iter      E             dE          RMSdq      gap      omega  full diag
   1    -34.0780846 -0.340781E+02  0.453E+00    4.24       0.0  T
   2    -34.1729816 -0.948970E-01  0.227E+00    3.79       1.0  T
   3    -34.1779684 -0.498677E-02  0.130E+00    4.00       1.0  T
   4    -34.1796063 -0.163793E-02  0.246E-01    3.59       1.0  T
   5    -34.1804334 -0.827093E-03  0.876E-02    3.65       1.0  T
   6    -34.1804409 -0.750198E-05  0.374E-02    3.64       1.0  T
   7    -34.1804427 -0.182815E-05  0.933E-03    3.64       2.4  T
   8    -34.1804430 -0.343424E-06  0.455E-03    3.64       4.9  T
   9    -34.1804431 -0.354862E-07  0.152E-03    3.64      14.7  T
  10    -34.1804431 -0.831373E-08  0.555E-04    3.64      40.3  T
  11    -34.1804431 -0.195548E-08  0.206E-04    3.64     108.4  T
  12    -34.1804431 -0.107931E-09  0.570E-05    3.64     392.6  T
  13    -34.1804431 -0.990497E-11  0.253E-05    3.64     885.1  T

   *** convergence criteria satisfied after 13 iterations ***

         #    Occupation            Energy/Eh            Energy/eV
      -------------------------------------------------------------
         1        2.0000           -0.7522155             -20.4688
       ...           ...                  ...                  ...
        23        2.0000           -0.4738653             -12.8945
        24        2.0000           -0.4557974             -12.4029
        25        2.0000           -0.4441634             -12.0863
        26        2.0000           -0.4373188             -11.9000
        27        2.0000           -0.4206095             -11.4454
        28        2.0000           -0.3977963             -10.8246
        29        2.0000           -0.3867865             -10.5250 (HOMO)
        30                         -0.2528667              -6.8809 (LUMO)
        31                         -0.2128370              -5.7916
        32                         -0.0079473              -0.2163
        33                          0.0159811               0.4349
        34                          0.0343467               0.9346
       ...                                ...                  ...
        50                          0.6032503              16.4153
      -------------------------------------------------------------
                  HL-Gap            0.1339198 Eh            3.6441 eV
             Fermi-level           -0.3198266 Eh           -8.7029 eV

 SCC (total)                   0 d,  0 h,  0 min,  0.012 sec
 SCC setup                      ...        0 min,  0.000 sec (  0.888%)
 Dispersion                     ...        0 min,  0.000 sec (  0.553%)
 classical contributions        ...        0 min,  0.000 sec (  0.124%)
 integral evaluation            ...        0 min,  0.001 sec (  7.921%)
 iterations                     ...        0 min,  0.008 sec ( 65.474%)
 molecular gradient             ...        0 min,  0.003 sec ( 24.154%)
 printout                       ...        0 min,  0.000 sec (  0.771%)

         :::::::::::::::::::::::::::::::::::::::::::::::::::::
         ::                     SUMMARY                     ::
         :::::::::::::::::::::::::::::::::::::::::::::::::::::
         :: total energy             -33.852840134727 Eh    ::
         :: gradient norm              0.058726388774 Eh/a0 ::
         :: HOMO-LUMO gap              3.644142689886 eV    ::
         ::.................................................::
         :: SCC energy               -34.180438327966 Eh    ::
         :: -> isotropic ES            0.099589120837 Eh    ::
         :: -> anisotropic ES          0.003395193199 Eh    ::
         :: -> anisotropic XC          0.009715271309 Eh    ::
         :: -> dispersion             -0.013367492620 Eh    ::
         :: repulsion energy           0.327598193239 Eh    ::
         :: add. restraining           0.000000000000 Eh    ::
         :: total charge              -0.000000000000 e     ::
         :::::::::::::::::::::::::::::::::::::::::::::::::::::


Property printout bound to 'properties.out'

           -------------------------------------------------
          | TOTAL ENERGY              -33.852840134727 Eh   |
          | GRADIENT NORM               0.058726388774 Eh/α |
          | HOMO-LUMO GAP               3.644142689886 eV   |
           -------------------------------------------------

------------------------------------------------------------------------
 * finished run on 2025/08/10 at 12:43:46.874     
------------------------------------------------------------------------
 total:
 * wall-time:     0 d,  0 h,  0 min,  0.022 sec
 *  cpu-time:     0 d,  0 h,  0 min,  0.017 sec
 * ratio c/w:     0.771 speedup
 SCF:
 * wall-time:     0 d,  0 h,  0 min,  0.012 sec
 *  cpu-time:     0 d,  0 h,  0 min,  0.011 sec
 * ratio c/w:     0.909 speedup


-------------------------   --------------------
FINAL SINGLE POINT ENERGY       -33.852840134730
-------------------------   --------------------


-------------
DIPOLE MOMENT
-------------
                                X             Y             Z
Total Dipole Moment    :     -0.98400      -0.21900      -0.75700
                        -----------------------------------------
Magnitude (a.u.)       :      1.26066
Magnitude (Debye)      :      3.20435


------------------
CARTESIAN GRADIENT
------------------

   1   C   :    0.010757537   -0.013290872   -0.012722244
   2   C   :   -0.005101454   -0.013735382   -0.003956588
   3   H   :    0.001293902    0.004159790    0.003427789
   4   H   :    0.001643321    0.005454416    0.000778741
   5   C   :   -0.007449070    0.003438621   -0.002129595
   6   O   :    0.005824819   -0.011566115   -0.009750268
   7   H   :   -0.001990181    0.008051006    0.005530190
   8   O   :    0.004197514    0.027334292    0.013484013
   9   C   :    0.001673386   -0.003402561    0.000558231
  10   N   :   -0.013620085   -0.002965702    0.002055122
  11   H   :   -0.000537825    0.001131021   -0.000852972
  12   H   :    0.003895959   -0.001350241    0.000619344
  13   H   :    0.003545358   -0.000790062    0.003422132
  14   C   :   -0.014765988    0.012692133   -0.009665920
  15   H   :    0.000160437   -0.000921898   -0.002586135
  16   H   :   -0.002523357   -0.001862042    0.002726631
  17   O   :    0.018830026   -0.006656848    0.010063885
  18   N   :   -0.002010615   -0.002767108   -0.001319207
  19   H   :   -0.005407327    0.000892743   -0.001197976
  20   H   :    0.001583643   -0.003845194    0.001514824

Difference to translation invariance:
           :   -0.0000000000    0.0000000000   -0.0000000000

Difference to rotation invariance:
           :   -0.0000000307    0.0000000872   -0.0000000667

Norm of the Cartesian gradient     ...    0.0587263888
RMS gradient                       ...    0.0075815442
MAX gradient                       ...    0.0273342924
------------------------------------------------------------------------------
                         ORCA GEOMETRY RELAXATION STEP
------------------------------------------------------------------------------

Reading the OPT-File                    .... done
Getting information on internals        .... done
Copying old internal coords+grads       .... done
Making the new internal coordinates     .... (2022 redundants) done
Validating the new internal coordinates .... (2022 redundants) done
Calculating the B-matrix                .... done
Calculating the G,G- and P matrices     .... done
Transforming gradient to internals      .... done
Projecting the internal gradient        .... done
Number of atoms                         ....  20
Number of internal coordinates          ....  83
Current Energy                          ....   -33.852840135 Eh
Current gradient norm                   ....     0.058726389 Eh/bohr
Maximum allowed component of the step   ....  0.300
Current trust radius                    ....  0.300
Evaluating the initial hessian          ....  (Almloef) done
Projecting the Hessian                  .... done
Forming the augmented Hessian           .... done
Diagonalizing the augmented Hessian     .... done
Last element of RFO vector              ....  0.989025487
Lowest eigenvalues of augmented Hessian:
 -0.004735781  0.010106259  0.011018180  0.011232410  0.011783552
Length of the computed step             ....  0.149384424
The final length of the internal step   ....  0.149384424
Converting the step to Cartesian space:
 Initial RMS(Int)=    0.0163970708
Transforming coordinates:
 Iter   0:  RMS(Cart)=    0.0413940068 RMS(Int)=    0.6864803032
done
Storing new coordinates                 .... done

                                .--------------------.
          ----------------------|Geometry convergence|-------------------------
          Item                value                   Tolerance       Converged
          ---------------------------------------------------------------------
          RMS gradient        0.0055283998            0.0001000000      NO
          MAX gradient        0.0300013351            0.0003000000      NO
          RMS step            0.0163970708            0.0020000000      NO
          MAX step            0.0467661823            0.0040000000      NO
          -------------------------------------------------------------------------
          ........................................................
          Max(Bonds)      0.0182      Max(Angles)    2.26
          Max(Dihed)        2.68      Max(Improp)    0.00
          ---------------------------------------------------------------------

    ---------------------------------------------------------------------------
                         Redundant Internal Coordinates
                            (Angstroem and degrees)

        Definition                    Value    dE/dq     Step     New-Value
    ----------------------------------------------------------------------------
     1. B(C   1,C   0)                1.5348  0.009624 -0.0137    1.5211   
     2. B(C   4,C   0)                1.5317  0.004404 -0.0062    1.5255   
     3. B(O   5,C   1)                1.3467  0.006033 -0.0048    1.3419   
     4. B(H   6,O   5)                0.9801  0.006014 -0.0065    0.9736   
     5. B(O   7,C   1)                1.2223  0.030001 -0.0153    1.2071   
     6. B(C   8,C   4)                1.5293  0.005670 -0.0079    1.5214   
     7. B(N   9,C   0)                1.4828  0.013867 -0.0182    1.4646   
     8. B(N   9,H   3)                1.0234  0.004573 -0.0058    1.0176   
     9. B(N   9,H   2)                1.0236  0.004120 -0.0052    1.0183   
    10. B(H  10,C   0)                1.0961  0.000846 -0.0013    1.0948   
    11. B(H  11,C   4)                1.0981  0.003581 -0.0053    1.0927   
    12. B(H  12,C   4)                1.0985  0.003843 -0.0057    1.0928   
    13. B(C  13,C   8)                1.5125 -0.000921  0.0012    1.5137   
    14. B(H  14,C   8)                1.0961  0.002551 -0.0038    1.0923   
    15. B(H  15,C   8)                1.0960  0.002926 -0.0043    1.0916   
    16. B(O  16,C  13)                1.2241  0.022309 -0.0114    1.2127   
    17. B(N  17,C  13)                1.3644  0.008227 -0.0070    1.3574   
    18. B(H  18,N  17)                1.0102  0.005561 -0.0067    1.0035   
    19. B(H  19,N  17)                1.0115  0.004348 -0.0053    1.0062   
    20. A(C   4,C   0,N   9)          110.60  0.001480   -0.20    110.40   
    21. A(C   1,C   0,N   9)          109.74 -0.005495    1.41    111.16   
    22. A(C   1,C   0,C   4)          110.61  0.003033   -0.58    110.03   
    23. A(N   9,C   0,H  10)          107.74  0.000284    0.02    107.75   
    24. A(C   1,C   0,H  10)          107.51  0.000733   -0.16    107.35   
    25. A(C   4,C   0,H  10)          110.54 -0.000192   -0.45    110.09   
    26. A(C   0,C   1,O   7)          126.19  0.007762   -0.96    125.24   
    27. A(O   5,C   1,O   7)          120.44 -0.007713    0.98    121.42   
    28. A(C   0,C   1,O   5)          113.33 -0.000103    0.09    113.42   
    29. A(C   0,C   4,C   8)          112.86  0.005191   -1.05    111.81   
    30. A(H  11,C   4,H  12)          105.60 -0.002836    1.07    106.67   
    31. A(C   0,C   4,H  11)          109.22 -0.002147    0.35    109.57   
    32. A(C   8,C   4,H  12)          109.61  0.001245   -0.24    109.37   
    33. A(C   0,C   4,H  12)          110.18 -0.000899   -0.25    109.93   
    34. A(C   8,C   4,H  11)          109.10 -0.001119    0.28    109.38   
    35. A(C   1,O   5,H   6)          104.34 -0.014724    2.26    106.59   
    36. A(H  14,C   8,H  15)          108.40  0.001894   -0.34    108.06   
    37. A(C  13,C   8,H  15)          107.88 -0.004336    0.74    108.61   
    38. A(C  13,C   8,H  14)          108.05 -0.001349    0.31    108.37   
    39. A(C   4,C   8,H  14)          109.98  0.000083   -0.04    109.94   
    40. A(C   4,C   8,C  13)          111.90  0.001887   -0.30    111.60   
    41. A(C   4,C   8,H  15)          110.52  0.001708   -0.35    110.17   
    42. A(H   2,N   9,H   3)          103.54 -0.002139    1.24    104.78   
    43. A(C   0,N   9,H   3)          107.76 -0.001988    0.65    108.41   
    44. A(C   0,N   9,H   2)          107.91 -0.000037    0.32    108.22   
    45. A(O  16,C  13,N  17)          120.98 -0.002022    0.25    121.23   
    46. A(C   8,C  13,N  17)          114.07  0.000809   -0.11    113.96   
    47. A(C   8,C  13,O  16)          124.95  0.001218   -0.15    124.80   
    48. A(H  18,N  17,H  19)          118.89  0.000206   -0.01    118.88   
    49. A(C  13,N  17,H  19)          117.58 -0.001341    0.24    117.82   
    50. A(C  13,N  17,H  18)          122.76  0.001080   -0.15    122.62   
    51. D(O   5,C   1,C   0,C   4)     61.91  0.000948   -1.25     60.66   
    52. D(O   5,C   1,C   0,N   9)   -175.78  0.001125   -0.95   -176.73   
    53. D(O   5,C   1,C   0,H  10)    -58.87 -0.001070   -0.26    -59.13   
    54. D(O   7,C   1,C   0,C   4)   -120.26 -0.000926    2.37   -117.89   
    55. D(O   7,C   1,C   0,N   9)      2.04 -0.000748    2.68      4.72   
    56. D(C   8,C   4,C   0,N   9)     59.36  0.001350   -0.20     59.16   
    57. D(C   8,C   4,C   0,C   1)   -178.84 -0.002547    1.05   -177.78   
    58. D(H  11,C   4,C   0,N   9)   -179.10  0.001869   -0.30   -179.40   
    59. D(H  11,C   4,C   0,C   1)    -57.29 -0.002028    0.95    -56.34   
    60. D(H  11,C   4,C   0,H  10)     61.67  0.000692    0.09     61.76   
    61. D(C   8,C   4,C   0,H  10)    -59.87  0.000173    0.19    -59.68   
    62. D(H   6,O   5,C   1,O   7)      1.87  0.000651   -1.60      0.27   
    63. D(H   6,O   5,C   1,C   0)    179.84 -0.000739    1.74    181.58   
    64. D(C  13,C   8,C   4,H  11)     52.89 -0.001615    1.70     54.59   
    65. D(C  13,C   8,C   4,C   0)    174.50 -0.001684    1.64    176.14   
    66. D(H  14,C   8,C   4,H  12)    177.60  0.002126    0.22    177.83   
    67. D(H  14,C   8,C   4,H  11)    -67.21 -0.001203    1.53    -65.68   
    68. D(H  14,C   8,C   4,C   0)     54.40 -0.001273    1.47     55.87   
    69. D(C  13,C   8,C   4,H  12)    -62.30  0.001714    0.40    -61.90   
    70. D(H   3,N   9,C   0,C   4)    176.14 -0.001685    1.02    177.15   
    71. D(H   3,N   9,C   0,C   1)     53.83 -0.002786    0.93     54.76   
    72. D(H   2,N   9,C   0,H  10)   -174.16  0.002560   -1.53   -175.69   
    73. D(H   2,N   9,C   0,C   4)     64.92  0.001731   -0.87     64.05   
    74. D(H   2,N   9,C   0,C   1)    -57.39  0.000630   -0.95    -58.34   
    75. D(N  17,C  13,C   8,H  14)    -60.37  0.000006    0.54    -59.82   
    76. D(N  17,C  13,C   8,C   4)    178.41 -0.000375    0.57    178.98   
    77. D(O  16,C  13,C   8,H  15)   -123.98 -0.000291   -0.21   -124.19   
    78. D(O  16,C  13,C   8,H  14)    119.01  0.000491   -0.36    118.65   
    79. D(O  16,C  13,C   8,C   4)     -2.21  0.000109   -0.33     -2.54   
    80. D(H  18,N  17,C  13,O  16)    172.80 -0.000726    1.20    174.00   
    81. D(H  18,N  17,C  13,C   8)     -7.79 -0.000242    0.33     -7.46   
    82. D(H  19,N  17,C  13,O  16)      2.94 -0.000370    0.66      3.60   
    83. D(H  19,N  17,C  13,C   8)   -177.65  0.000115   -0.21   -177.86   
    ----------------------------------------------------------------------------

Geometry step timings:
Preparation and reading OPT file:      0.000 s ( 1.222 %)
Internal coordinates            :      0.000 s ( 1.543 %)
B/P matrices and projection     :      0.000 s (31.961 %)
Hessian update/contruction      :      0.000 s (11.961 %)
Making the step                 :      0.000 s (23.923 %)
Converting the step to Cartesian:      0.000 s ( 3.408 %)
Storing new data                :      0.000 s ( 1.479 %)
Checking convergence            :      0.000 s ( 2.186 %)
Final printing                  :      0.000 s (22.315 %)
Total time                      :      0.002 s

Time for energy+gradient        :      0.026 s
Time for complete geometry iter :      0.028 s

         *************************************************************
         *                GEOMETRY OPTIMIZATION CYCLE   2            *
         *************************************************************
---------------------------------
CARTESIAN COORDINATES (ANGSTROEM)
---------------------------------
  C     1.342592    2.553212   -0.498796
  C     2.488373    3.514977   -0.223234
  H     0.212510    3.182784    1.063637
  H    -0.077509    3.990713   -0.301673
  C     1.667597    1.176253    0.071644
  O     3.649208    3.133386   -0.777819
  H     4.312211    3.798196   -0.520202
  O     2.410067    4.517524    0.444415
  C     0.569880    0.166625   -0.229070
  N     0.085547    3.054187    0.061468
  H     1.222566    2.491396   -1.585260
  H     2.612224    0.820403   -0.346811
  H     1.809975    1.245431    1.152884
  C     0.938881   -1.218803    0.256426
  H     0.393063    0.118205   -1.305890
  H    -0.361562    0.468379    0.253613
  O     1.994325   -1.511379    0.777117
  N    -0.018192   -2.154725    0.031591
  H    -0.930480   -1.922784   -0.316093
  H     0.152993   -3.089976    0.360930

----------------------------
CARTESIAN COORDINATES (A.U.)
----------------------------
  NO LB    ZA    FRAG    MASS        X           Y           Z
   0 C   6.0000    1    12.011    2.537132    4.824872   -0.942587
   1 C   6.0000    1    12.011    4.702344    6.642344   -0.421852
   2 H   1.0000    1     1.008    0.401585    6.014590    2.009983
   3 H   1.0000    1     1.008   -0.146470    7.541354   -0.570080
   4 C   6.0000    1    12.011    3.151302    2.222795    0.135388
   5 O   8.0000    1    15.999    6.896003    5.921242   -1.469866
   6 H   1.0000    1     1.008    8.148898    7.177550   -0.983039
   7 O   8.0000    1    15.999    4.554367    8.536882    0.839823
   8 C   6.0000    1    12.011    1.076918    0.314875   -0.432879
   9 N   7.0000    1    14.007    0.161660    5.771578    0.116158
  10 H   1.0000    1     1.008    2.310314    4.708056   -2.995708
  11 H   1.0000    1     1.008    4.936388    1.550338   -0.655378
  12 H   1.0000    1     1.008    3.420357    2.353524    2.178635
  13 C   6.0000    1    12.011    1.774228   -2.303204    0.484576
  14 H   1.0000    1     1.008    0.742781    0.223375   -2.467774
  15 H   1.0000    1     1.008   -0.683253    0.885108    0.479259
  16 O   8.0000    1    15.999    3.768728   -2.856092    1.468538
  17 N   7.0000    1    14.007   -0.034379   -4.071839    0.059699
  18 H   1.0000    1     1.008   -1.758353   -3.633536   -0.597330
  19 H   1.0000    1     1.008    0.289115   -5.839208    0.682059

      -----------------------------------------------------------      
     |                   =====================                   |     
     |                           x T B                           |     
     |                   =====================                   |     
     |                         S. Grimme                         |     
     |          Mulliken Center for Theoretical Chemistry        |     
     |                    University of Bonn                     |     
      -----------------------------------------------------------      

   * xtb version 6.7.1 (edcfbbe) compiled by 'albert@albert-system' on 2024-07-22

   xtb is free software: you can redistribute it and/or modify it under
   the terms of the GNU Lesser General Public License as published by
   the Free Software Foundation, either version 3 of the License, or
   (at your option) any later version.
   
   xtb is distributed in the hope that it will be useful,
   but WITHOUT ANY WARRANTY; without even the implied warranty of
   MERCHANTABILITY or FITNESS FOR A PARTICULAR PURPOSE.  See the
   GNU Lesser General Public License for more details.
   
   Cite this work as:
   * C. Bannwarth, E. Caldeweyher, S. Ehlert, A. Hansen, P. Pracht,
     J. Seibert, S. Spicher, S. Grimme, WIREs Comput. Mol. Sci., 2020, 11,
     e01493. DOI: 10.1002/wcms.1493
   
   for GFN2-xTB:
   * C. Bannwarth, S. Ehlert and S. Grimme., J. Chem. Theory Comput., 2019,
     15, 1652-1671. DOI: 10.1021/acs.jctc.8b01176
   for GFN1-xTB:
   * S. Grimme, C. Bannwarth, P. Shushkov, J. Chem. Theory Comput., 2017,
     13, 1989-2009. DOI: 10.1021/acs.jctc.7b00118
   for GFN0-xTB:
   * P. Pracht, E. Caldeweyher, S. Ehlert, S. Grimme, ChemRxiv, 2019, preprint.
     DOI: 10.26434/chemrxiv.8326202.v1
   for GFN-FF:
   * S. Spicher and S. Grimme, Angew. Chem. Int. Ed., 2020, 59, 15665-15673.
     DOI: 10.1002/anie.202004239
   
   for ALPB and GBSA implicit solvation:
   * S. Ehlert, M. Stahn, S. Spicher, S. Grimme, J. Chem. Theory Comput.,
     2021, 17, 4250-4261. DOI: 10.1021/acs.jctc.1c00471
   
   for ddCOSMO and CPCM-X implicit solvation:
   * M. Stahn, S. Ehlert, S. Grimme, J. Phys. Chem. A,
     2023, XX, XXXX-XXXX. DOI: 10.1021/acs.jpca.3c04382
   
   for DFT-D4:
   * E. Caldeweyher, C. Bannwarth and S. Grimme, J. Chem. Phys., 2017,
     147, 034112. DOI: 10.1063/1.4993215
   * E. Caldeweyher, S. Ehlert, A. Hansen, H. Neugebauer, S. Spicher,
     C. Bannwarth and S. Grimme, J. Chem. Phys., 2019, 150, 154122.
     DOI: 10.1063/1.5090222
   * E. Caldeweyher, J.-M. Mewes, S. Ehlert and S. Grimme, Phys. Chem. Chem. Phys.
     2020, 22, 8499-8512. DOI: 10.1039/D0CP00502A
   
   for sTDA-xTB:
   * S. Grimme and C. Bannwarth, J. Chem. Phys., 2016, 145, 054103.
     DOI: 10.1063/1.4959605
   
   in the mass-spec context:
   * V. Asgeirsson, C. Bauer and S. Grimme, Chem. Sci., 2017, 8, 4879.
     DOI: 10.1039/c7sc00601b
   * J. Koopman and S. Grimme, ACS Omega 2019, 4, 12, 15120-15133.
     DOI: 10.1021/acsomega.9b02011
   
   for metadynamics refer to:
   * S. Grimme, J. Chem. Theory Comput., 2019, 155, 2847-2862
     DOI: 10.1021/acs.jctc.9b00143
   
   for SPH calculations refer to:
   * S. Spicher and S. Grimme, J. Chem. Theory Comput., 2021, 17, 1701-1714
     DOI: 10.1021/acs.jctc.0c01306
   
   for ONIOM refer to:
   * C. Plett, A. Katbashev, S. Ehlert, S. Grimme, M. Bursch,
     Phys. Chem. Chem. Phys., 2023, 25, 17860-17868. DOI: 10.1039/D3CP02178E
   
   for DIPRO refer to:
   * J. Kohn, N. Gildemeister, S. Grimme, D. Fazzi, A. Hansen,
     J. Chem. Phys., 2023, just accepted.
   
   for PTB refer to:
   * S. Grimme, M. Mueller, A. Hansen, J. Chem. Phys., 2023, 158, 124111.
     DOI: 10.1063/5.0137838
   
   with help from (in alphabetical order)
   P. Atkinson, C. Bannwarth, F. Bohle, G. Brandenburg, E. Caldeweyher
   M. Checinski, S. Dohm, S. Ehlert, S. Ehrlich, I. Gerasimov, C. Hölzer
   A. Katbashev, J. Kohn, J. Koopman, C. Lavigne, S. Lehtola, F. März, M. Müller,
   F. Musil, H. Neugebauer, J. Pisarek, C. Plett, P. Pracht, F. Pultar,
   J. Seibert, P. Shushkov, S. Spicher, M. Stahn, M. Steiner, T. Strunk,
   J. Stückrath, T. Rose, and J. Unsleber
   
 * started run on 2025/08/10 at 12:43:46.880     
   ID    Z sym.   atoms
    1    6 C      1, 2, 5, 9, 14
    2    1 H      3, 4, 7, 11-13, 15, 16, 19, 20
    3    8 O      6, 8, 17
    4    7 N      10, 18

           -------------------------------------------------
          |                Calculation Setup                |
           -------------------------------------------------

          program call               : /home/test/orca/orca_6_1_0_linux_x86-64_shared_openmpi418/otool_xtb q_XTB.xyz --grad -c 0 -u 0 -P 1 --namespace q --input q_XTB.input.tmp --acc 0.200000
          calculation namespace      : q
          coordinate file            : q_XTB.xyz
          omp threads                :                     1


           -------------------------------------------------
          |                 G F N 2 - x T B                 |
           -------------------------------------------------

        Reference                      10.1021/acs.jctc.8b01176
      * Hamiltonian:
        H0-scaling (s, p, d)           1.850000    2.230000    2.230000
        zeta-weighting                 0.500000
      * Dispersion:
        s8                             2.700000
        a1                             0.520000
        a2                             5.000000
        s9                             5.000000
      * Repulsion:
        kExp                           1.500000    1.000000
        rExp                           1.000000
      * Coulomb:
        alpha                          2.000000
        third order                    shell-resolved
        anisotropic                    true
        a3                             3.000000
        a5                             4.000000
        cn-shift                       1.200000
        cn-exp                         4.000000
        max-rad                        5.000000

q/qsh data taken from xtbrestart
CAMM data taken from xtbrestart

          ...................................................
          :                      SETUP                      :
          :.................................................:
          :  # basis functions                  50          :
          :  # atomic orbitals                  50          :
          :  # shells                           30          :
          :  # electrons                        58          :
          :  max. iterations                   250          :
          :  Hamiltonian                  GFN2-xTB          :
          :  restarted?                       true          :
          :  GBSA solvation                  false          :
          :  PC potential                    false          :
          :  electronic temp.          300.0000000     K    :
          :  accuracy                    0.2000000          :
          :  -> integral cutoff          0.3198970E+02      :
          :  -> integral neglect         0.2000000E-08      :
          :  -> SCF convergence          0.2000000E-06 Eh   :
          :  -> wf. convergence          0.2000000E-04 e    :
          :  Broyden damping             0.4000000          :
          :  net charge                          0          :
          :  unpaired electrons                  0          :
          ...................................................

 iter      E             dE          RMSdq      gap      omega  full diag
   1    -34.2030743 -0.342031E+02  0.179E-01    3.80       0.0  T
   2    -34.2031366 -0.622220E-04  0.107E-01    3.77       1.0  T
   3    -34.2031345  0.203293E-05  0.410E-02    3.78       1.0  T
   4    -34.2031425 -0.796294E-05  0.615E-03    3.77       3.6  T
   5    -34.2031428 -0.297119E-06  0.320E-03    3.78       7.0  T
   6    -34.2031428 -0.144831E-07  0.124E-03    3.78      18.0  T
   7    -34.2031428 -0.217992E-08  0.322E-04    3.77      69.4  T
   8    -34.2031428 -0.239822E-09  0.122E-04    3.77     183.6  T
   9    -34.2031428 -0.591314E-10  0.478E-05    3.77     467.8  T

   *** convergence criteria satisfied after 9 iterations ***

         #    Occupation            Energy/Eh            Energy/eV
      -------------------------------------------------------------
         1        2.0000           -0.7521488             -20.4670
       ...           ...                  ...                  ...
        23        2.0000           -0.4732058             -12.8766
        24        2.0000           -0.4548323             -12.3766
        25        2.0000           -0.4436461             -12.0722
        26        2.0000           -0.4361202             -11.8674
        27        2.0000           -0.4207748             -11.4499
        28        2.0000           -0.3969794             -10.8024
        29        2.0000           -0.3844269             -10.4608 (HOMO)
        30                         -0.2457019              -6.6859 (LUMO)
        31                         -0.2079102              -5.6575
        32                          0.0029981               0.0816
        33                          0.0298343               0.8118
        34                          0.0481675               1.3107
       ...                                ...                  ...
        50                          0.6392252              17.3942
      -------------------------------------------------------------
                  HL-Gap            0.1387250 Eh            3.7749 eV
             Fermi-level           -0.3150644 Eh           -8.5733 eV

 SCC (total)                   0 d,  0 h,  0 min,  0.011 sec
 SCC setup                      ...        0 min,  0.000 sec (  1.664%)
 Dispersion                     ...        0 min,  0.000 sec (  1.065%)
 classical contributions        ...        0 min,  0.000 sec (  0.247%)
 integral evaluation            ...        0 min,  0.002 sec ( 17.570%)
 iterations                     ...        0 min,  0.006 sec ( 53.120%)
 molecular gradient             ...        0 min,  0.003 sec ( 25.461%)
 printout                       ...        0 min,  0.000 sec (  0.732%)

         :::::::::::::::::::::::::::::::::::::::::::::::::::::
         ::                     SUMMARY                     ::
         :::::::::::::::::::::::::::::::::::::::::::::::::::::
         :: total energy             -33.855908547705 Eh    ::
         :: gradient norm              0.023130302022 Eh/a0 ::
         :: HOMO-LUMO gap              3.774900544646 eV    ::
         ::.................................................::
         :: SCC energy               -34.203135629819 Eh    ::
         :: -> isotropic ES            0.098960301559 Eh    ::
         :: -> anisotropic ES          0.003073882826 Eh    ::
         :: -> anisotropic XC          0.008990693741 Eh    ::
         :: -> dispersion             -0.013482124404 Eh    ::
         :: repulsion energy           0.347227082115 Eh    ::
         :: add. restraining           0.000000000000 Eh    ::
         :: total charge               0.000000000000 e     ::
         :::::::::::::::::::::::::::::::::::::::::::::::::::::


Property printout bound to 'properties.out'

           -------------------------------------------------
          | TOTAL ENERGY              -33.855908547705 Eh   |
          | GRADIENT NORM               0.023130302022 Eh/α |
          | HOMO-LUMO GAP               3.774900544646 eV   |
           -------------------------------------------------

------------------------------------------------------------------------
 * finished run on 2025/08/10 at 12:43:46.900     
------------------------------------------------------------------------
 total:
 * wall-time:     0 d,  0 h,  0 min,  0.019 sec
 *  cpu-time:     0 d,  0 h,  0 min,  0.016 sec
 * ratio c/w:     0.835 speedup
 SCF:
 * wall-time:     0 d,  0 h,  0 min,  0.011 sec
 *  cpu-time:     0 d,  0 h,  0 min,  0.010 sec
 * ratio c/w:     0.898 speedup


-------------------------   --------------------
FINAL SINGLE POINT ENERGY       -33.855908547700
-------------------------   --------------------


-------------
DIPOLE MOMENT
-------------
                                X             Y             Z
Total Dipole Moment    :     -0.97200      -0.20000      -0.79900
                        -----------------------------------------
Magnitude (a.u.)       :      1.27404
Magnitude (Debye)      :      3.23836


------------------
CARTESIAN GRADIENT
------------------

   1   C   :    0.007626638   -0.007537261   -0.003015679
   2   C   :   -0.006592690   -0.000374379   -0.003457865
   3   H   :    0.000962809    0.002120098    0.000094175
   4   H   :    0.001848877    0.001459985    0.000927785
   5   C   :   -0.005592924    0.003186824   -0.001629357
   6   O   :    0.003729102   -0.005835778   -0.003149269
   7   H   :   -0.002542897    0.003622826    0.002922523
   8   O   :    0.003463505    0.004970612    0.003634902
   9   C   :    0.002348718   -0.000363507    0.000349523
  10   N   :   -0.006454025   -0.001988801    0.000929510
  11   H   :   -0.000047918    0.001506820    0.001192043
  12   H   :    0.001111699   -0.000395392    0.000698569
  13   H   :    0.001421053   -0.000571362    0.000170541
  14   C   :   -0.005735620    0.005417464   -0.002542473
  15   H   :    0.000290500   -0.000074270   -0.000117515
  16   H   :   -0.000216705   -0.001466037    0.000902288
  17   O   :    0.003999265   -0.002806080    0.002194120
  18   N   :   -0.000292879   -0.001102758   -0.000789532
  19   H   :    0.000009666   -0.000154497    0.000493429
  20   H   :    0.000663827    0.000385493    0.000192282

Difference to translation invariance:
           :    0.0000000000    0.0000000000   -0.0000000000

Difference to rotation invariance:
           :   -0.0000001800    0.0000000351   -0.0000003123

Norm of the Cartesian gradient     ...    0.0231303020
RMS gradient                       ...    0.0029861092
MAX gradient                       ...    0.0076266382
------------------------------------------------------------------------------
                         ORCA GEOMETRY RELAXATION STEP
------------------------------------------------------------------------------

Reading the OPT-File                    .... done
Getting information on internals        .... done
Copying old internal coords+grads       .... done
Making the new internal coordinates     .... (2022 redundants) done
Validating the new internal coordinates .... (2022 redundants) done
Calculating the B-matrix                .... done
Calculating the G,G- and P matrices     .... done
Transforming gradient to internals      .... done
Projecting the internal gradient        .... done
Number of atoms                         ....  20
Number of internal coordinates          ....  83
Current Energy                          ....   -33.855908548 Eh
Current gradient norm                   ....     0.023130302 Eh/bohr
Maximum allowed component of the step   ....  0.300
Current trust radius                    ....  0.300
Updating the Hessian (BFGS)             .... done
Forming the augmented Hessian           .... done
Diagonalizing the augmented Hessian     .... done
Last element of RFO vector              ....  0.980153981
Lowest eigenvalues of augmented Hessian:
 -0.001836847  0.010090841  0.011012894  0.011123528  0.011783520
Length of the computed step             ....  0.202251556
The final length of the internal step   ....  0.202251556
Converting the step to Cartesian space:
 Initial RMS(Int)=    0.0221999924
Transforming coordinates:
 Iter   0:  RMS(Cart)=    0.0522419594 RMS(Int)=    0.6853738302
 Iter   5:  RMS(Cart)=    0.0000000566 RMS(Int)=    0.0000000455
done
Storing new coordinates                 .... done
The predicted energy change is          ....    -0.000955992
Previously predicted energy change      ....    -0.002420732
Actually observed energy change         ....    -0.003068413
Ratio of predicted to observed change   ....     1.267556059
New trust radius                        ....     0.300000000

                                .--------------------.
          ----------------------|Geometry convergence|-------------------------
          Item                value                   Tolerance       Converged
          ---------------------------------------------------------------------
          Energy change      -0.0030684130            0.0000050000      NO
          RMS gradient        0.0018580204            0.0001000000      NO
          MAX gradient        0.0093504280            0.0003000000      NO
          RMS step            0.0221999924            0.0020000000      NO
          MAX step            0.0736093801            0.0040000000      NO
          -------------------------------------------------------------------------
          ........................................................
          Max(Bonds)      0.0132      Max(Angles)    2.64
          Max(Dihed)        4.22      Max(Improp)    0.00
          ---------------------------------------------------------------------

    ---------------------------------------------------------------------------
                         Redundant Internal Coordinates
                            (Angstroem and degrees)

        Definition                    Value    dE/dq     Step     New-Value
    ----------------------------------------------------------------------------
     1. B(C   1,C   0)                1.5211  0.000034 -0.0039    1.5172   
     2. B(C   4,C   0)                1.5255 -0.002310  0.0029    1.5283   
     3. B(O   5,C   1)                1.3419  0.001749 -0.0033    1.3386   
     4. B(H   6,O   5)                0.9736  0.001515 -0.0041    0.9695   
     5. B(O   7,C   1)                1.2071  0.005914 -0.0085    1.1986   
     6. B(C   8,C   4)                1.5214 -0.000796 -0.0006    1.5208   
     7. B(N   9,C   0)                1.4646  0.004417 -0.0132    1.4514   
     8. B(N   9,H   3)                1.0176  0.000716 -0.0029    1.0147   
     9. B(N   9,H   2)                1.0183  0.000480 -0.0023    1.0160   
    10. B(H  10,C   0)                1.0948 -0.001263  0.0023    1.0971   
    11. B(H  11,C   4)                1.0927  0.000822 -0.0032    1.0895   
    12. B(H  12,C   4)                1.0928  0.000318 -0.0023    1.0905   
    13. B(C  13,C   8)                1.5137 -0.002068  0.0042    1.5179   
    14. B(H  14,C   8)                1.0923  0.000072 -0.0012    1.0911   
    15. B(H  15,C   8)                1.0916  0.000179 -0.0016    1.0900   
    16. B(O  16,C  13)                1.2127  0.005100 -0.0069    1.2059   
    17. B(N  17,C  13)                1.3574  0.000350 -0.0024    1.3550   
    18. B(H  18,N  17)                1.0035 -0.000215 -0.0015    1.0020   
    19. B(H  19,N  17)                1.0062 -0.000182 -0.0012    1.0051   
    20. A(C   4,C   0,N   9)          110.40  0.000409   -0.18    110.22   
    21. A(C   1,C   0,N   9)          111.16 -0.002197    1.23    112.39   
    22. A(C   1,C   0,C   4)          110.03  0.001442   -0.58    109.45   
    23. A(N   9,C   0,H  10)          107.75  0.000180    0.04    107.79   
    24. A(C   1,C   0,H  10)          107.34 -0.000038    0.07    107.41   
    25. A(C   4,C   0,H  10)          110.09  0.000168   -0.57    109.52   
    26. A(C   0,C   1,O   7)          125.20  0.003613   -1.00    124.21   
    27. A(O   5,C   1,O   7)          121.39 -0.004784    1.01    122.41   
    28. A(C   0,C   1,O   5)          113.39  0.001145   -0.28    113.11   
    29. A(C   0,C   4,C   8)          111.80  0.001874   -0.85    110.95   
    30. A(H  11,C   4,H  12)          106.67 -0.001383    1.00    107.67   
    31. A(C   0,C   4,H  11)          109.57 -0.000940    0.35    109.92   
    32. A(C   8,C   4,H  12)          109.36  0.000620   -0.26    109.10   
    33. A(C   0,C   4,H  12)          109.91  0.000030   -0.38    109.53   
    34. A(C   8,C   4,H  11)          109.39 -0.000356    0.27    109.65   
    35. A(C   1,O   5,H   6)          106.59 -0.009350    2.64    109.24   
    36. A(H  14,C   8,H  15)          108.06  0.001207   -0.43    107.64   
    37. A(C  13,C   8,H  15)          108.61 -0.002411    0.78    109.39   
    38. A(C  13,C   8,H  14)          108.37 -0.000360    0.23    108.59   
    39. A(C   4,C   8,H  14)          109.94 -0.000028    0.01    109.95   
    40. A(C   4,C   8,C  13)          111.60  0.000468   -0.18    111.42   
    41. A(C   4,C   8,H  15)          110.17  0.001106   -0.40    109.77   
    42. A(H   2,N   9,H   3)          104.77 -0.000830    1.42    106.19   
    43. A(C   0,N   9,H   3)          108.41 -0.002299    1.05    109.46   
    44. A(C   0,N   9,H   2)          108.22 -0.000794    0.59    108.81   
    45. A(O  16,C  13,N  17)          121.23 -0.002520    0.52    121.74   
    46. A(C   8,C  13,N  17)          113.96  0.001308   -0.27    113.69   
    47. A(C   8,C  13,O  16)          124.80  0.001206   -0.24    124.55   
    48. A(H  18,N  17,H  19)          118.88  0.000371   -0.05    118.82   
    49. A(C  13,N  17,H  19)          117.82 -0.001097    0.35    118.17   
    50. A(C  13,N  17,H  18)          122.62  0.000667   -0.15    122.47   
    51. D(O   5,C   1,C   0,C   4)     60.67 -0.000473    3.24     63.91   
    52. D(O   5,C   1,C   0,N   9)   -176.72 -0.000450    3.46   -173.26   
    53. D(O   5,C   1,C   0,H  10)    -59.12 -0.001473    4.22    -54.90   
    54. D(O   7,C   1,C   0,C   4)   -117.90  0.000769   -2.66   -120.56   
    55. D(O   7,C   1,C   0,N   9)      4.71  0.000792   -2.44      2.27   
    56. D(C   8,C   4,C   0,N   9)     59.16  0.000586   -0.21     58.95   
    57. D(C   8,C   4,C   0,C   1)   -177.78 -0.000931    0.84   -176.94   
    58. D(H  11,C   4,C   0,N   9)   -179.40  0.000729   -0.19   -179.59   
    59. D(H  11,C   4,C   0,C   1)    -56.34 -0.000788    0.86    -55.48   
    60. D(H  11,C   4,C   0,H  10)     61.76  0.000147    0.23     61.99   
    61. D(C   8,C   4,C   0,H  10)    -59.68  0.000003    0.21    -59.46   
    62. D(H   6,O   5,C   1,O   7)      0.24 -0.000605    2.95      3.19   
    63. D(H   6,O   5,C   1,C   0)   -178.39  0.000453   -2.56   -180.95   
    64. D(C  13,C   8,C   4,H  11)     54.59 -0.000840    2.53     57.13   
    65. D(C  13,C   8,C   4,C   0)    176.14 -0.001037    2.60    178.74   
    66. D(H  14,C   8,C   4,H  12)    177.83  0.000840    1.16    178.99   
    67. D(H  14,C   8,C   4,H  11)    -65.68 -0.000673    2.36    -63.32   
    68. D(H  14,C   8,C   4,C   0)     55.87 -0.000870    2.43     58.29   
    69. D(C  13,C   8,C   4,H  12)    -61.90  0.000673    1.34    -60.56   
    70. D(H   3,N   9,C   0,C   4)    177.16 -0.001352    1.44    178.60   
    71. D(H   3,N   9,C   0,C   1)     54.76 -0.001965    1.46     56.22   
    72. D(H   2,N   9,C   0,H  10)   -175.70  0.001720   -1.75   -177.45   
    73. D(H   2,N   9,C   0,C   4)     64.05  0.001164   -0.98     63.07   
    74. D(H   2,N   9,C   0,C   1)    -58.34  0.000551   -0.97    -59.31   
    75. D(N  17,C  13,C   8,H  14)    -59.83  0.000198   -0.49    -60.32   
    76. D(N  17,C  13,C   8,C   4)    178.98  0.000179   -0.54    178.44   
    77. D(O  16,C  13,C   8,H  15)   -124.19 -0.000178    0.43   -123.76   
    78. D(O  16,C  13,C   8,H  14)    118.65 -0.000098    0.39    119.04   
    79. D(O  16,C  13,C   8,C   4)     -2.54 -0.000117    0.34     -2.21   
    80. D(H  18,N  17,C  13,O  16)    174.00 -0.000268    0.65    174.65   
    81. D(H  18,N  17,C  13,C   8)     -7.46 -0.000492    1.48     -5.98   
    82. D(H  19,N  17,C  13,O  16)      3.60  0.000114   -0.34      3.26   
    83. D(H  19,N  17,C  13,C   8)   -177.86 -0.000110    0.49   -177.37   
    ----------------------------------------------------------------------------

Geometry step timings:
Preparation and reading OPT file:      0.000 s ( 1.235 %)
Internal coordinates            :      0.000 s ( 1.728 %)
B/P matrices and projection     :      0.001 s (30.988 %)
Hessian update/contruction      :      0.000 s (12.160 %)
Making the step                 :      0.000 s (23.580 %)
Converting the step to Cartesian:      0.000 s ( 4.012 %)
Storing new data                :      0.000 s ( 1.975 %)
Checking convergence            :      0.000 s ( 2.284 %)
Final printing                  :      0.000 s (22.037 %)
Total time                      :      0.002 s

Time for energy+gradient        :      0.023 s
Time for complete geometry iter :      0.025 s

         *************************************************************
         *                GEOMETRY OPTIMIZATION CYCLE   3            *
         *************************************************************
---------------------------------
CARTESIAN COORDINATES (ANGSTROEM)
---------------------------------
  C     1.349307    2.554334   -0.473550
  C     2.497375    3.506059   -0.193934
  H     0.199293    3.125930    1.088358
  H    -0.108277    3.951640   -0.275007
  C     1.688539    1.171053    0.080763
  O     3.630060    3.162428   -0.819043
  H     4.317948    3.814400   -0.615002
  O     2.398000    4.512015    0.450057
  C     0.591549    0.170119   -0.247272
  N     0.093830    3.023924    0.082987
  H     1.231360    2.493827   -1.562627
  H     2.635093    0.826614   -0.334506
  H     1.804485    1.230990    1.163432
  C     0.931791   -1.215120    0.271605
  H     0.451431    0.112163   -1.327803
  H    -0.350849    0.499177    0.190682
  O     1.958643   -1.501243    0.835332
  N    -0.031649   -2.137620    0.033261
  H    -0.920018   -1.897428   -0.363037
  H     0.106358   -3.069260    0.384178

----------------------------
CARTESIAN COORDINATES (A.U.)
----------------------------
  NO LB    ZA    FRAG    MASS        X           Y           Z
   0 C   6.0000    1    12.011    2.549820    4.826992   -0.894880
   1 C   6.0000    1    12.011    4.719354    6.625492   -0.366481
   2 H   1.0000    1     1.008    0.376608    5.907151    2.056699
   3 H   1.0000    1     1.008   -0.204613    7.467517   -0.519688
   4 C   6.0000    1    12.011    3.190876    2.212970    0.152621
   5 O   8.0000    1    15.999    6.859819    5.976122   -1.547767
   6 H   1.0000    1     1.008    8.159739    7.208171   -1.162185
   7 O   8.0000    1    15.999    4.531564    8.526473    0.850484
   8 C   6.0000    1    12.011    1.117866    0.321478   -0.467276
   9 N   7.0000    1    14.007    0.177313    5.714389    0.156823
  10 H   1.0000    1     1.008    2.326933    4.712651   -2.952937
  11 H   1.0000    1     1.008    4.979605    1.562074   -0.632124
  12 H   1.0000    1     1.008    3.409982    2.326233    2.198568
  13 C   6.0000    1    12.011    1.760830   -2.296244    0.513260
  14 H   1.0000    1     1.008    0.853080    0.211957   -2.509184
  15 H   1.0000    1     1.008   -0.663008    0.943307    0.360337
  16 O   8.0000    1    15.999    3.701299   -2.836938    1.578549
  17 N   7.0000    1    14.007   -0.059809   -4.039515    0.062853
  18 H   1.0000    1     1.008   -1.738582   -3.585619   -0.686040
  19 H   1.0000    1     1.008    0.200987   -5.800060    0.725990

      -----------------------------------------------------------      
     |                   =====================                   |     
     |                           x T B                           |     
     |                   =====================                   |     
     |                         S. Grimme                         |     
     |          Mulliken Center for Theoretical Chemistry        |     
     |                    University of Bonn                     |     
      -----------------------------------------------------------      

   * xtb version 6.7.1 (edcfbbe) compiled by 'albert@albert-system' on 2024-07-22

   xtb is free software: you can redistribute it and/or modify it under
   the terms of the GNU Lesser General Public License as published by
   the Free Software Foundation, either version 3 of the License, or
   (at your option) any later version.
   
   xtb is distributed in the hope that it will be useful,
   but WITHOUT ANY WARRANTY; without even the implied warranty of
   MERCHANTABILITY or FITNESS FOR A PARTICULAR PURPOSE.  See the
   GNU Lesser General Public License for more details.
   
   Cite this work as:
[...]

         #    Occupation            Energy/Eh            Energy/eV
      -------------------------------------------------------------
         1        2.0000           -0.7512157             -20.4416
       ...           ...                  ...                  ...
        23        2.0000           -0.4714459             -12.8287
        24        2.0000           -0.4521624             -12.3040
        25        2.0000           -0.4435095             -12.0685
        26        2.0000           -0.4338522             -11.8057
        27        2.0000           -0.4203015             -11.4370
        28        2.0000           -0.3959440             -10.7742
        29        2.0000           -0.3805232             -10.3546 (HOMO)
        30                         -0.2410448              -6.5592 (LUMO)
        31                         -0.2053118              -5.5868
        32                          0.0031384               0.0854
        33                          0.0324925               0.8842
        34                          0.0496798               1.3519
       ...                                ...                  ...
        50                          0.6539483              17.7948
      -------------------------------------------------------------
                  HL-Gap            0.1394784 Eh            3.7954 eV
             Fermi-level           -0.3107840 Eh           -8.4569 eV

 SCC (total)                   0 d,  0 h,  0 min,  0.013 sec
 SCC setup                      ...        0 min,  0.000 sec (  1.404%)
 Dispersion                     ...        0 min,  0.000 sec (  0.887%)
 classical contributions        ...        0 min,  0.000 sec (  0.210%)
 integral evaluation            ...        0 min,  0.001 sec ( 10.849%)
 iterations                     ...        0 min,  0.008 sec ( 64.724%)
 molecular gradient             ...        0 min,  0.003 sec ( 21.093%)
 printout                       ...        0 min,  0.000 sec (  0.695%)

         :::::::::::::::::::::::::::::::::::::::::::::::::::::
         ::                     SUMMARY                     ::
         :::::::::::::::::::::::::::::::::::::::::::::::::::::
         :: total energy             -33.857229051857 Eh    ::
         :: gradient norm              0.000248093093 Eh/a0 ::
         :: HOMO-LUMO gap              3.795400061345 eV    ::
         ::.................................................::
         :: SCC energy               -34.208385372448 Eh    ::
         :: -> isotropic ES            0.098396039970 Eh    ::
         :: -> anisotropic ES          0.002812016079 Eh    ::
         :: -> anisotropic XC          0.008772104187 Eh    ::
         :: -> dispersion             -0.013523806066 Eh    ::
         :: repulsion energy           0.351156320591 Eh    ::
         :: add. restraining           0.000000000000 Eh    ::
         :: total charge              -0.000000000000 e     ::
         :::::::::::::::::::::::::::::::::::::::::::::::::::::


Property printout bound to 'properties.out'

           -------------------------------------------------
          | TOTAL ENERGY              -33.857229051857 Eh   |
          | GRADIENT NORM               0.000248093093 Eh/α |
          | HOMO-LUMO GAP               3.795400061345 eV   |
           -------------------------------------------------

------------------------------------------------------------------------
 * finished run on 2025/08/10 at 12:43:47.291     
------------------------------------------------------------------------
 total:
 * wall-time:     0 d,  0 h,  0 min,  0.020 sec
 *  cpu-time:     0 d,  0 h,  0 min,  0.015 sec
 * ratio c/w:     0.769 speedup
 SCF:
 * wall-time:     0 d,  0 h,  0 min,  0.013 sec
 *  cpu-time:     0 d,  0 h,  0 min,  0.009 sec
 * ratio c/w:     0.658 speedup


-------------------------   --------------------
FINAL SINGLE POINT ENERGY       -33.857229051860
-------------------------   --------------------


-------------
DIPOLE MOMENT
-------------
                                X             Y             Z
Total Dipole Moment    :     -0.83700      -0.22900      -1.24200
                        -----------------------------------------
Magnitude (a.u.)       :      1.51512
Magnitude (Debye)      :      3.85112

                                *** OPTIMIZATION RUN DONE ***

		     ------------------------------
			                   _   
			                  | |  
			  __ _  ___   __ _| |_ 
			 / _` |/ _ \ / _` | __|
			| (_| | (_) | (_| | |_ 
			 \__, |\___/ \__,_|\__|
			 __/ |                
			|___/                 

		      A Global Optimizer Algorithm
		     ------------------------------

Global parameters
-----------------
  GOAT version                               ... default
  Minimum global steps                       ... 3
  Number of base workers                     ... 4
  Split workers by                           ... 2
  Final number of workers                    ... 8
  Number of available CPUs                   ... 1
  Parameter list (worker : temperature)      ...  0 : 2903.97,  1 : 1451.98, 
                                                  2 :  725.99,  3 :  363.00, 
                                                  4 : 2903.97,  5 : 1451.98, 
                                                  6 :  725.99,  7 :  363.00 
  GradComp (mean : sigma)                    ... 1.00 : 0.50
  Number of fragments                        ... 1
  Number of atoms                            ... 20
  Flexibility parameter                      ... 0.71
  Optimizations per global step              ... 248
  Optimizations per worker                   ... 31

Filtering criteria
------------------
  RMSD                                       ... 0.125 Angs (atom. pos.)
  EnDiff                                     ... 0.100 kcal/mol
  RotConst                                   ... 1.00-2.50 %
  Maximum Conf. Energy                       ... 6.000 kcal/mol

Thermodynamics
--------------
  Ensemble temperature                       ... 298.15 K
  Degeneracy of conformers                   ... 1
  *No rotamers will be included in Gconf

------------------------------------------------------------------------------
   Iter  MinTemp     MaxEn       GradComp    NOpt   NProcs    Output
------------------------------------------------------------------------------
   0     2903.97     60.00    1.00 : 0.50      31        1    q.goat.0.0.out
   1     1451.98     60.00    1.00 : 0.50      31        1    q.goat.0.1.out
   2      725.99     60.00    1.00 : 0.50      31        1    q.goat.0.2.out
   3      363.00     60.00    1.00 : 0.50      31        1    q.goat.0.3.out
   4     2903.97     60.00    1.00 : 0.50      31        1    q.goat.0.4.out
   5     1451.98     60.00    1.00 : 0.50      31        1    q.goat.0.5.out
   6      725.99     60.00    1.00 : 0.50      31        1    q.goat.0.6.out
   7      363.00     60.00    1.00 : 0.50      31        1    q.goat.0.7.out

			     GOAT Global Iter 1
		Iter    Min En       Sconf       Gconf   
		        Hartree      cal/(molK)  kcal/mol
		=========================================

		   1    -33.860761   5.492       -0.848

   0     2903.97     60.00    1.00 : 0.50      31        1    q.goat.1.0.out
   1     1451.98     60.00    1.00 : 0.50      31        1    q.goat.1.1.out
   2      725.99     60.00    1.00 : 0.50      31        1    q.goat.1.2.out
   3      363.00     60.00    1.00 : 0.50      31        1    q.goat.1.3.out
   4     2903.97     60.00    1.00 : 0.50      31        1    q.goat.1.4.out
   5     1451.98     60.00    1.00 : 0.50      31        1    q.goat.1.5.out
   6      725.99     60.00    1.00 : 0.50      31        1    q.goat.1.6.out
   7      363.00     60.00    1.00 : 0.50      31        1    q.goat.1.7.out

			     GOAT Global Iter 2
		Iter    Min En       Sconf       Gconf   
		        Hartree      cal/(molK)  kcal/mol
		=========================================

		   1    -33.860761   5.492       -0.848
		   2    -33.860762   5.805       -0.880

   0     2903.97     60.00    1.00 : 0.50      31        1    q.goat.2.0.out
   1     1451.98     60.00    1.00 : 0.50      31        1    q.goat.2.1.out
   2      725.99     60.00    1.00 : 0.50      31        1    q.goat.2.2.out
   3      363.00     60.00    1.00 : 0.50      31        1    q.goat.2.3.out
   4     2903.97     60.00    1.00 : 0.50      31        1    q.goat.2.4.out
   5     1451.98     60.00    1.00 : 0.50      31        1    q.goat.2.5.out
   6      725.99     60.00    1.00 : 0.50      31        1    q.goat.2.6.out
   7      363.00     60.00    1.00 : 0.50      31        1    q.goat.2.7.out

			     GOAT Global Iter 3
		Iter    Min En       Sconf       Gconf   
		        Hartree      cal/(molK)  kcal/mol
		=========================================

		   1    -33.860761   5.492       -0.848
		   2    -33.860762   5.805       -0.880
		   3    -33.860762   6.148       -0.937

		Global minimum found!
		Writing structure to q.globalminimum.xyz

		# Final ensemble info #
		Conformer     Energy     Degen.   % total   % cumul.  
		              (kcal/mol)
		------------------------------------------------------
		        0     0.000	     1      20.55      20.55
		        1     0.528	     1       8.44      28.99
		        2     0.557	     1       8.02      37.01
		        3     0.579	     1       7.73      44.74
		        4     0.654	     1       6.82      51.56
		        5     0.707	     1       6.24      57.80
		        6     0.898	     1       4.51      62.31
		        7     0.902	     1       4.49      66.79
		        8     1.000	     1       3.80      70.59
		        9     1.248	     1       2.50      73.09
		       10     1.254	     1       2.48      75.57
		       11     1.262	     1       2.44      78.01
		       12     1.299	     1       2.29      80.30
		       13     1.359	     1       2.07      82.38
		       14     1.371	     1       2.03      84.41
		       15     1.645	     1       1.28      85.69
		       16     1.737	     1       1.10      86.78
		       17     1.846	     1       0.91      87.69
		       18     1.901	     1       0.83      88.53
		       19     1.928	     1       0.79      89.32
		       20     1.983	     1       0.72      90.04
		       21     2.014	     1       0.69      90.73
		       22     2.063	     1       0.63      91.36
		       23     2.217	     1       0.49      91.85
		       24     2.244	     1       0.47      92.31
		       25     2.257	     1       0.46      92.77
		       26     2.311	     1       0.42      93.19
		       27     2.408	     1       0.35      93.54
		       28     2.427	     1       0.34      93.88
		       29     2.462	     1       0.32      94.20
		       30     2.518	     1       0.29      94.50
		       31     2.539	     1       0.28      94.78
		       32     2.569	     1       0.27      95.05
		       33     2.606	     1       0.25      95.30
		       34     2.634	     1       0.24      95.54
		       35     2.740	     1       0.20      95.74
		       36     2.766	     1       0.19      95.94
		       37     2.790	     1       0.19      96.12
		       38     2.799	     1       0.18      96.30
		       39     2.810	     1       0.18      96.48
		       40     2.810	     1       0.18      96.66
		       41     2.889	     1       0.16      96.82
		       42     2.937	     1       0.14      96.96
		       43     2.973	     1       0.14      97.10
		       44     2.974	     1       0.14      97.23
		       45     2.986	     1       0.13      97.37
		       46     3.059	     1       0.12      97.49
		       47     3.070	     1       0.12      97.60
		       48     3.085	     1       0.11      97.71
		       49     3.154	     1       0.10      97.81
		       50     3.154	     1       0.10      97.91
		       51     3.217	     1       0.09      98.00
		       52     3.229	     1       0.09      98.09
		       53     3.241	     1       0.09      98.18
		       54     3.271	     1       0.08      98.26
		       55     3.304	     1       0.08      98.34
		       56     3.339	     1       0.07      98.41
		       57     3.354	     1       0.07      98.48
		       58     3.355	     1       0.07      98.56
		       59     3.389	     1       0.07      98.62
		       60     3.404	     1       0.07      98.69
		       61     3.414	     1       0.06      98.75
		       62     3.449	     1       0.06      98.81
		       63     3.463	     1       0.06      98.87
		       64     3.481	     1       0.06      98.93
		       65     3.498	     1       0.06      98.99
		       66     3.512	     1       0.05      99.04
		       67     3.603	     1       0.05      99.09
		       68     3.604	     1       0.05      99.14
		       69     3.606	     1       0.05      99.18
		       70     3.616	     1       0.05      99.23
		       71     3.644	     1       0.04      99.27
		       72     3.755	     1       0.04      99.31
		       73     3.790	     1       0.03      99.34
		       74     3.814	     1       0.03      99.38
		       75     3.888	     1       0.03      99.40
		       76     3.934	     1       0.03      99.43
		       77     3.943	     1       0.03      99.46
		       78     3.965	     1       0.03      99.48
		       79     3.976	     1       0.03      99.51
		       80     3.979	     1       0.02      99.53
		       81     3.996	     1       0.02      99.56
		       82     4.004	     1       0.02      99.58
		       83     4.029	     1       0.02      99.60
		       84     4.076	     1       0.02      99.63
		       85     4.076	     1       0.02      99.65
		       86     4.091	     1       0.02      99.67
		       87     4.097	     1       0.02      99.69
		       88     4.106	     1       0.02      99.71
		       89     4.187	     1       0.02      99.73
		       90     4.238	     1       0.02      99.74
		       91     4.264	     1       0.02      99.76
		       92     4.292	     1       0.01      99.77
		       93     4.305	     1       0.01      99.79
		       94     4.319	     1       0.01      99.80
		       95     4.329	     1       0.01      99.81
		       96     4.330	     1       0.01      99.83
		       97     4.332	     1       0.01      99.84
		       98     4.336	     1       0.01      99.85
		       99     4.386	     1       0.01      99.87
		      100     4.427	     1       0.01      99.88
		      101     4.428	     1       0.01      99.89
		      102     4.433	     1       0.01      99.90
		      103     4.636	     1       0.01      99.91
		      104     4.718	     1       0.01      99.92
		      105     4.729	     1       0.01      99.92
		      106     4.753	     1       0.01      99.93
		      107     4.818	     1       0.01      99.94
		      108     4.854	     1       0.01      99.94
		      109     4.904	     1       0.01      99.95
		      110     4.920	     1       0.01      99.95
		      111     4.983	     1       0.00      99.96
		      112     5.002	     1       0.00      99.96
		      113     5.021	     1       0.00      99.97
		      114     5.038	     1       0.00      99.97
		      115     5.086	     1       0.00      99.97
		      116     5.133	     1       0.00      99.98
		      117     5.147	     1       0.00      99.98
		      118     5.213	     1       0.00      99.99
		      119     5.251	     1       0.00      99.99
		      120     5.350	     1       0.00      99.99
		      121     5.383	     1       0.00      99.99
		      122     5.414	     1       0.00      99.99
		      123     5.446	     1       0.00     100.00
		      124     5.564	     1       0.00     100.00
		      125     5.742	     1       0.00     100.00

		Conformers below 3 kcal/mol: 46
		Lowest energy conformer    : -33.860762 Eh
		Sconf at 298.15 K          :  6.15 cal/(molK)
		Gconf at 298.15 K          : -0.94 kcal/mol

		Writing final ensemble to q.finalensemble.xyz

--------------------------------
SUGGESTED CITATIONS FOR THIS RUN
--------------------------------

Below you find a list of papers that are relevant to this ORCA run
We neither can nor want to force you to cite these papers, but we appreciate if you do
You receive ORCA, which is the product of decades of hard work by many enthusiastic individuals, for free
The only thing we kindly ask in return is that you cite our papers,
We deeply appreciate it, if you show your appreciation for ORCA by not just citing the generic ORCA reference.

Please note that relegating all ORCA citations to the supporting information does *not* help us.
SI sections are not indexed - citations you put there will not count into any citation statistics
But we need these citations in order to attract the funding resources that allow us to do what we are doing

Therefore, if you are a happy ORCA user, please consider citing a few of the papers listed below in the main body of your paper

In addition to the list printed below, the program has created the file q.bibtex that contains the list in bibtex format
You can import this file easily into all common literature databanks and citation aid programs


List of essential papers. We consider these as the minimum necessary citations

  1. Bannwarth, C.; Ehlert, S.; Grimme, S.
     GFN2-xTB—An Accurate and Broadly Parametrized Self-Consistent Tight-Binding Quantum Chemical Method with Multipole Electrostatics and Density-Dependent Dispersion Contributions
     J. Chem. Theory Comput. 2019 15(3), 1652-1671
     doi.org/10.1021/acs.jctc.8b01176
  2. Neese, F.
     Software update: the ORCA program system, version 6.0
     WIRES Comput. Molec. Sci. 2025 15(1), e70019
     doi.org/10.1002/wcms.7019
  3. de Souza, B.
     GOAT: A Global Optimization Algorithm for Molecules and Atomic Clusters
     Angewandte Chemie 2025 64(18), e202500393
     doi.org/10.1002/anie.202500393

List of papers to cite with high priority. The work reported in these papers was absolutely
necessary for this run to complete.
Our perspective: the developers of density functionals and basis sets usually get cited in chemistry papers
Good! But without the algorithms to do something with them, the functionals or basis sets would not do anything.
Hence, in our opinion, the algorithm design and method developments papers are equally worthy of getting cited

  1. Bannwarth, C.; Caldeweyher, E.; Ehlert, S.; Hansen, A.; Pracht, P.; Seibert, J.; Spicher, S.; Grimme, S.
     Extended tight-binding quantum chemistry methods
     WIRES Comput. Molec. Sci. 2020 11(2), e1493
     doi.org/10.1002/wcms.1493

List of suggested additional citations. These are papers that are important in the 'surrounding' of 
of this run, or papers that preceded the highly important papers. If you like your results we are grateful for a citation.

  1. Neese, F.
     The ORCA program system
     WIRES Comput. Molec. Sci. 2012 2(1), 73-78
     doi.org/10.1002/wcms.81
  2. Neese, F.
     Software update: the ORCA program system, version 4.0
     WIRES Comput. Molec. Sci. 2018 8(1), 1-6
     doi.org/10.1002/wcms.1327
  3. Neese, F.; Wennmohs, F.; Becker, U.; Riplinger, C.
     The ORCA quantum chemistry program package
     J. Chem. Phys. 2020 152(22), 224108
     doi.org/10.1063/5.0004608
  4. Neese, F.
     Software update: The ORCA program system—Version 5.0
     WIRES Comput. Molec. Sci. 2022 12(1), e1606
     doi.org/10.1002/wcms.1606

List of optional additional citations

  1. Neese, F.
     Approximate second-order SCF convergence for spin unrestricted wavefunctions
     Chem. Phys. Lett. 2000 325(1-3), 93-98
     doi.org/10.1016/s0009-2614(00)00662-x

Timings for individual modules:

Sum of individual times          ...      938.512 sec (=  15.642 min)
Geometry relaxation              ...        0.034 sec (=   0.001 min)   0.0 %
GOAT                             ...      938.090 sec (=  15.635 min) 100.0 %
XTB module                       ...        0.387 sec (=   0.006 min)   0.0 %
                             ****ORCA TERMINATED NORMALLY****
TOTAL RUN TIME: 0 days 0 hours 15 minutes 38 seconds 575 msec
