
                                 *****************
                                 * O   R   C   A *
                                 *****************

                                            #,                                       
                                            ###                                      
                                            ####                                     
                                            #####                                    
                                            ######                                   
                                           ########,                                 
                                     ,,################,,,,,                         
                               ,,#################################,,                 
                          ,,##########################################,,             
                       ,#########################################, ''#####,          
                    ,#############################################,,   '####,        
                  ,##################################################,,,,####,       
                ,###########''''           ''''###############################       
              ,#####''   ,,,,##########,,,,          '''####'''          '####       
            ,##' ,,,,###########################,,,                        '##       
           ' ,,###''''                  '''############,,,                           
         ,,##''                                '''############,,,,        ,,,,,,###''
      ,#''                                            '''#######################'''  
     '                                                          ''''####''''         
             ,#######,   #######,   ,#######,      ##                                
            ,#'     '#,  ##    ##  ,#'     '#,    #''#        ,####,    ,#,          
            ##       ##  ##   ,#'  ##            #'  '#       #'       ,# #          
            ##       ##  #######   ##           ,######,      #####,      #          
            '#,     ,#'  ##    ##  '#,     ,#' ,#      #,     #,   #      #          
             '#######'   ##     ##  '#######'  #'      '#     '####' #    #          



                #########################################################
                #                        -***-                          #
                #          Department of theory and spectroscopy        #
                #                                                       #
                #                      Frank Neese                      #
                #                                                       #
                #     Directorship, Architecture, Infrastructure        #
                #                    SHARK, DRIVERS                     #
                #        Core code/Algorithms in most modules           #
                #                                                       #
                #        Max Planck Institute fuer Kohlenforschung      #
                #                Kaiser Wilhelm Platz 1                 #
                #                 D-45470 Muelheim/Ruhr                 #
                #                      Germany                          #
                #                                                       #
                #                  All rights reserved                  #
                #                        -***-                          #
                #########################################################


                         Program Version 6.1.0  -  RELEASE   -
                                (GIT: $679e74b$)
                          ($2025-06-10 18:02:51 +0200$)


 With contributions from (in alphabetic order):
[Max-Planck-Institut fuer Kohlenforschung]                               
  Daniel Aravena         : Magnetic Suceptibility                        
  Michael Atanasov       : Ab Initio Ligand Field Theory (pilot matlab implementation)
  Alexander A. Auer      : GIAO ZORA, VPT2 properties, NMR spectrum      
  Ute Becker             : All parallelization in ORCA, NUMFREQ, NUMCALC 
  Giovanni Bistoni       : ED, misc. LED, open-shell LED, HFLD           
  Dmytro Bykov           : pre 5.0 version of the SCF Hessian            
  Marcos Casanova-Páez   : Triplet and SCS-CIS(D). UHF-(DLPNO)-IP/EA/STEOM-CCSD. UHF-CVS-IP/STEOM-CCSD   
  Vijay G. Chilkuri      : MRCI spin determinant printing, contributions to CSF-ICE 
  Pauline Colinet        : FMM embedding                                 
  Dipayan Datta          : RHF DLPNO-CCSD density                        
  Achintya Kumar Dutta   : EOM-CC, STEOM-CC                              
  Nicolas Foglia         : Exact transition moments, OPA infrastructure, MCD improvements    
  Dmitry Ganyushin       : Spin-Orbit,Spin-Spin,Magnetic field MRCI      
  Miquel Garcia-Rates    : C-PCM and meta-GGA Hessian, CCSD/C-PCM, Gaussian charge scheme 
  Tiago L. C. Gouveia    : GS-ROHF, GS-ROCIS                             
  Yang Guo               : DLPNO-NEVPT2, F12-NEVPT2, CIM, IAO-localization        
  Andreas Hansen         : Spin unrestricted coupled pair/coupled cluster methods 
  Ingolf Harden          : AUTO-CI MPn and infrastructure                
  Benjamin Helmich-Paris : MC-RPA, TRAH-(SCF,CASSCF), AVAS, COSX integrals, SCF dyn. polar., MC-PDFT, srDFT 
  Lee Huntington         : MR-EOM, pCC                                   
  Robert Izsak           : Overlap fitted RIJCOSX, COSX-SCS-MP3, EOM     
  Riya Kayal             : Wick's Theorem for AUTO-CI, AUTO-CI UHF-CCSDT 
  Emily Kempfer          : AUTO-CI RHF CISDT and CCSDT, approximate NEVPT4
  Christian Kollmar      : KDIIS, OOCD, Brueckner-CCSD(T), CCSD density, CASPT2, CASPT2-K, improved NEVPT2 
  Axel Koslowski         : Symmetry handling                             
  Simone Kossmann        : meta-GGA functionals, TD-DFT gradient, OOMP2, (MP2 Hessian; deprecated post 5.0) 
  Lucas Lang             : DCDCAS, Hyperfine gauge corrections, ICE-SOC+SSC
  Marvin Lechner         : AUTO-CI (C++ implementation), FIC-MRCC        
  Spencer Leger          : CASSCF response                               
  Dagmar Lenk            : GEPOL surface, SMD, ORCA-2-JSON               
  Dimitrios Liakos       : Extrapolation schemes; Compound Job, Property file
  Dimitrios Manganas     : Further ROCIS development; embedding schemes. LFT, Crystal Embedding 
  Dimitrios Pantazis     : SARC Basis sets                               
  Anastasios Papadopoulos: AUTO-CI, single reference methods and gradients 
  Taras Petrenko         : pre 6.0 DFT Hessian and TD-DFT gradient,  ECA, NRVS 
  Petra Pikulova         : Analytic Raman intensities                    
  Peter Pinski           : DLPNO-MP2, DLPNO-MP2 Gradient                 
  Shashank Vittal Rao    : ES-AILFT, MagRelax                            
  Christoph Reimann      : Effective Core Potentials                     
  Marius Retegan         : Local ZFS, SOC                                
  Christoph Riplinger    : Optimizer, TS searches, QM/MM, DLPNO-CCSD(T), (RO)-DLPNO pert. Triples 
  Michael Roemelt        : Original ROCIS implementation, recursive CI coupling coefficients
  Masaaki Saitow         : Open-shell DLPNO-CCSD energy and density      
  Barbara Sandhoefer     : DKH picture change effects                    
  Yorick L. A. Schmerwitz: GMF and freeze-and-release deltaSCF, NEB S-IDPP initial path                    
  Kantharuban Sivalingam : CASSCF convergence/infrastructure, NEVPT2, NEVPT3, NEVPT4(SD), FIC-MRCI and CEPA variants
  Bernardo de Souza      : ESD, SOC TD-DFT                               
  Georgi L. Stoychev     : AutoAux, RI-MP2 NMR, DLPNO-MP2 response, X2C  
  Van Anh Tran           : RI-MP2 g-tensors                              
  Willem Van den Heuvel  : Paramagnetic NMR                              
  Zikuan Wang            : NOTCH, Electric field optimization            
  Frank Wennmohs         : Technical directorship and infrastructure     
  Hang Xu                : AUTO-CI-Response properties                   
                                                                         
[FACCTs GmbH]                                                            
  Markus Bursch, Nicolas Foglia, Miquel Garcia-Rates, Ingolf Harden, Hagen Neugebauer, Anastasios Papadopoulos, 
  Christoph Riplinger, Bernardo de Souza, Georgi L. Stoychev                                                    
                                                                 
  APM, various basis sets, CI-OPT, improved COSX, DLPNO-Multilevel,           
  DOCKER, DRACO, updates on ESD, Fragmentator, GOAT, IRC, LR-CPCM, L-BFGS, MBIS, meta-GGA TD-DFT gradient, ML-optimized integration grids, 
  MM, NACMEs, nearIR, NEB, NEB-TS, NL-DFT gradient (VV10), 2- and 3-layer-ONIOM, interface openCOSMO-RS, QMMM,   
  Crystal-QMMM, RESP, rigid body optimization, SF, symmetry and pop. for TD-DFT, various functionals, SOLVATOR                                   
                                                                         
[Other institutions]                                                     
  V. Asgeirsson          : NEB                                           
  Christoph Bannwarth    : sTDA-DFT, sTD-DFT, PBEh-3c, B97-3c, D3        
  Giovanni Bistoni       : ETS/NOCV, ADLD/ADEX, COVALED                  
  Martin Brehm           : Molecular dynamics                            
  Ronald Cardenas        : ETS/NOCV                                      
  Martina Colucci        : COVALED                                       
  Sebastian Ehlert       : rSCAN, r2SCAN, r2SCAN-3c, D4, dhf basis sets  
  Marvin Friede          : D4 for Fr, Ra, Ac-Lr                          
  Lars Goerigk           : TD-DFT with DH, B97 family of functionals     
  Stefan Grimme          : VdW corrections, initial TS optimization, DFT functionals, gCP, sTDA/sTD-DF 
  Waldemar Hujo          : DFT-NL                                        
  H. Jonsson             : NEB                                           
  Holger Kruse           : gCP                                           
  Marcel Mueller         : wB97X-3c, vDZP basis set                      
  Hagen Neugebauer       : wr2SCAN, Native XTB                           
  Gianluca Regni         : ADLD/ADEX                                     
  Tobias Risthaus        : pre 6.0 range-separated hybrid DFT and stability analysis
  Lukas Wittmann         : regularized MP2, r2SCAN double-hybrids, wr2SCAN        
                                                                         
We gratefully acknowledge several colleagues who have allowed us to      
interface, adapt or use parts of their codes:                            
  Ed Valeev, F. Pavosevic, A. Kumar             : LibInt (2-el integral package), F12 methods 
  Garnet Chan, S. Sharma, J. Yang, R. Olivares  : DMRG                   
  Ulf Ekstrom                                   : XCFun DFT Library      
  Mihaly Kallay                                 : mrcc  (arbitrary order and MRCC methods)
  Frank Weinhold                                : gennbo (NPA and NBO analysis)           
  Simon Mueller                                 : openCOSMO-RS                            
  Christopher J. Cramer and Donald G. Truhlar   : smd solvation model                     
  S Lehtola, MJT Oliveira, MAL Marques          : LibXC Library                           
  Liviu Ungur et al                             : ANISO software                          


 Your calculation uses the libint2 library for the computation of 2-el integrals
 For citations please refer to: http://libint.valeyev.net

 Your ORCA version has been built with support for libXC version: 7.0.0
 For citations please refer to: https://libxc.gitlab.io

 This ORCA versions uses:
   CBLAS   interface :  Fast vector & matrix operations
   LAPACKE interface :  Fast linear algebra routines
   SCALAPACK package :  Parallel linear algebra routines
   Shared memory     :  Shared parallel matrices
   BLAS/LAPACK       :  OpenBLAS 0.3.29  USE64BITINT DYNAMIC_ARCH NO_AFFINITY Haswell SINGLE_THREADED
        Core in use  :  Haswell
   Copyright (c) 2011-2014, The OpenBLAS Project


  ***********************************
  * Starting time: Wed Sep  3 08:20:05 2025
  * Host name:     chemlab03
  * Process ID:    120741
  * Working dir.:  /home/vivek/mm-project/vivek/xtb-goat/MP2-opt/l/4
  ***********************************



***************************************
The coordinates will be read from file: /home/vivek/mm-project/vivek/xtb-goat/xtb-goat/l/L_CONF/4.xyz
***************************************


================================================================================

----- Orbital basis set information -----
Your calculation utilizes the basis: 6-31G**
   H-He, Li-Ne : W. J. Hehre, R. Ditchfield and J.A. Pople, J. Chem. Phys. 56, 2257 (1972).
                 Note: He and Ne are unpublished basis sets taken from the Gaussian program.
                 Note: Li and B from J. D. Dill and J. A. Pople, J. Chem. Phys. 62, 2921 (1975).
   Na - Ar     : M. M. Francl, W. J. Pietro, W. J. Hehre, J. S. Binkley, M. S. Gordon, 
                 D. J. DeFrees and J. A. Pople, J. Chem. Phys. 77, 3654 (1982).
   K - Zn      : V. A. Rassolov, J. A. Pople, M. A. Ratner, and T. L. Windus, J. Chem. Phys. 109, 1223 (1998).

================================================================================
                                        WARNINGS
                       Please study these warnings very carefully!
================================================================================


WARNING: The frozen-core approximation for MP2-gradient calculations is turned on by default.

WARNING: Geometry Optimization
  ===> : Switching off AutoStart
         For restart on a previous wavefunction, please use MOREAD

WARNING: Post HF methods need fully converged wavefunctions
  ===> : Setting SCFConvForced true
         You can overwrite this default with %scf ConvForced false 


================================================================================
                                       INPUT FILE
================================================================================
NAME = 4.inp
|  1> ! MP2 6-31G** opt
|  2> 
|  3> * xyzfile 0 1 /home/vivek/mm-project/vivek/xtb-goat/xtb-goat/l/L_CONF/4.xyz
|  4> 
|  5>                          ****END OF INPUT****
================================================================================

                       *****************************
                       * Geometry Optimization Run *
                       *****************************

Geometry optimization settings:
Update method            Update   .... BFGS
Choice of coordinates    CoordSys .... (2022) Redundant Internals
Initial Hessian          InHess   .... Almloef's Model
Max. no of cycles        MaxIter  .... 66

Convergence Tolerances:
Energy Change            TolE     ....  5.0000e-06 Eh
Max. Gradient            TolMAXG  ....  3.0000e-04 Eh/bohr
RMS Gradient             TolRMSG  ....  1.0000e-04 Eh/bohr
Max. Displacement        TolMAXD  ....  4.0000e-03 bohr
RMS Displacement         TolRMSD  ....  2.0000e-03 bohr
Strict Convergence                .... False

------------------------------------------------------------------------------
                        ORCA OPTIMIZATION COORDINATE SETUP
------------------------------------------------------------------------------

The optimization will be done in redundant internal coordinates (2022)
Making redundant internal coordinates   ...  (2022 redundants) done
Evaluating the initial hessian          ...  (Almloef) done
Evaluating the coordinates              ...  done
Calculating the B-matrix                .... done
Calculating the G-matrix                .... done
The number of degrees of freedom        ....   94

    -----------------------------------------------------------------
                    Redundant Internal Coordinates


    -----------------------------------------------------------------
         Definition                    Initial Value    Approx d2E/dq
    -----------------------------------------------------------------
      1. B(C   1,C   0)                  1.5218         0.385014   
      2. B(C   4,C   0)                  1.5395         0.360725   
      3. B(H   5,C   0)                  1.0931         0.356022   
      4. B(N   7,H   3)                  1.0161         0.423187   
      5. B(N   7,C   0)                  1.4519         0.445759   
      6. B(N   7,H   2)                  1.0149         0.424974   
      7. B(C   8,C   4)                  1.5314         0.371722   
      8. B(H   9,C   4)                  1.0914         0.358189   
      9. B(H  10,C   4)                  1.0932         0.355951   
     10. B(C  11,C   8)                  1.5268         0.378024   
     11. B(H  12,C  11)                  1.0864         0.364892   
     12. B(C  13,C   8)                  1.5283         0.375966   
     13. B(C  13,H   6)                  1.0878         0.362961   
     14. B(H  14,C  11)                  1.0877         0.363120   
     15. B(H  15,C  11)                  1.0876         0.363300   
     16. B(H  16,C   8)                  1.0947         0.353876   
     17. B(H  17,C  13)                  1.0877         0.363222   
     18. B(H  18,C  13)                  1.0874         0.363492   
     19. B(O  19,C   1)                  1.3378         0.677979   
     20. B(H  20,O  19)                  0.9713         0.498885   
     21. B(O  21,C   1)                  1.2037         1.109599   
     22. A(C   4,C   0,N   7)          108.4600         0.369959   
     23. A(C   1,C   0,H   5)          108.8029         0.325321   
     24. A(H   5,C   0,N   7)          108.5979         0.331278   
     25. A(C   4,C   0,H   5)          110.0793         0.321861   
     26. A(C   1,C   0,N   7)          111.9361         0.374134   
     27. A(C   1,C   0,C   4)          108.9563         0.363051   
     28. A(C   0,C   1,O  21)          124.3297         0.439504   
     29. A(C   0,C   1,O  19)          113.0537         0.402522   
     30. A(O  19,C   1,O  21)          122.6158         0.484117   
     31. A(H   9,C   4,H  10)          107.6652         0.290068   
     32. A(C   0,C   4,H  10)          107.8669         0.321850   
     33. A(C   8,C   4,H   9)          109.5549         0.323771   
     34. A(C   0,C   4,H   9)          106.7442         0.322181   
     35. A(C   0,C   4,C   8)          115.2692         0.360881   
     36. A(C   8,C   4,H  10)          109.4595         0.323438   
     37. A(C   0,N   7,H   2)          110.4601         0.338244   
     38. A(H   2,N   7,H   3)          107.0395         0.301313   
     39. A(C   0,N   7,H   3)          109.1742         0.338007   
     40. A(C  13,C   8,H  16)          108.4295         0.323731   
     41. A(C   4,C   8,H  16)          109.1550         0.323128   
     42. A(C  11,C   8,H  16)          108.4177         0.324021   
     43. A(C  11,C   8,C  13)          109.8766         0.364485   
     44. A(C   4,C   8,C  13)          109.2346         0.363439   
     45. A(C   4,C   8,C  11)          111.6642         0.363778   
     46. A(H  14,C  11,H  15)          108.4412         0.291627   
     47. A(H  12,C  11,H  15)          107.8878         0.291850   
     48. A(C   8,C  11,H  15)          110.1334         0.325423   
     49. A(H  12,C  11,H  14)          108.6436         0.291827   
     50. A(C   8,C  11,H  14)          110.4020         0.325397   
     51. A(C   8,C  11,H  12)          111.2472         0.325657   
     52. A(H   6,C  13,H  18)          108.3746         0.291631   
     53. A(C   8,C  13,H  17)          110.8769         0.325120   
     54. A(H   6,C  13,H  17)          108.4099         0.291597   
     55. A(H   6,C  13,C   8)          110.3005         0.325081   
     56. A(H  17,C  13,H  18)          108.2901         0.291664   
     57. A(C   8,C  13,H  18)          110.5100         0.325160   
     58. A(C   1,O  19,H  20)          110.5863         0.373189   
     59. D(O  19,C   1,C   0,H   5)     30.8234         0.011044   
     60. D(O  21,C   1,C   0,H   5)   -148.8523         0.011044   
     61. D(O  21,C   1,C   0,C   4)     91.1200         0.011044   
     62. D(O  19,C   1,C   0,N   7)    150.8448         0.011044   
     63. D(O  19,C   1,C   0,C   4)    -89.2043         0.011044   
     64. D(C   8,C   4,C   0,C   1)     70.5638         0.010437   
     65. D(C   8,C   4,C   0,H   5)    -48.6718         0.010437   
     66. D(H   9,C   4,C   0,H   5)     73.2344         0.010437   
     67. D(H   9,C   4,C   0,N   7)    -45.4515         0.010437   
     68. D(C   8,C   4,C   0,N   7)   -167.3577         0.010437   
     69. D(H   9,C   4,C   0,C   1)   -167.5299         0.010437   
     70. D(H   2,N   7,C   0,H   5)     58.5587         0.016947   
     71. D(H   2,N   7,C   0,C   4)    178.1767         0.016947   
     72. D(H   3,N   7,C   0,C   1)     55.8606         0.016947   
     73. D(H   2,N   7,C   0,C   1)    -61.5824         0.016947   
     74. D(H   3,N   7,C   0,C   4)    -64.3803         0.016947   
     75. D(C  13,C   8,C   4,H  10)    -47.9777         0.011040   
     76. D(C  13,C   8,C   4,H   9)     69.8645         0.011040   
     77. D(C  13,C   8,C   4,C   0)   -169.7542         0.011040   
     78. D(C  11,C   8,C   4,H  10)   -169.7176         0.011040   
     79. D(C  11,C   8,C   4,H   9)    -51.8754         0.011040   
     80. D(C  11,C   8,C   4,C   0)     68.5059         0.011040   
     81. D(H  14,C  11,C   8,H  16)    176.8081         0.011396   
     82. D(H  14,C  11,C   8,C  13)    -64.8520         0.011396   
     83. D(H  14,C  11,C   8,C   4)     56.5165         0.011396   
     84. D(H  12,C  11,C   8,H  16)     56.1064         0.011396   
     85. D(H  12,C  11,C   8,C  13)    174.4463         0.011396   
     86. D(H  12,C  11,C   8,C   4)    -64.1852         0.011396   
     87. D(H   6,C  13,C   8,H  16)   -179.6276         0.011279   
     88. D(H   6,C  13,C   8,C  11)     62.0397         0.011279   
     89. D(H   6,C  13,C   8,C   4)    -60.7736         0.011279   
     90. D(H  17,C  13,C   8,H  16)    -59.5299         0.011279   
     91. D(H  17,C  13,C   8,C  11)   -177.8626         0.011279   
     92. D(H  17,C  13,C   8,C   4)     59.3241         0.011279   
     93. D(H  20,O  19,C   1,O  21)     -1.3992         0.034218   
     94. D(H  20,O  19,C   1,C   0)    178.9187         0.034218   
    -----------------------------------------------------------------

Number of atoms                         .... 22
Number of degrees of freedom            .... 94


         *************************************************************
         *                GEOMETRY OPTIMIZATION CYCLE   1            *
         *************************************************************
---------------------------------
CARTESIAN COORDINATES (ANGSTROEM)
---------------------------------
  C     -8.953312    6.308197   -2.521592
  C     -9.246996    7.240799   -1.355466
  H     -7.814003    7.608528   -3.607585
  H     -6.964231    6.698261   -2.551146
  C     -8.796880    4.872961   -1.987016
  H     -9.784895    6.356475   -3.229410
  H     -9.242007    2.226309   -1.442083
  N     -7.732317    6.675812   -3.215910
  C    -10.088633    4.214551   -1.494154
  H     -8.371061    4.279895   -2.798318
  H     -8.066506    4.895636   -1.173980
  C    -11.049602    3.927297   -2.645272
  H    -11.384760    4.846708   -3.117098
  C     -9.745595    2.914861   -0.767024
  H    -10.566389    3.306902   -3.396780
  H    -11.927596    3.401212   -2.277554
  H    -10.586737    4.885639   -0.787045
  H     -9.090776    3.105893    0.080149
  H    -10.648970    2.434530   -0.398596
  O    -10.553998    7.360049   -1.096364
  H    -10.699395    7.948206   -0.337233
  O     -8.404534    7.824089   -0.723934

----------------------------
CARTESIAN COORDINATES (A.U.)
----------------------------
  NO LB      ZA    FRAG     MASS         X           Y           Z
   0 C     6.0000    0    12.011  -16.919307   11.920765   -4.765118
   1 C     6.0000    0    12.011  -17.474289   13.683127   -2.561460
   2 H     1.0000    0     1.008  -14.766326   14.378033   -6.817348
   3 H     1.0000    0     1.008  -13.160489   12.657878   -4.820968
   4 C     6.0000    0    12.011  -16.623694    9.208561   -3.754915
   5 H     1.0000    0     1.008  -18.490772   12.011997   -6.102700
   6 H     1.0000    0     1.008  -17.464862    4.207115   -2.725141
   7 N     7.0000    0    14.007  -14.611961   12.615456   -6.077189
   8 C     6.0000    0    12.011  -19.064753    7.964347   -2.823541
   9 H     1.0000    0     1.008  -15.819012    8.087830   -5.288055
  10 H     1.0000    0     1.008  -15.243487    9.251411   -2.218501
  11 C     6.0000    0    12.011  -20.880722    7.421515   -4.998839
  12 H     1.0000    0     1.008  -21.514078    9.158951   -5.890461
  13 C     6.0000    0    12.011  -18.416506    5.508288   -1.449465
  14 H     1.0000    0     1.008  -19.967581    6.249139   -6.418984
  15 H     1.0000    0     1.008  -22.539891    6.427359   -4.303954
  16 H     1.0000    0     1.008  -20.006034    9.232520   -1.487300
  17 H     1.0000    0     1.008  -17.179077    5.869287    0.151459
  18 H     1.0000    0     1.008  -20.123637    4.600596   -0.753238
  19 O     8.0000    0    15.999  -19.944166   13.908476   -2.071827
  20 H     1.0000    0     1.008  -20.218926   15.019932   -0.637278
  21 O     8.0000    0    15.999  -15.882268   14.785386   -1.368036

--------------------------------
INTERNAL COORDINATES (ANGSTROEM)
--------------------------------
 C      0   0   0     0.000000000000     0.00000000     0.00000000
 C      1   0   0     1.521789997209     0.00000000     0.00000000
 H      1   2   0     2.041632735078    97.17970730     0.00000000
 H      3   1   2     1.633021956586    65.87376383    89.83440151
 C      1   2   3     1.539527976850   108.95627942   144.33574750
 H      1   2   3     1.093100617814   108.80285840   264.36347707
 H      5   1   2     2.738586020367   162.46623488   110.25870606
 N      3   1   2     1.014909268846    41.78134122   124.68684056
 C      5   1   2     1.531353055278   115.26915043    70.56381663
 H      5   1   2     1.091448801061   106.74420235   192.47006046
 H      5   1   2     1.093154574711   107.86692180   307.93320692
 C      9   5   1     1.526777407944   111.66420358    68.50590591
 H     12   9   5     1.086401578805   111.24723347   295.81477614
 C      7   5   1     1.087845619004    65.60783765   275.82408564
 H     12   9   5     1.087726952277   110.40196339    56.51652749
 H     12   9   5     1.087591728630   110.13341957   176.24060628
 H      9   5   1     1.094746273611   109.15504218   308.64747450
 H     14   7   5     1.087650049036   108.40985646   268.81871756
 H     14   7   5     1.087447749359   108.37458353   151.49069300
 O      2   1   3     1.337762833488   113.05370068   126.45995438
 H     20   2   1     0.971261309159   110.58634393   178.91871021
 O      2   1   3     1.203661756253   124.32969042   306.78425621

---------------------------
INTERNAL COORDINATES (A.U.)
---------------------------
 C      0   0   0     0.000000000000     0.00000000     0.00000000
 C      1   0   0     2.875766328067     0.00000000     0.00000000
 H      1   2   0     3.858126735347    97.17970730     0.00000000
 H      3   1   2     3.085964268627    65.87376383    89.83440151
 C      1   2   3     2.909286251755   108.95627942   144.33574750
 H      1   2   3     2.065660804489   108.80285840   264.36347707
 H      5   1   2     5.175177572679   162.46623488   110.25870606
 N      3   1   2     1.917900568897    41.78134122   124.68684056
 C      5   1   2     2.893837888818   115.26915043    70.56381663
 H      5   1   2     2.062539323202   106.74420235   192.47006046
 H      5   1   2     2.065762768247   107.86692180   307.93320692
 C      9   5   1     2.885191168473   111.66420358    68.50590591
 H     12   9   5     2.053001455401   111.24723347   295.81477614
 C      7   5   1     2.055730295904    65.60783765   275.82408564
 H     12   9   5     2.055506048288   110.40196339    56.51652749
 H     12   9   5     2.055250512629   110.13341957   176.24060628
 H      9   5   1     2.068770643255   109.15504218   308.64747450
 H     14   7   5     2.055360722224   108.40985646   268.81871756
 H     14   7   5     2.054978431238   108.37458353   151.49069300
 O      2   1   3     2.528005387431   113.05370068   126.45995438
 H     20   2   1     1.835417878785   110.58634393   178.91871021
 O      2   1   3     2.274591077193   124.32969042   306.78425621

---------------------
BASIS SET INFORMATION
---------------------
There are 4 groups of distinct atoms

 Group   1 Type C   : 10s4p1d contracted to 3s2p1d pattern {631/31/1}
 Group   2 Type H   : 4s1p contracted to 2s1p pattern {31/1}
 Group   3 Type N   : 10s4p1d contracted to 3s2p1d pattern {631/31/1}
 Group   4 Type O   : 10s4p1d contracted to 3s2p1d pattern {631/31/1}

Atom   0C    basis set group =>   1
Atom   1C    basis set group =>   1
Atom   2H    basis set group =>   2
Atom   3H    basis set group =>   2
Atom   4C    basis set group =>   1
Atom   5H    basis set group =>   2
Atom   6H    basis set group =>   2
Atom   7N    basis set group =>   3
Atom   8C    basis set group =>   1
Atom   9H    basis set group =>   2
Atom  10H    basis set group =>   2
Atom  11C    basis set group =>   1
Atom  12H    basis set group =>   2
Atom  13C    basis set group =>   1
Atom  14H    basis set group =>   2
Atom  15H    basis set group =>   2
Atom  16H    basis set group =>   2
Atom  17H    basis set group =>   2
Atom  18H    basis set group =>   2
Atom  19O    basis set group =>   4
Atom  20H    basis set group =>   2
Atom  21O    basis set group =>   4
------------------------------------------------------------------------------
                             ORCA STARTUP CALCULATIONS
------------------------------------------------------------------------------
------------------------------------------------------------------------------
                   ___                                                        
                  /   \      - P O W E R E D   B Y -                         
                 /     \                                                     
                 |  |  |   _    _      __       _____    __    __             
                 |  |  |  | |  | |    /  \     |  _  \  |  |  /  |          
                  \  \/   | |  | |   /    \    | | | |  |  | /  /          
                 / \  \   | |__| |  /  /\  \   | |_| |  |  |/  /          
                |  |  |   |  __  | /  /__\  \  |    /   |      \           
                |  |  |   | |  | | |   __   |  |    \   |  |\   \          
                \     /   | |  | | |  |  |  |  | |\  \  |  | \   \       
                 \___/    |_|  |_| |__|  |__|  |_| \__\ |__|  \__/        
                                                                              
                      - O R C A' S   B I G   F R I E N D -                    
                                      &                                       
                       - I N T E G R A L  F E E D E R -                       
                                                                              
 v1 FN, 2020, v2 2021, v3 2022-2024                                           
------------------------------------------------------------------------------


----------------------
SHARK INTEGRAL PACKAGE
----------------------

Number of atoms                             ...     22
Number of basis functions                   ...    191
Number of shells                            ...     93
Maximum angular momentum                    ...      2
Integral batch strategy                     ... SHARK/LIBINT Hybrid
RI-J (if used) integral strategy            ... SPLIT-RIJ (Revised 2003 algorithm where possible)
Printlevel                                  ...      1
Contraction scheme used                     ... SEGMENTED contraction
Prescreening option                         ... SCHWARTZ
   Thresh                                   ... 2.500e-11
   Tcut                                     ... 2.500e-12
   Tpresel                                  ... 2.500e-12 
Coulomb Range Separation                    ... NOT USED
Exchange Range Separation                   ... NOT USED
Multipole approximations                    ... NOT USED
Finite Nucleus Model                        ... NOT USED
CABS basis                                  ... NOT available
Auxiliary Coulomb fitting basis             ... NOT available
Auxiliary J/K fitting basis                 ... NOT available
Auxiliary Correlation fitting basis         ... NOT available
Auxiliary 'external' fitting basis          ... NOT available

Checking pre-screening integrals            ... done (  0.0 sec) Dimension = 93
   => SHARK Basis and OBASIS are compatible. Storing Pre-screening
Shell pair information
Shell pair cut-off parameter TPreSel        ...   2.5e-12
Total number of shell pairs                 ...      4371
Shell pairs after pre-screening             ...      3919
Total number of primitive shell pairs       ...     20328
Primitive shell pairs kept                  ...     12171
          la=0 lb=0:   1294 shell pairs
          la=1 lb=0:   1467 shell pairs
          la=1 lb=1:    439 shell pairs
          la=2 lb=0:    429 shell pairs
          la=2 lb=1:    248 shell pairs
          la=2 lb=2:     42 shell pairs

Checking whether 4 symmetric matrices of dimension 191 fit in memory
:Max Core in MB      =   4096.00
 MB in use           =      6.43
 MB left             =   4089.57
 MB needed           =      0.56
 Data fit in memory  = YES
Calculating Nuclear repulsion               ... done (  0.0 sec) ENN=    488.232793950999 Eh

Diagonalization of the overlap matrix:
Smallest eigenvalue                        ... 3.019e-03
Time for diagonalization                   ...    0.002 sec
Threshold for overlap eigenvalues          ... 1.000e-07
Number of eigenvalues below threshold      ... 0
Time for construction of square roots      ...    0.001 sec
Total time needed                          ...    0.003 sec

-------------------
DFT GRID GENERATION
-------------------

General Integration Accuracy     IntAcc      ... 4.388
Radial Grid Type                 RadialGrid  ... OptM3 with GC (2021)
Angular Grid (max. ang.)         AngularGrid ... 4 (Lebedev-302)
Angular grid pruning method      GridPruning ... 4 (adaptive)
Weight generation scheme         WeightScheme... mBecke (2022)
Basis function cutoff            BFCut       ... 1.0000e-11
Integration weight cutoff        WCut        ... 1.0000e-14
Partially contracted basis set               ... off
Rotationally invariant grid construction     ... off
Angular grids for H and He will be reduced by one unit

Total number of grid points                  ...    95658
Total number of batches                      ...     1506
Average number of points per batch           ...       63
Average number of grid points per atom       ...     4348
Grids setup in   0.4 sec
Initializing property integral containers    ... done (  0.0 sec)

SHARK setup successfully completed in   0.4 seconds

Maximum memory used throughout the entire STARTUP-calculation: 38.5 MB
-------------------------------------------------------------------------------
                                 ORCA GUESS
                   Start orbitals & Density for SCF / CASSCF
-------------------------------------------------------------------------------

------------
SCF SETTINGS
------------
Hamiltonian:
 Ab initio Hamiltonian  Method          .... Hartree-Fock(GTOs)


General Settings:
 Integral files         IntName         .... 4
 Hartree-Fock type      HFTyp           .... RHF
 Total Charge           Charge          ....    0
 Multiplicity           Mult            ....    1
 Number of Electrons    NEL             ....   72
 Basis Dimension        Dim             ....  191
 Nuclear Repulsion      ENuc            ....    488.2327939510 Eh

Convergence Acceleration:
 AO-DIIS                CNVDIIS         .... on
   Start iteration      DIISMaxIt       ....    12
   Startup error        DIISStart       ....  0.200000
   # of expansion vecs  DIISMaxEq       ....     5
   Bias factor          DIISBfac        ....   1.050
   Max. coefficient     DIISMaxC        ....  10.000
 MO-DIIS                CNVKDIIS        .... off
 Trust-Rad. Augm. Hess. CNVTRAH         .... auto
   Auto Start mean grad. ratio tolernc. ....  1.125000
   Auto Start start iteration           ....    50
   Auto Start num. interpolation iter.  ....    10
   Max. Number of Micro iterations      ....    24
   Max. Number of Macro iterations      .... Maxiter - #DIIS iter
   Number of Davidson start vectors     ....     2
   Converg. threshold    (grad. norm)   ....   1.000e-05
   Grad. Scal. Fac. for Micro threshold ....   0.100
   Minimum threshold for Micro iter.    ....   1.000e-02
   NR start threshold (gradient norm)   ....   1.000e-04
   Initial trust radius                 ....   0.400
   Minimum AH scaling param. (alpha)    ....   1.000
   Maximum AH scaling param. (alpha)    .... 1000.000
   Quad. conv. algorithm                .... NR
   White noise on init. David. guess    .... on
   Maximum white noise                  ....   0.010
   Pseudo random numbers                .... off
   Inactive MOs                         .... canonical
   Orbital update algorithm             .... Taylor
   Preconditioner                       .... Diag
   Full preconditioner red. dimension   ....   250
 SOSCF                 CNVSOSCF           .... on
   Start iteration     SOSCFMaxIt         ....   150
   Startup grad/error  SOSCFStart         ....  0.003300
   Hessian update      SOSCFHessUp        .... L-BFGS
   Autom. constraints  SOSCFAutoConstrain .... off
 Level Shifting         CNVShift        .... on
   Level shift para.    LevelShift      ....    0.2500
   Turn off err/grad.   ShiftErr        ....    0.0010
 Zerner damping         CNVZerner       .... off
 Static damping         CNVDamp         .... on
   Fraction old density DampFac         ....    0.7000
   Max. Damping (<1)    DampMax         ....    0.9800
   Min. Damping (>=0)   DampMin         ....    0.0000
   Turn off err/grad.   DampErr         ....    0.1000

SCF Procedure:
 Maximum # iterations   MaxIter         ....   125
 SCF integral mode      SCFMode         .... Direct
   Integral package                     .... SHARK and LIBINT hybrid scheme
 Reset frequency        DirectResetFreq ....    20
 Integral Threshold     Thresh          ....  2.500e-11 Eh
 Primitive CutOff       TCut            ....  2.500e-12 Eh

Convergence Tolerance:
 Convergence Check Mode ConvCheckMode   .... Total+1el-Energy
 Convergence forced     ConvForced      .... 1
 Energy Change          TolE            ....  1.000e-08 Eh
 1-El. energy change                    ....  1.000e-05 Eh
 Orbital Gradient       TolG            ....  1.000e-05
 Orbital Rotation angle TolX            ....  1.000e-05
 DIIS Error             TolErr          ....  5.000e-07

------------------------------
INITIAL GUESS: MODEL POTENTIAL
------------------------------
Loading Hartree-Fock densities                     ... done
Calculating cut-offs                               ... done
Initializing the effective Hamiltonian             ... done
Setting up the integral package (SHARK)            ... done
Starting the Coulomb interaction                   ... done (   0.1 sec)
Making the grid                                    ... done (   0.1 sec)
Mapping shells                                     ... done
Starting the XC term evaluation                    ... done (   0.0 sec)
Transforming the Hamiltonian                       ... done (   0.0 sec)
Diagonalizing the Hamiltonian                      ... done (   0.0 sec)
Back transforming the eigenvectors                 ... done (   0.0 sec)
Now organizing SCF variables                       ... done
                      ------------------
                      INITIAL GUESS DONE (   0.2 sec)
                      ------------------
             **** ENERGY FILE WAS UPDATED (4.en.tmp) ****
Finished Guess after   0.2 sec
Maximum memory used throughout the entire GUESS-calculation: 11.7 MB

-------------------------------------------------------------------------------------------
                                      ORCA LEAN-SCF
                              memory conserving SCF solver
-------------------------------------------------------------------------------------------

----------------------------------------D-I-I-S--------------------------------------------
Iteration    Energy (Eh)           Delta-E    RMSDP     MaxDP     DIISErr   Damp  Time(sec)
-------------------------------------------------------------------------------------------
               ***  Starting incremental Fock matrix formation  ***
    1    -438.5401362459278403     0.00e+00  2.47e-03  6.35e-02  2.47e-01  0.700   2.0
    2    -438.7037072134765481    -1.64e-01  1.88e-03  4.58e-02  1.53e-01  0.700   1.9
                               ***Turning on AO-DIIS***
    3    -438.7998003692406996    -9.61e-02  1.01e-03  2.23e-02  8.59e-02  0.700   1.8
    4    -438.8600998862922893    -6.03e-02  2.29e-03  4.66e-02  5.77e-02  0.000   1.8
    5    -438.9930851345337146    -1.33e-01  2.69e-04  5.17e-03  5.04e-03  0.000   1.9
                              *** Initializing SOSCF ***
---------------------------------------S-O-S-C-F--------------------------------------
Iteration    Energy (Eh)           Delta-E    RMSDP     MaxDP     MaxGrad    Time(sec)
--------------------------------------------------------------------------------------
    6    -438.9935722982447146    -4.87e-04  1.30e-04  2.86e-03  3.12e-03     1.7
               *** Restarting incremental Fock matrix formation ***
    7    -438.9936796897187037    -1.07e-04  7.68e-05  2.23e-03  1.47e-03     2.0
    8    -438.9937105168152698    -3.08e-05  7.46e-05  1.78e-03  4.43e-04     1.6
    9    -438.9937215141021056    -1.10e-05  1.25e-05  2.55e-04  1.77e-04     1.6
   10    -438.9937222166853985    -7.03e-07  7.70e-06  1.55e-04  4.68e-05     1.5
   11    -438.9937223523187981    -1.36e-07  1.67e-06  4.77e-05  1.84e-05     1.4
   12    -438.9937223642121467    -1.19e-08  4.52e-07  1.46e-05  4.55e-06     1.2
   13    -438.9937223655886669    -1.38e-09  1.57e-07  4.04e-06  1.07e-06     1.1
                 **** Energy Check signals convergence ****

               *****************************************************
               *                     SUCCESS                       *
               *           SCF CONVERGED AFTER  13 CYCLES          *
               *****************************************************

             **** ENERGY FILE WAS UPDATED (4.en.tmp) ****

----------------
TOTAL SCF ENERGY
----------------

Total Energy       :       -438.99372236733126 Eh          -11945.62649 eV

Components:
Nuclear Repulsion  :        488.23279395099854 Eh           13285.48974 eV
Electronic Energy  :       -927.22651631832980 Eh          -25231.11623 eV
One Electron Energy:      -1566.98786403391910 Eh          -42639.90755 eV
Two Electron Energy:        639.76134771558930 Eh           17408.79132 eV

Virial components:
Potential Energy   :       -877.61517295329122 Eh          -23881.12295 eV
Kinetic Energy     :        438.62145058596002 Eh           11935.49646 eV
Virial Ratio       :          2.00084873136249

---------------
SCF CONVERGENCE
---------------

  Last Energy change         ...    1.3765e-09  Tolerance :   1.0000e-08
  Last MAX-Density change    ...    4.0383e-06  Tolerance :   1.0000e-07
  Last RMS-Density change    ...    1.5661e-07  Tolerance :   5.0000e-09
  Last DIIS Error            ...    3.1159e-03  Tolerance :   5.0000e-07
  Last Orbital Gradient      ...    1.0742e-06  Tolerance :   1.0000e-05
  Last Orbital Rotation      ...    1.7089e-06  Tolerance :   1.0000e-05


----------------
ORBITAL ENERGIES
----------------

  NO   OCC          E(Eh)            E(eV) 
   0   2.0000     -20.619945      -561.0972 
   1   2.0000     -20.553763      -559.2963 
   2   2.0000     -15.546815      -423.0503 
   3   2.0000     -11.382347      -309.7294 
   4   2.0000     -11.271081      -306.7017 
   5   2.0000     -11.226214      -305.4808 
   6   2.0000     -11.225466      -305.4605 
   7   2.0000     -11.210995      -305.0667 
   8   2.0000     -11.210731      -305.0595 
   9   2.0000      -1.469738       -39.9936 
  10   2.0000      -1.362684       -37.0805 
  11   2.0000      -1.196507       -32.5586 
  12   2.0000      -1.093185       -29.7471 
  13   2.0000      -0.993163       -27.0253 
  14   2.0000      -0.932603       -25.3774 
  15   2.0000      -0.904049       -24.6004 
  16   2.0000      -0.808999       -22.0140 
  17   2.0000      -0.768266       -20.9056 
  18   2.0000      -0.713076       -19.4038 
  19   2.0000      -0.697730       -18.9862 
  20   2.0000      -0.666350       -18.1323 
  21   2.0000      -0.637876       -17.3575 
  22   2.0000      -0.619296       -16.8519 
  23   2.0000      -0.605276       -16.4704 
  24   2.0000      -0.597346       -16.2546 
  25   2.0000      -0.580311       -15.7911 
  26   2.0000      -0.544084       -14.8053 
  27   2.0000      -0.538321       -14.6485 
  28   2.0000      -0.530559       -14.4372 
  29   2.0000      -0.506682       -13.7875 
  30   2.0000      -0.488024       -13.2798 
  31   2.0000      -0.464940       -12.6517 
  32   2.0000      -0.462802       -12.5935 
  33   2.0000      -0.454925       -12.3791 
  34   2.0000      -0.449119       -12.2211 
  35   2.0000      -0.399314       -10.8659 
  36   0.0000       0.180266         4.9053 
  37   0.0000       0.217815         5.9270 
  38   0.0000       0.233492         6.3536 
  39   0.0000       0.243790         6.6339 
  40   0.0000       0.260197         7.0803 
  41   0.0000       0.281164         7.6509 
  42   0.0000       0.292207         7.9514 
  43   0.0000       0.300774         8.1845 
  44   0.0000       0.326228         8.8771 
  45   0.0000       0.330378         8.9901 
  46   0.0000       0.332581         9.0500 
*Only the first 10 virtual orbitals were printed.

                    ********************************
                    * MULLIKEN POPULATION ANALYSIS *
                    ********************************

-----------------------
MULLIKEN ATOMIC CHARGES
-----------------------
   0 C :   -0.033012
   1 C :    0.789039
   2 H :    0.271057
   3 H :    0.282816
   4 C :   -0.215623
   5 H :    0.157245
   6 H :    0.109290
   7 N :   -0.679295
   8 C :   -0.148991
   9 H :    0.145901
  10 H :    0.123363
  11 C :   -0.317864
  12 H :    0.112847
  13 C :   -0.318669
  14 H :    0.110248
  15 H :    0.113526
  16 H :    0.129565
  17 H :    0.111782
  18 H :    0.112095
  19 O :   -0.635487
  20 H :    0.370829
  21 O :   -0.590661
Sum of atomic charges:    0.0000000

--------------------------------
MULLIKEN REDUCED ORBITAL CHARGES
--------------------------------
  0 C s       :     3.199745  s :     3.199745
      pz      :     0.892313  p :     2.763113
      px      :     0.928527
      py      :     0.942273
      dz2     :     0.008110  d :     0.070154
      dxz     :     0.020499
      dyz     :     0.016097
      dx2y2   :     0.016003
      dxy     :     0.009445

  1 C s       :     2.954000  s :     2.954000
      pz      :     0.776158  p :     2.110941
      px      :     0.612113
      py      :     0.722670
      dz2     :     0.026697  d :     0.146020
      dxz     :     0.031748
      dyz     :     0.016677
      dx2y2   :     0.041227
      dxy     :     0.029672

  2 H s       :     0.702910  s :     0.702910
      pz      :     0.008341  p :     0.026034
      px      :     0.003636
      py      :     0.014057

  3 H s       :     0.691092  s :     0.691092
      pz      :     0.009711  p :     0.026091
      px      :     0.011126
      py      :     0.005254

  4 C s       :     3.240776  s :     3.240776
      pz      :     1.059345  p :     2.926772
      px      :     0.972033
      py      :     0.895394
      dz2     :     0.005162  d :     0.048075
      dxz     :     0.014272
      dyz     :     0.010026
      dx2y2   :     0.011508
      dxy     :     0.007106

  5 H s       :     0.830569  s :     0.830569
      pz      :     0.004679  p :     0.012186
      px      :     0.005890
      py      :     0.001617

  6 H s       :     0.878108  s :     0.878108
      pz      :     0.004520  p :     0.012602
      px      :     0.003365
      py      :     0.004717

  7 N s       :     3.605734  s :     3.605734
      pz      :     1.479143  p :     4.038770
      px      :     1.139023
      py      :     1.420604
      dz2     :     0.003438  d :     0.034791
      dxz     :     0.014325
      dyz     :     0.002714
      dx2y2   :     0.012352
      dxy     :     0.001963

  8 C s       :     3.235715  s :     3.235715
      pz      :     0.966860  p :     2.857613
      px      :     0.927788
      py      :     0.962965
      dz2     :     0.006271  d :     0.055664
      dxz     :     0.014612
      dyz     :     0.013923
      dx2y2   :     0.009296
      dxy     :     0.011561

  9 H s       :     0.841620  s :     0.841620
      pz      :     0.005964  p :     0.012479
      px      :     0.002864
      py      :     0.003651

 10 H s       :     0.864197  s :     0.864197
      pz      :     0.005812  p :     0.012440
      px      :     0.005026
      py      :     0.001602

 11 C s       :     3.246682  s :     3.246682
      pz      :     0.982492  p :     3.028990
      px      :     1.001009
      py      :     1.045489
      dz2     :     0.004476  d :     0.042192
      dxz     :     0.011573
      dyz     :     0.011208
      dx2y2   :     0.005583
      dxy     :     0.009351

 12 H s       :     0.874417  s :     0.874417
      pz      :     0.003185  p :     0.012737
      px      :     0.002624
      py      :     0.006928

 13 C s       :     3.248261  s :     3.248261
      pz      :     1.017700  p :     3.028102
      px      :     1.047376
      py      :     0.963026
      dz2     :     0.003852  d :     0.042306
      dxz     :     0.011976
      dyz     :     0.010833
      dx2y2   :     0.006437
      dxy     :     0.009209

 14 H s       :     0.877164  s :     0.877164
      pz      :     0.005272  p :     0.012588
      px      :     0.003153
      py      :     0.004164

 15 H s       :     0.873798  s :     0.873798
      pz      :     0.002602  p :     0.012676
      px      :     0.006513
      py      :     0.003562

 16 H s       :     0.857885  s :     0.857885
      pz      :     0.004630  p :     0.012550
      px      :     0.003284
      py      :     0.004636

 17 H s       :     0.875573  s :     0.875573
      pz      :     0.006192  p :     0.012645
      px      :     0.004455
      py      :     0.001998

 18 H s       :     0.875257  s :     0.875257
      pz      :     0.002652  p :     0.012648
      px      :     0.006731
      py      :     0.003266

 19 O s       :     3.837682  s :     3.837682
      pz      :     1.598217  p :     4.772501
      px      :     1.468642
      py      :     1.705642
      dz2     :     0.004498  d :     0.025305
      dxz     :     0.003180
      dyz     :     0.005136
      dx2y2   :     0.008856
      dxy     :     0.003635

 20 H s       :     0.587730  s :     0.587730
      pz      :     0.019694  p :     0.041441
      px      :     0.006476
      py      :     0.015271

 21 O s       :     3.874092  s :     3.874092
      pz      :     1.562632  p :     4.683943
      px      :     1.611153
      py      :     1.510158
      dz2     :     0.006275  d :     0.032625
      dxz     :     0.008392
      dyz     :     0.003694
      dx2y2   :     0.006281
      dxy     :     0.007983



                     *******************************
                     * LOEWDIN POPULATION ANALYSIS *
                     *******************************

----------------------
LOEWDIN ATOMIC CHARGES
----------------------
   0 C :   -0.025319
   1 C :    0.229939
   2 H :    0.128644
   3 H :    0.135025
   4 C :   -0.101096
   5 H :    0.077699
   6 H :    0.061889
   7 N :   -0.274698
   8 C :   -0.072601
   9 H :    0.075580
  10 H :    0.065098
  11 C :   -0.178402
  12 H :    0.062206
  13 C :   -0.176949
  14 H :    0.062232
  15 H :    0.064479
  16 H :    0.062744
  17 H :    0.062269
  18 H :    0.062964
  19 O :   -0.208582
  20 H :    0.200588
  21 O :   -0.313709

-------------------------------
LOEWDIN REDUCED ORBITAL CHARGES
-------------------------------
  0 C s       :     2.868560  s :     2.868560
      pz      :     1.000819  p :     3.016637
      px      :     0.990227
      py      :     1.025591
      dz2     :     0.016611  d :     0.140122
      dxz     :     0.039565
      dyz     :     0.033234
      dx2y2   :     0.031585
      dxy     :     0.019128

  1 C s       :     2.849948  s :     2.849948
      pz      :     0.890871  p :     2.603791
      px      :     0.900136
      py      :     0.812785
      dz2     :     0.057632  d :     0.316321
      dxz     :     0.067146
      dyz     :     0.034172
      dx2y2   :     0.094338
      dxy     :     0.063032

  2 H s       :     0.790136  s :     0.790136
      pz      :     0.025157  p :     0.081219
      px      :     0.011641
      py      :     0.044421

  3 H s       :     0.783014  s :     0.783014
      pz      :     0.031408  p :     0.081961
      px      :     0.033797
      py      :     0.016756

  4 C s       :     2.894928  s :     2.894928
      pz      :     1.071983  p :     3.114996
      px      :     1.047999
      py      :     0.995014
      dz2     :     0.009599  d :     0.091171
      dxz     :     0.024912
      dyz     :     0.018853
      dx2y2   :     0.023066
      dxy     :     0.014741

  5 H s       :     0.882109  s :     0.882109
      pz      :     0.015266  p :     0.040192
      px      :     0.017918
      py      :     0.007008

  6 H s       :     0.898377  s :     0.898377
      pz      :     0.013945  p :     0.039735
      px      :     0.010974
      py      :     0.014816

  7 N s       :     3.189355  s :     3.189355
      pz      :     1.458284  p :     4.023899
      px      :     1.166836
      py      :     1.398780
      dz2     :     0.004897  d :     0.061445
      dxz     :     0.024066
      dyz     :     0.005694
      dx2y2   :     0.021655
      dxy     :     0.005134

  8 C s       :     2.872225  s :     2.872225
      pz      :     1.036959  p :     3.090612
      px      :     1.021727
      py      :     1.031926
      dz2     :     0.012617  d :     0.109764
      dxz     :     0.028815
      dyz     :     0.026496
      dx2y2   :     0.019030
      dxy     :     0.022806

  9 H s       :     0.883874  s :     0.883874
      pz      :     0.018134  p :     0.040546
      px      :     0.010189
      py      :     0.012223

 10 H s       :     0.894982  s :     0.894982
      pz      :     0.017608  p :     0.039920
      px      :     0.015964
      py      :     0.006348

 11 C s       :     2.906973  s :     2.906973
      pz      :     1.054674  p :     3.196204
      px      :     1.061678
      py      :     1.079852
      dz2     :     0.008881  d :     0.075224
      dxz     :     0.021271
      dyz     :     0.019488
      dx2y2   :     0.009668
      dxy     :     0.015917

 12 H s       :     0.897706  s :     0.897706
      pz      :     0.010438  p :     0.040088
      px      :     0.008906
      py      :     0.020744

 13 C s       :     2.908507  s :     2.908507
      pz      :     1.067521  p :     3.193050
      px      :     1.080099
      py      :     1.045431
      dz2     :     0.006998  d :     0.075391
      dxz     :     0.019962
      dyz     :     0.019838
      dx2y2   :     0.012042
      dxy     :     0.016551

 14 H s       :     0.898005  s :     0.898005
      pz      :     0.016340  p :     0.039763
      px      :     0.010228
      py      :     0.013196

 15 H s       :     0.895867  s :     0.895867
      pz      :     0.008686  p :     0.039654
      px      :     0.019635
      py      :     0.011334

 16 H s       :     0.897244  s :     0.897244
      pz      :     0.014761  p :     0.040011
      px      :     0.010870
      py      :     0.014380

 17 H s       :     0.898139  s :     0.898139
      pz      :     0.018698  p :     0.039592
      px      :     0.013835
      py      :     0.007059

 18 H s       :     0.897423  s :     0.897423
      pz      :     0.008971  p :     0.039614
      px      :     0.019998
      py      :     0.010645

 19 O s       :     3.459376  s :     3.459376
      pz      :     1.560175  p :     4.701009
      px      :     1.480048
      py      :     1.660785
      dz2     :     0.007641  d :     0.048197
      dxz     :     0.008613
      dyz     :     0.008588
      dx2y2   :     0.015989
      dxy     :     0.007366

 20 H s       :     0.679265  s :     0.679265
      pz      :     0.055629  p :     0.120147
      px      :     0.020214
      py      :     0.044304

 21 O s       :     3.548071  s :     3.548071
      pz      :     1.569200  p :     4.708499
      px      :     1.630789
      py      :     1.508510
      dz2     :     0.008359  d :     0.057139
      dxz     :     0.015665
      dyz     :     0.008625
      dx2y2   :     0.010319
      dxy     :     0.014171



                      *****************************
                      * MAYER POPULATION ANALYSIS *
                      *****************************

  NA   - Mulliken gross atomic population
  ZA   - Total nuclear charge
  QA   - Mulliken gross atomic charge
  VA   - Mayer's total valence
  BVA  - Mayer's bonded valence
  FA   - Mayer's free valence

  ATOM       NA         ZA         QA         VA         BVA        FA
  0 C      6.0330     6.0000    -0.0330     3.7557     3.7557     0.0000
  1 C      5.2110     6.0000     0.7890     3.6639     3.6639     0.0000
  2 H      0.7289     1.0000     0.2711     0.9060     0.9060     0.0000
  3 H      0.7172     1.0000     0.2828     0.9059     0.9059     0.0000
  4 C      6.2156     6.0000    -0.2156     3.7548     3.7548     0.0000
  5 H      0.8428     1.0000     0.1572     0.9410     0.9410     0.0000
  6 H      0.8907     1.0000     0.1093     0.9529     0.9529     0.0000
  7 N      7.6793     7.0000    -0.6793     2.7755     2.7755     0.0000
  8 C      6.1490     6.0000    -0.1490     3.7903     3.7903     0.0000
  9 H      0.8541     1.0000     0.1459     0.9517     0.9517    -0.0000
 10 H      0.8766     1.0000     0.1234     0.9534     0.9534    -0.0000
 11 C      6.3179     6.0000    -0.3179     3.8378     3.8378     0.0000
 12 H      0.8872     1.0000     0.1128     0.9532     0.9532    -0.0000
 13 C      6.3187     6.0000    -0.3187     3.8426     3.8426    -0.0000
 14 H      0.8898     1.0000     0.1102     0.9532     0.9532     0.0000
 15 H      0.8865     1.0000     0.1135     0.9543     0.9543     0.0000
 16 H      0.8704     1.0000     0.1296     0.9477     0.9477     0.0000
 17 H      0.8882     1.0000     0.1118     0.9535     0.9535     0.0000
 18 H      0.8879     1.0000     0.1121     0.9542     0.9542     0.0000
 19 O      8.6355     8.0000    -0.6355     1.8251     1.8251    -0.0000
 20 H      0.6292     1.0000     0.3708     0.8730     0.8730    -0.0000
 21 O      8.5907     8.0000    -0.5907     1.8936     1.8936     0.0000

  Mayer bond orders larger than 0.100000
B(  0-C ,  1-C ) :   0.9010 B(  0-C ,  4-C ) :   0.9634 B(  0-C ,  5-H ) :   0.9579 
B(  0-C ,  7-N ) :   0.9981 B(  1-C , 19-O ) :   0.9632 B(  1-C , 21-O ) :   1.8285 
B(  2-H ,  7-N ) :   0.9109 B(  3-H ,  7-N ) :   0.8974 B(  4-C ,  8-C ) :   0.9637 
B(  4-C ,  9-H ) :   0.9628 B(  4-C , 10-H ) :   0.9675 B(  6-H , 13-C ) :   0.9721 
B(  8-C , 11-C ) :   0.9736 B(  8-C , 13-C ) :   0.9791 B(  8-C , 16-H ) :   0.9651 
B( 11-C , 12-H ) :   0.9757 B( 11-C , 14-H ) :   0.9716 B( 11-C , 15-H ) :   0.9769 
B( 13-C , 17-H ) :   0.9765 B( 13-C , 18-H ) :   0.9769 B( 19-O , 20-H ) :   0.8403 


-------
TIMINGS
-------

Total SCF time: 0 days 0 hours 0 min 22 sec 

Total time                  ....      22.554 sec
Sum of individual times     ....      21.572 sec  ( 95.6%)

SCF preparation             ....       0.017 sec  (  0.1%)
Fock matrix formation       ....      21.497 sec  ( 95.3%)
  Startup                   ....       0.001 sec  (  0.0% of F)
  Coulomb+Exchange Fock     ....      22.459 sec  (104.5% of F)
Diagonalization             ....       0.000 sec  (  0.0%)
Density matrix formation    ....       0.005 sec  (  0.0%)
Total Energy calculation    ....       0.001 sec  (  0.0%)
Population analysis         ....       0.003 sec  (  0.0%)
Orbital Transformation      ....       0.006 sec  (  0.0%)
Orbital Orthonormalization  ....       0.000 sec  (  0.0%)
DIIS solution               ....       0.026 sec  (  0.1%)
SOSCF solution              ....       0.016 sec  (  0.1%)
Finished LeanSCF after  22.6 sec

Maximum memory used throughout the entire LEANSCF-calculation: 15.3 MB

------------------------------------------------------------------------------
                                ORCA  MP2 
------------------------------------------------------------------------------

Freezing NCore=18 chemical core electrons
MP2 will be done in the AO integral direct mode
The Q1-step will be done using symmetric double matrices
Dimension of the basis                    ...  191
Memory devoted for MP2                    ... 4096 MB   
Memory needed for all in one shot         ...  722 MB
Number of MOs that can be treated together...  152      
MP2 density construction                  ... relaxed
The MP2 gradient is requested => amplitudes will be stored on disk
Total number of MOs              ...   27
Number of MOs treated per batch  ...   27 
Number of batches necessary      ...    1 
OPERATORS   0/  0 PASS   0
-----------------------------------------------
 MP2 CORRELATION ENERGY   :     -1.368888475 Eh
-----------------------------------------------


---------------------
MP2 DENSITY FORMATION
---------------------

Completing the external part of the density      ... done
Storing the unrelaxed density                    ... done

Calculating G(D)                                 ... done
Completing the Lagrangian                        ... done
Solving the Z-vector equations                   ... 
-------------------
SHARK CP-SCF DRIVER
-------------------

Dimension of the orbital basis          ...    191
Dimension of the CPSCF-problem          ...   5580
Number of operators                     ...      1
Max. number of iterations               ...    128
Convergence Tolerance                   ... 1.0e-04
Number of perturbations                 ...      1
Perturbation type                       ... REAL

----------------------------
POPLE LINEAR EQUATION SOLVER
----------------------------

  ITERATION   0:   ||err||_max =   1.2694e-01 (   2.6 sec)
  ITERATION   1:   ||err||_max =   3.3035e-02 (   2.6 sec)
  ITERATION   2:   ||err||_max =   1.4279e-02 (   2.7 sec)
  ITERATION   3:   ||err||_max =   3.4377e-03 (   2.6 sec)
  ITERATION   4:   ||err||_max =   1.2954e-03 (   2.7 sec)
  ITERATION   5:   ||err||_max =   3.0956e-04 (   2.6 sec)
  ITERATION   6:   ||err||_max =   9.9891e-05 (   3.5 sec)
                                                 ... done
Finalizing the relaxed density                   ... done
Transforming P to the AO basis                   ... done
Storing the relaxed density                      ... done

------------------------------------
ENERGY WEIGHTED DENSITY FINALIZATION
------------------------------------

Gathering the parts of the W-matrix              ...                                                      done
Forming the Z-density                            ... done
Transforming Z to the AO basis                   ... done
Calculating G(Z)                                 ... done
Finalizing the W-matrix                          ...                                                      done
Transforming W to the AO basis and storing       ... done

                *********************************************
                * UNRELAXED MP2 DENSITY POPULATION ANALYSIS *
                *********************************************

------------------------------------------------------------------------------
                           ORCA POPULATION ANALYSIS
------------------------------------------------------------------------------
Input electron density              ... 4.pmp2ur
BaseName (.gbw .S,...)              ... 4

                    ********************************
                    * MULLIKEN POPULATION ANALYSIS *
                    ********************************

-----------------------
MULLIKEN ATOMIC CHARGES
-----------------------
   0 C :   -0.038094
   1 C :    0.755642
   2 H :    0.269901
   3 H :    0.281184
   4 C :   -0.217236
   5 H :    0.157829
   6 H :    0.110197
   7 N :   -0.671615
   8 C :   -0.151167
   9 H :    0.146366
  10 H :    0.124055
  11 C :   -0.319870
  12 H :    0.113744
  13 C :   -0.320728
  14 H :    0.111155
  15 H :    0.114436
  16 H :    0.130094
  17 H :    0.112735
  18 H :    0.113042
  19 O :   -0.621577
  20 H :    0.367543
  21 O :   -0.567635
Sum of atomic charges:    0.0000000

--------------------------------
MULLIKEN REDUCED ORBITAL CHARGES
--------------------------------
  0 C s       :     3.196558  s :     3.196558
      pz      :     0.890590  p :     2.755786
      px      :     0.926910
      py      :     0.938285
      dz2     :     0.011568  d :     0.085750
      dxz     :     0.023307
      dyz     :     0.019006
      dx2y2   :     0.018977
      dxy     :     0.012892
  1 C s       :     2.955613  s :     2.955613
      pz      :     0.781722  p :     2.132159
      px      :     0.618176
      py      :     0.732261
      dz2     :     0.029049  d :     0.156585
      dxz     :     0.033880
      dyz     :     0.018781
      dx2y2   :     0.043128
      dxy     :     0.031748
  2 H s       :     0.702026  s :     0.702026
      pz      :     0.009080  p :     0.028073
      px      :     0.004492
      py      :     0.014501
  3 H s       :     0.690709  s :     0.690709
      pz      :     0.010363  p :     0.028107
      px      :     0.011615
      py      :     0.006129
  4 C s       :     3.237437  s :     3.237437
      pz      :     1.054657  p :     2.915313
      px      :     0.967978
      py      :     0.892678
      dz2     :     0.008561  d :     0.064486
      dxz     :     0.017396
      dyz     :     0.013316
      dx2y2   :     0.014656
      dxy     :     0.010557
  5 H s       :     0.827238  s :     0.827238
      pz      :     0.005544  p :     0.014933
      px      :     0.006705
      py      :     0.002685
  6 H s       :     0.874413  s :     0.874413
      pz      :     0.005414  p :     0.015390
      px      :     0.004332
      py      :     0.005644
  7 N s       :     3.601084  s :     3.601084
      pz      :     1.469376  p :     4.013858
      px      :     1.132814
      py      :     1.411668
      dz2     :     0.008038  d :     0.056674
      dxz     :     0.018377
      dyz     :     0.007315
      dx2y2   :     0.016499
      dxy     :     0.006445
  8 C s       :     3.232006  s :     3.232006
      pz      :     0.963253  p :     2.846994
      px      :     0.924535
      py      :     0.959206
      dz2     :     0.009851  d :     0.072167
      dxz     :     0.017650
      dyz     :     0.017096
      dx2y2   :     0.012688
      dxy     :     0.014883
  9 H s       :     0.838385  s :     0.838385
      pz      :     0.006773  p :     0.015249
      px      :     0.003870
      py      :     0.004605
 10 H s       :     0.860658  s :     0.860658
      pz      :     0.006652  p :     0.015287
      px      :     0.005941
      py      :     0.002694
 11 C s       :     3.243535  s :     3.243535
      pz      :     0.978990  p :     3.018411
      px      :     0.997533
      py      :     1.041887
      dz2     :     0.007866  d :     0.057925
      dxz     :     0.014463
      dyz     :     0.014284
      dx2y2   :     0.008828
      dxy     :     0.012484
 12 H s       :     0.870715  s :     0.870715
      pz      :     0.004183  p :     0.015540
      px      :     0.003658
      py      :     0.007700
 13 C s       :     3.245093  s :     3.245093
      pz      :     1.014307  p :     3.017667
      px      :     1.043764
      py      :     0.959596
      dz2     :     0.007208  d :     0.057968
      dxz     :     0.014957
      dyz     :     0.013826
      dx2y2   :     0.009589
      dxy     :     0.012389
 14 H s       :     0.873467  s :     0.873467
      pz      :     0.006161  p :     0.015378
      px      :     0.004127
      py      :     0.005089
 15 H s       :     0.870122  s :     0.870122
      pz      :     0.003602  p :     0.015442
      px      :     0.007327
      py      :     0.004514
 16 H s       :     0.854484  s :     0.854484
      pz      :     0.005550  p :     0.015422
      px      :     0.004283
      py      :     0.005589
 17 H s       :     0.871846  s :     0.871846
      pz      :     0.007016  p :     0.015419
      px      :     0.005363
      py      :     0.003041
 18 H s       :     0.871543  s :     0.871543
      pz      :     0.003659  p :     0.015414
      px      :     0.007500
      py      :     0.004255
 19 O s       :     3.833442  s :     3.833442
      pz      :     1.587575  p :     4.739788
      px      :     1.458745
      py      :     1.693468
      dz2     :     0.009042  d :     0.048346
      dxz     :     0.007914
      dyz     :     0.009710
      dx2y2   :     0.013259
      dxy     :     0.008422
 20 H s       :     0.589863  s :     0.589863
      pz      :     0.019885  p :     0.042594
      px      :     0.007060
      py      :     0.015649
 21 O s       :     3.869537  s :     3.869537
      pz      :     1.548720  p :     4.643834
      px      :     1.599412
      py      :     1.495702
      dz2     :     0.010721  d :     0.054264
      dxz     :     0.012588
      dyz     :     0.008014
      dx2y2   :     0.010772
      dxy     :     0.012170


                     *******************************
                     * LOEWDIN POPULATION ANALYSIS *
                     *******************************

----------------------
LOEWDIN ATOMIC CHARGES
----------------------
   0 C :   -0.028680
   1 C :    0.205538
   2 H :    0.127975
   3 H :    0.134105
   4 C :   -0.101489
   5 H :    0.077827
   6 H :    0.062084
   7 N :   -0.270249
   8 C :   -0.074043
   9 H :    0.075700
  10 H :    0.065299
  11 C :   -0.178397
  12 H :    0.062396
  13 C :   -0.177048
  14 H :    0.062442
  15 H :    0.064678
  16 H :    0.062879
  17 H :    0.062499
  18 H :    0.063183
  19 O :   -0.199738
  20 H :    0.198174
  21 O :   -0.295136

-------------------------------
LOEWDIN REDUCED ORBITAL CHARGES
-------------------------------
  0 C s       :     2.868827  s :     2.868827
      pz      :     0.996255  p :     3.001658
      px      :     0.985980
      py      :     1.019423
      dz2     :     0.020306  d :     0.158194
      dxz     :     0.043123
      dyz     :     0.036683
      dx2y2   :     0.035307
      dxy     :     0.022776
  1 C s       :     2.850650  s :     2.850650
      pz      :     0.894270  p :     2.615980
      px      :     0.901549
      py      :     0.820161
      dz2     :     0.059788  d :     0.327832
      dxz     :     0.069546
      dyz     :     0.037106
      dx2y2   :     0.096150
      dxy     :     0.065241
  2 H s       :     0.787052  s :     0.787052
      pz      :     0.026114  p :     0.084973
      px      :     0.012685
      py      :     0.046174
  3 H s       :     0.780263  s :     0.780263
      pz      :     0.032753  p :     0.085632
      px      :     0.035181
      py      :     0.017698
  4 C s       :     2.894560  s :     2.894560
      pz      :     1.065822  p :     3.096787
      px      :     1.041576
      py      :     0.989389
      dz2     :     0.013353  d :     0.110142
      dxz     :     0.028713
      dyz     :     0.022660
      dx2y2   :     0.026767
      dxy     :     0.018649
  5 H s       :     0.877136  s :     0.877136
      pz      :     0.016919  p :     0.045037
      px      :     0.019724
      py      :     0.008394
  6 H s       :     0.893552  s :     0.893552
      pz      :     0.015500  p :     0.044365
      px      :     0.012408
      py      :     0.016457
  7 N s       :     3.187456  s :     3.187456
      pz      :     1.448271  p :     3.997467
      px      :     1.159793
      py      :     1.389403
      dz2     :     0.009605  d :     0.085326
      dxz     :     0.028951
      dyz     :     0.010579
      dx2y2   :     0.026490
      dxy     :     0.009701
  8 C s       :     2.872357  s :     2.872357
      pz      :     1.031061  p :     3.072837
      px      :     1.015826
      py      :     1.025950
      dz2     :     0.016454  d :     0.128850
      dxz     :     0.032567
      dyz     :     0.030322
      dx2y2   :     0.022874
      dxy     :     0.026633
  9 H s       :     0.878961  s :     0.878961
      pz      :     0.019858  p :     0.045338
      px      :     0.011659
      py      :     0.013822
 10 H s       :     0.889879  s :     0.889879
      pz      :     0.019389  p :     0.044823
      px      :     0.017720
      py      :     0.007714
 11 C s       :     2.906147  s :     2.906147
      pz      :     1.048816  p :     3.179093
      px      :     1.055910
      py      :     1.074367
      dz2     :     0.012501  d :     0.093157
      dxz     :     0.024829
      dyz     :     0.023085
      dx2y2   :     0.013225
      dxy     :     0.019518
 12 H s       :     0.892839  s :     0.892839
      pz      :     0.011888  p :     0.044765
      px      :     0.010271
      py      :     0.022606
 13 C s       :     2.907671  s :     2.907671
      pz      :     1.061999  p :     3.176132
      px      :     1.074681
      py      :     1.039452
      dz2     :     0.010563  d :     0.093246
      dxz     :     0.023519
      dyz     :     0.023421
      dx2y2   :     0.015579
      dxy     :     0.020164
 14 H s       :     0.893155  s :     0.893155
      pz      :     0.018042  p :     0.044402
      px      :     0.011629
      py      :     0.014731
 15 H s       :     0.891051  s :     0.891051
      pz      :     0.010007  p :     0.044271
      px      :     0.021484
      py      :     0.012780
 16 H s       :     0.892091  s :     0.892091
      pz      :     0.016504  p :     0.045030
      px      :     0.012421
      py      :     0.016105
 17 H s       :     0.893287  s :     0.893287
      pz      :     0.020493  p :     0.044214
      px      :     0.015401
      py      :     0.008320
 18 H s       :     0.892582  s :     0.892582
      pz      :     0.010325  p :     0.044235
      px      :     0.021814
      py      :     0.012096
 19 O s       :     3.457435  s :     3.457435
      pz      :     1.549804  p :     4.669552
      px      :     1.470756
      py      :     1.648992
      dz2     :     0.012384  d :     0.072751
      dxz     :     0.013423
      dyz     :     0.013582
      dx2y2   :     0.021132
      dxy     :     0.012230
 20 H s       :     0.679205  s :     0.679205
      pz      :     0.056559  p :     0.122621
      px      :     0.020941
      py      :     0.045121
 21 O s       :     3.545100  s :     3.545100
      pz      :     1.555461  p :     4.668701
      px      :     1.618878
      py      :     1.494362
      dz2     :     0.013052  d :     0.081335
      dxz     :     0.020729
      dyz     :     0.013329
      dx2y2   :     0.015084
      dxy     :     0.019141


                      *****************************
                      * MAYER POPULATION ANALYSIS *
                      *****************************

  NA   - Mulliken gross atomic population
  ZA   - Total nuclear charge
  QA   - Mulliken gross atomic charge
  VA   - Mayer's total valence
  BVA  - Mayer's bonded valence
  FA   - Mayer's free valence

  ATOM       NA         ZA         QA         VA         BVA        FA
  0 C      6.0381     6.0000    -0.0381     3.8312     3.5525     0.2787
  1 C      5.2444     6.0000     0.7556     3.7289     3.4382     0.2907
  2 H      0.7301     1.0000     0.2699     0.9131     0.8672     0.0460
  3 H      0.7188     1.0000     0.2812     0.9133     0.8676     0.0457
  4 C      6.2172     6.0000    -0.2172     3.8393     3.5660     0.2733
  5 H      0.8422     1.0000     0.1578     0.9496     0.9016     0.0480
  6 H      0.8898     1.0000     0.1102     0.9624     0.9151     0.0473
  7 N      7.6716     7.0000    -0.6716     2.9679     2.6418     0.3261
  8 C      6.1512     6.0000    -0.1512     3.8699     3.5873     0.2826
  9 H      0.8536     1.0000     0.1464     0.9607     0.9117     0.0490
 10 H      0.8759     1.0000     0.1241     0.9630     0.9129     0.0501
 11 C      6.3199     6.0000    -0.3199     3.9245     3.6731     0.2514
 12 H      0.8863     1.0000     0.1137     0.9625     0.9151     0.0474
 13 C      6.3207     6.0000    -0.3207     3.9289     3.6778     0.2511
 14 H      0.8888     1.0000     0.1112     0.9627     0.9153     0.0474
 15 H      0.8856     1.0000     0.1144     0.9636     0.9163     0.0473
 16 H      0.8699     1.0000     0.1301     0.9573     0.9071     0.0502
 17 H      0.8873     1.0000     0.1127     0.9629     0.9157     0.0471
 18 H      0.8870     1.0000     0.1130     0.9635     0.9163     0.0472
 19 O      8.6216     8.0000    -0.6216     2.0847     1.7273     0.3574
 20 H      0.6325     1.0000     0.3675     0.8801     0.8355     0.0446
 21 O      8.5676     8.0000    -0.5676     2.1594     1.7613     0.3981

  Mayer bond orders larger than 0.100000
B(  0-C ,  1-C ) :   0.8521 B(  0-C ,  4-C ) :   0.9090 B(  0-C ,  5-H ) :   0.9204 
B(  0-C ,  7-N ) :   0.9409 B(  1-C , 19-O ) :   0.9099 B(  1-C , 21-O ) :   1.7091 
B(  2-H ,  7-N ) :   0.8737 B(  3-H ,  7-N ) :   0.8607 B(  4-C ,  8-C ) :   0.9092 
B(  4-C ,  9-H ) :   0.9245 B(  4-C , 10-H ) :   0.9287 B(  6-H , 13-C ) :   0.9352 
B(  8-C , 11-C ) :   0.9206 B(  8-C , 13-C ) :   0.9256 B(  8-C , 16-H ) :   0.9260 
B( 11-C , 12-H ) :   0.9385 B( 11-C , 14-H ) :   0.9346 B( 11-C , 15-H ) :   0.9399 
B( 13-C , 17-H ) :   0.9396 B( 13-C , 18-H ) :   0.9400 B( 19-O , 20-H ) :   0.8053 



                *******************************************
                * RELAXED MP2 DENSITY POPULATION ANALYSIS *
                *******************************************

------------------------------------------------------------------------------
                           ORCA POPULATION ANALYSIS
------------------------------------------------------------------------------
Input electron density              ... 4.pmp2re
BaseName (.gbw .S,...)              ... 4

                    ********************************
                    * MULLIKEN POPULATION ANALYSIS *
                    ********************************

-----------------------
MULLIKEN ATOMIC CHARGES
-----------------------
   0 C :   -0.053603
   1 C :    0.563365
   2 H :    0.255688
   3 H :    0.262611
[...]
   5 H :    0.079127
   6 H :    0.066607
   7 N :   -0.258173
   8 C :   -0.076583
   9 H :    0.076883
  10 H :    0.069513
  11 C :   -0.195227
  12 H :    0.070537
  13 C :   -0.189467
  14 H :    0.065594
  15 H :    0.068428
  16 H :    0.062512
  17 H :    0.067661
  18 H :    0.067636
  19 O :   -0.175200
  20 H :    0.187480
  21 O :   -0.231350

-------------------------------
LOEWDIN REDUCED ORBITAL CHARGES
-------------------------------
  0 C s       :     2.872118  s :     2.872118
      pz      :     1.025597  p :     3.024595
      px      :     0.976472
      py      :     1.022526
      dz2     :     0.018121  d :     0.150942
      dxz     :     0.041598
      dyz     :     0.031145
      dx2y2   :     0.033479
      dxy     :     0.026600
  1 C s       :     2.863509  s :     2.863509
      pz      :     0.940436  p :     2.687860
      px      :     0.889629
      py      :     0.857795
      dz2     :     0.062347  d :     0.304679
      dxz     :     0.067350
      dyz     :     0.038908
      dx2y2   :     0.081769
      dxy     :     0.054306
  2 H s       :     0.789111  s :     0.789111
      pz      :     0.025740  p :     0.083560
      px      :     0.014311
      py      :     0.043510
  3 H s       :     0.785215  s :     0.785215
      pz      :     0.037161  p :     0.084305
      px      :     0.028521
      py      :     0.018623
  4 C s       :     2.896851  s :     2.896851
      pz      :     1.068067  p :     3.108504
      px      :     1.041505
      py      :     0.998933
      dz2     :     0.012057  d :     0.104728
      dxz     :     0.027254
      dyz     :     0.023234
      dx2y2   :     0.025298
      dxy     :     0.016886
  5 H s       :     0.875770  s :     0.875770
      pz      :     0.020019  p :     0.045102
      px      :     0.016353
      py      :     0.008730
  6 H s       :     0.889637  s :     0.889637
      pz      :     0.018006  p :     0.043757
      px      :     0.010073
      py      :     0.015678
  7 N s       :     3.202726  s :     3.202726
      pz      :     1.373123  p :     3.972235
      px      :     1.206805
      py      :     1.392307
      dz2     :     0.011391  d :     0.083211
      dxz     :     0.024120
      dyz     :     0.012817
      dx2y2   :     0.023839
      dxy     :     0.011045
  8 C s       :     2.871787  s :     2.871787
      pz      :     1.037799  p :     3.082030
      px      :     1.016846
      py      :     1.027385
      dz2     :     0.016273  d :     0.122766
      dxz     :     0.030432
      dyz     :     0.027623
      dx2y2   :     0.025630
      dxy     :     0.022807
  9 H s       :     0.878393  s :     0.878393
      pz      :     0.019204  p :     0.044724
      px      :     0.011035
      py      :     0.014485
 10 H s       :     0.886212  s :     0.886212
      pz      :     0.017793  p :     0.044275
      px      :     0.018518
      py      :     0.007964
 11 C s       :     2.908779  s :     2.908779
      pz      :     1.060010  p :     3.199530
      px      :     1.052328
      py      :     1.087193
      dz2     :     0.013919  d :     0.086918
      dxz     :     0.022145
      dyz     :     0.018453
      dx2y2   :     0.015492
      dxy     :     0.016909
 12 H s       :     0.884510  s :     0.884510
      pz      :     0.009957  p :     0.044953
      px      :     0.010313
      py      :     0.024683
 13 C s       :     2.910019  s :     2.910019
      pz      :     1.074799  p :     3.192166
      px      :     1.081091
      py      :     1.036276
      dz2     :     0.008410  d :     0.087282
      dxz     :     0.022822
      dyz     :     0.022176
      dx2y2   :     0.017911
      dxy     :     0.015964
 14 H s       :     0.890667  s :     0.890667
      pz      :     0.020764  p :     0.043739
      px      :     0.009599
      py      :     0.013376
 15 H s       :     0.887780  s :     0.887780
      pz      :     0.010687  p :     0.043792
      px      :     0.020520
      py      :     0.012584
 16 H s       :     0.893328  s :     0.893328
      pz      :     0.019064  p :     0.044160
      px      :     0.010403
      py      :     0.014694
 17 H s       :     0.888576  s :     0.888576
      pz      :     0.017514  p :     0.043763
      px      :     0.018305
      py      :     0.007944
 18 H s       :     0.888601  s :     0.888601
      pz      :     0.011607  p :     0.043763
      px      :     0.020491
      py      :     0.011665
 19 O s       :     3.483753  s :     3.483753
      pz      :     1.564543  p :     4.619148
      px      :     1.427662
      py      :     1.626943
      dz2     :     0.012689  d :     0.072298
      dxz     :     0.013489
      dyz     :     0.013150
      dx2y2   :     0.019977
      dxy     :     0.012993
 20 H s       :     0.692450  s :     0.692450
      pz      :     0.055223  p :     0.120070
      px      :     0.022207
      py      :     0.042640
 21 O s       :     3.561475  s :     3.561475
      pz      :     1.481624  p :     4.591120
      px      :     1.642945
      py      :     1.466551
      dz2     :     0.016380  d :     0.078755
      dxz     :     0.020685
      dyz     :     0.015823
      dx2y2   :     0.011916
      dxy     :     0.013951


                      *****************************
                      * MAYER POPULATION ANALYSIS *
                      *****************************

  NA   - Mulliken gross atomic population
  ZA   - Total nuclear charge
  QA   - Mulliken gross atomic charge
  VA   - Mayer's total valence
  BVA  - Mayer's bonded valence
  FA   - Mayer's free valence

  ATOM       NA         ZA         QA         VA         BVA        FA
  0 C      6.0591     6.0000    -0.0591     3.9044     3.6295     0.2749
  1 C      5.4321     6.0000     0.5679     3.9260     3.6470     0.2790
  2 H      0.7455     1.0000     0.2545     0.9185     0.8722     0.0464
  3 H      0.7372     1.0000     0.2628     0.9267     0.8809     0.0458
  4 C      6.1861     6.0000    -0.1861     3.9040     3.6345     0.2695
  5 H      0.8581     1.0000     0.1419     0.9552     0.9077     0.0475
  6 H      0.8918     1.0000     0.1082     0.9653     0.9179     0.0475
  7 N      7.6071     7.0000    -0.6071     3.0293     2.7062     0.3231
  8 C      6.1116     6.0000    -0.1116     3.9460     3.6671     0.2790
  9 H      0.8699     1.0000     0.1301     0.9640     0.9148     0.0492
 10 H      0.8871     1.0000     0.1129     0.9658     0.9156     0.0502
 11 C      6.3282     6.0000    -0.3282     3.9489     3.6982     0.2507
 12 H      0.8775     1.0000     0.1225     0.9677     0.9206     0.0470
 13 C      6.3215     6.0000    -0.3215     3.9566     3.7068     0.2498
 14 H      0.8944     1.0000     0.1056     0.9654     0.9176     0.0478
 15 H      0.8916     1.0000     0.1084     0.9658     0.9182     0.0476
 16 H      0.8937     1.0000     0.1063     0.9612     0.9105     0.0507
 17 H      0.8898     1.0000     0.1102     0.9648     0.9176     0.0472
 18 H      0.8909     1.0000     0.1091     0.9651     0.9178     0.0473
 19 O      8.5228     8.0000    -0.5228     2.2065     1.8526     0.3539
 20 H      0.6594     1.0000     0.3406     0.9036     0.8593     0.0442
 21 O      8.4444     8.0000    -0.4444     2.3147     1.9249     0.3898

  Mayer bond orders larger than 0.100000
B(  0-C ,  1-C ) :   0.8604 B(  0-C ,  4-C ) :   0.9203 B(  0-C ,  5-H ) :   0.9085 
B(  0-C ,  7-N ) :   0.9665 B(  1-C , 19-O ) :   0.9764 B(  1-C , 21-O ) :   1.8043 
B(  2-H ,  7-N ) :   0.8741 B(  3-H ,  7-N ) :   0.8615 B(  4-C ,  8-C ) :   0.9298 
B(  4-C ,  9-H ) :   0.9148 B(  4-C , 10-H ) :   0.9173 B(  6-H , 13-C ) :   0.9316 
B(  8-C , 11-C ) :   0.9379 B(  8-C , 13-C ) :   0.9399 B(  8-C , 16-H ) :   0.9170 
B( 11-C , 12-H ) :   0.9277 B( 11-C , 14-H ) :   0.9305 B( 11-C , 15-H ) :   0.9336 
B( 13-C , 17-H ) :   0.9336 B( 13-C , 18-H ) :   0.9336 B( 19-O , 20-H ) :   0.8123 



----------------------------------
MP2 DERIVATIVE INTEGRAL GENERATION
----------------------------------

Input SCF Electron Density              ... 4.scfp
Input Correlated Electron Density       ... 4.pmp2re
Input Energy Weighted Density           ... 4.wmp2.tmp
Input Wavefunction Amplitudes           ... 4.mp2tsaa.tmp

Nuclear repulsion gradient              ... done (  0.0 sec)
HCore & Overlap gradient  (SHARK)       ... done (  0.1 sec)
Analytic two-electron gradient terms    ... 
  Batch handling in the gradient evaluation:
  General contraction                   ... not used
  Memory available                      ... 4081.7 MB
  Memory per occupied orbital in Q2     ...    7.5 MB
  Memory per occupied orbital in Q3     ...    0.0 MB
  Total memory requirement per |i>      ...    7.6 MB
  Number of orbitals treated per batch  ...     27
  Number of batches to be done          ...      1
done ( 21.5 sec)

---------------------------------------
MP2 TOTAL ENERGY:     -440.365749796 Eh
---------------------------------------

The final MP2 gradient
  0:  -0.00003765  -0.00000031   0.00004889
  1:  -0.00000964  -0.00003072  -0.00007372
  2:   0.00000390  -0.00000153   0.00000023
  3:  -0.00000530   0.00000737   0.00000186
  4:   0.00004586   0.00000087  -0.00003539
  5:   0.00001414   0.00000543  -0.00000900
  6:  -0.00000978  -0.00000020  -0.00000967
  7:   0.00001528   0.00000292  -0.00002126
  8:  -0.00000770  -0.00001857   0.00004754
  9:  -0.00001823  -0.00000061   0.00000031
 10:  -0.00001291   0.00001110   0.00001519
 11:  -0.00003057  -0.00001209  -0.00006299
 12:   0.00001354   0.00001410   0.00002603
 13:   0.00000927   0.00000563   0.00002335
 14:   0.00000377  -0.00000607   0.00000608
 15:   0.00000368  -0.00000813   0.00000533
 16:  -0.00000295   0.00000304  -0.00001685
 17:   0.00000761  -0.00000419  -0.00000451
 18:  -0.00000543   0.00000159  -0.00000257
 19:  -0.00004319  -0.00000885  -0.00000226
 20:   0.00000615   0.00000278   0.00000076
 21:   0.00006015   0.00003645   0.00006265

-----------------------------------
NORM OF THE MP2 GRADIENT:  0.000192
-----------------------------------

Maximum memory used throughout the entire MP2-calculation: 780.1 MB

-------------------------   --------------------
FINAL SINGLE POINT ENERGY      -440.365749796065
-------------------------   --------------------

                                *** OPTIMIZATION RUN DONE ***


------------------------------------------------------------------------------
                              ORCA PROPERTY CALCULATIONS
------------------------------------------------------------------------------

GBWName                                 ... 4.gbw
Number of atoms                         ...     22
Number of basis functions               ...    191
Max core memory                         ...   4096 MB

Electric properties:
Dipole moment                           ... YES
Quadrupole moment                       ...  NO
Static polarizability (Dipole/Dipole)   ...  NO
Static polarizability (Dipole/Quad.)    ...  NO
Static polarizability (Quad./Quad.)     ...  NO
Static polarizability (Velocity)        ...  NO
Static hyperpolarizability              ...  NO

Atomic electric properties:
Dipole moment                           ...  NO
Quadrupole moment                       ...  NO
Static polarizability                   ...  NO

Choice of electric origin               ... Center of mass
Position of electric origin             ...   -17.821380    10.811844    -3.339446

General magnetic properties:
Magnetizability                         ...  NO

EPR properties:
g-Tensor (aka g-matrix)                 ...  NO
Zero-Field splitting spin-orbit         ...  NO
Zero-field splitting spin-spin          ...  NO
Hyperfine couplings                     ...  NO (   0 nuclei)
Quadrupole couplings                    ...  NO (   0 nuclei)
Contact density                         ...  NO (   0 nuclei)

NMR properties:
Chemical shifts                         ...  NO (   0 nuclei)
Spin-rotation constants                 ...  NO (   0 nuclei)
Spin-spin couplings                     ...  NO (   0 nuclei,    0 pairs)

Choice of magnetic origin               ... GIAO
Position of magnetic origin             ...     0.000000     0.000000     0.000000

Properties with geometric perturbations:
SCF Hessian                             ...  NO
IR spectrum                             ...  NO
VCD spectrum                            ...  NO
X-ray spectroscopy properties:
SCF XES/XAS/RIXS spectra                ...  NO

SCF SOC stabilization energy            ...  NO
Diagonal Born-Oppenheimer correction    ...  NO

-------------
DIPOLE MOMENT
-------------

Method             : SCF
Type of density    : Electron Density
Multiplicity       :   1
Irrep              :   0
Energy             :  -438.9918546591920290 Eh
Basis              : AO
                                X                 Y                 Z
Electronic contribution:      1.553929558      11.438414889       1.702612955
Nuclear contribution   :     -2.165762733     -11.390171221      -1.751651022
                        -----------------------------------------
Total Dipole Moment    :     -0.611833174       0.048243668      -0.049038067
                        -----------------------------------------
Magnitude (a.u.)       :      0.615688246
Magnitude (Debye)      :      1.564955153



--------------------
Rotational spectrum 
--------------------
 
Rotational constants in cm-1:             0.073645             0.035310             0.030950 
Rotational constants in MHz :          2207.809036          1058.554946           927.870338 

Dipole components along the rotational axes: 
x,y,z [a.u.] :     0.144124    -0.527561    -0.282807 
x,y,z [Debye]:     0.366334    -1.340954    -0.718837 

 

-------------
DIPOLE MOMENT
-------------

Method             : MP2
Type of density    : Electron Density
Multiplicity       :   1
Level              : Unrelaxed density
Irrep              :   0
Energy             :     0.0000000000000000 Eh
Basis              : AO
                                X                 Y                 Z
Electronic contribution:      1.571084179      11.455238139       1.725917138
Nuclear contribution   :     -2.165762733     -11.390171221      -1.751651022
                        -----------------------------------------
Total Dipole Moment    :     -0.594678553       0.065066918      -0.025733884
                        -----------------------------------------
Magnitude (a.u.)       :      0.598780860
Magnitude (Debye)      :      1.521979993



--------------------
Rotational spectrum 
--------------------
 
Rotational constants in cm-1:             0.073645             0.035310             0.030950 
Rotational constants in MHz :          2207.809036          1058.554946           927.870338 

Dipole components along the rotational axes: 
x,y,z [a.u.] :     0.123835    -0.526847    -0.256194 
x,y,z [Debye]:     0.314763    -1.339139    -0.651193 

 

-------------
DIPOLE MOMENT
-------------

Method             : MP2
Type of density    : Electron Density
Multiplicity       :   1
Level              : Relaxed density
Irrep              :   0
Energy             :     0.0000000000000000 Eh
Basis              : AO
                                X                 Y                 Z
Electronic contribution:      1.622314600      11.551545963       1.815594366
Nuclear contribution   :     -2.165762733     -11.390171221      -1.751651022
                        -----------------------------------------
Total Dipole Moment    :     -0.543448132       0.161374743       0.063943344
                        -----------------------------------------
Magnitude (a.u.)       :      0.570496653
Magnitude (Debye)      :      1.450087252



--------------------
Rotational spectrum 
--------------------
 
Rotational constants in cm-1:             0.073645             0.035310             0.030950 
Rotational constants in MHz :          2207.809036          1058.554946           927.870338 

Dipole components along the rotational axes: 
x,y,z [a.u.] :     0.020462    -0.546618    -0.162040 
x,y,z [Debye]:     0.052010    -1.389391    -0.411873 

 

Dipole moment calculation done in   0.0 sec 

Maximum memory used throughout the entire PROP-calculation: 10.4 MB

--------------------------------
SUGGESTED CITATIONS FOR THIS RUN
--------------------------------

Below you find a list of papers that are relevant to this ORCA run
We neither can nor want to force you to cite these papers, but we appreciate if you do
You receive ORCA, which is the product of decades of hard work by many enthusiastic individuals, for free
The only thing we kindly ask in return is that you cite our papers,
We deeply appreciate it, if you show your appreciation for ORCA by not just citing the generic ORCA reference.

Please note that relegating all ORCA citations to the supporting information does *not* help us.
SI sections are not indexed - citations you put there will not count into any citation statistics
But we need these citations in order to attract the funding resources that allow us to do what we are doing

Therefore, if you are a happy ORCA user, please consider citing a few of the papers listed below in the main body of your paper

In addition to the list printed below, the program has created the file 4.bibtex that contains the list in bibtex format
You can import this file easily into all common literature databanks and citation aid programs


List of essential papers. We consider these as the minimum necessary citations

  1. Neese, F.
     Software update: the ORCA program system, version 6.0
     WIRES Comput. Molec. Sci. 2025 15(1), e70019
     doi.org/10.1002/wcms.7019

List of papers to cite with high priority. The work reported in these papers was absolutely
necessary for this run to complete.
Our perspective: the developers of density functionals and basis sets usually get cited in chemistry papers
Good! But without the algorithms to do something with them, the functionals or basis sets would not do anything.
Hence, in our opinion, the algorithm design and method developments papers are equally worthy of getting cited

  1. Neese, F.
     The SHARK Integral Generation and Digestion System
     J. Comp. Chem. 2022 44(3), 381
     doi.org/10.1002/jcc.26942

List of suggested additional citations. These are papers that are important in the 'surrounding' of 
of this run, or papers that preceded the highly important papers. If you like your results we are grateful for a citation.

  1. Neese, F.
     The ORCA program system
     WIRES Comput. Molec. Sci. 2012 2(1), 73-78
     doi.org/10.1002/wcms.81
  2. Neese, F.
     Software update: the ORCA program system, version 4.0
     WIRES Comput. Molec. Sci. 2018 8(1), 1-6
     doi.org/10.1002/wcms.1327
  3. Neese, F.; Wennmohs, F.; Becker, U.; Riplinger, C.
     The ORCA quantum chemistry program package
     J. Chem. Phys. 2020 152(22), 224108
     doi.org/10.1063/5.0004608
  4. Neese, F.
     Software update: The ORCA program system—Version 5.0
     WIRES Comput. Molec. Sci. 2022 12(1), e1606
     doi.org/10.1002/wcms.1606

List of optional additional citations

  1. Neese, F.
     Approximate second-order SCF convergence for spin unrestricted wavefunctions
     Chem. Phys. Lett. 2000 325(1-3), 93-98
     doi.org/10.1016/s0009-2614(00)00662-x

Timings for individual modules:

Sum of individual times          ...      818.249 sec (=  13.637 min)
Startup calculation              ...        4.569 sec (=   0.076 min)   0.6 %
SCF iterations                   ...      163.093 sec (=   2.718 min)  19.9 %
Property calculations            ...        0.045 sec (=   0.001 min)   0.0 %
MP2 module                       ...      650.498 sec (=  10.842 min)  79.5 %
Geometry relaxation              ...        0.044 sec (=   0.001 min)   0.0 %
                             ****ORCA TERMINATED NORMALLY****
TOTAL RUN TIME: 0 days 0 hours 13 minutes 38 seconds 496 msec
