
                                 *****************
                                 * O   R   C   A *
                                 *****************

                                            #,                                       
                                            ###                                      
                                            ####                                     
                                            #####                                    
                                            ######                                   
                                           ########,                                 
                                     ,,################,,,,,                         
                               ,,#################################,,                 
                          ,,##########################################,,             
                       ,#########################################, ''#####,          
                    ,#############################################,,   '####,        
                  ,##################################################,,,,####,       
                ,###########''''           ''''###############################       
              ,#####''   ,,,,##########,,,,          '''####'''          '####       
            ,##' ,,,,###########################,,,                        '##       
           ' ,,###''''                  '''############,,,                           
         ,,##''                                '''############,,,,        ,,,,,,###''
      ,#''                                            '''#######################'''  
     '                                                          ''''####''''         
             ,#######,   #######,   ,#######,      ##                                
            ,#'     '#,  ##    ##  ,#'     '#,    #''#        ,####,    ,#,          
            ##       ##  ##   ,#'  ##            #'  '#       #'       ,# #          
            ##       ##  #######   ##           ,######,      #####,      #          
            '#,     ,#'  ##    ##  '#,     ,#' ,#      #,     #,   #      #          
             '#######'   ##     ##  '#######'  #'      '#     '####' #    #          



                #########################################################
                #                        -***-                          #
                #          Department of theory and spectroscopy        #
                #                                                       #
                #                      Frank Neese                      #
                #                                                       #
                #     Directorship, Architecture, Infrastructure        #
                #                    SHARK, DRIVERS                     #
                #        Core code/Algorithms in most modules           #
                #                                                       #
                #        Max Planck Institute fuer Kohlenforschung      #
                #                Kaiser Wilhelm Platz 1                 #
                #                 D-45470 Muelheim/Ruhr                 #
                #                      Germany                          #
                #                                                       #
                #                  All rights reserved                  #
                #                        -***-                          #
                #########################################################


                         Program Version 6.1.0  -  RELEASE   -
                                (GIT: $679e74b$)
                          ($2025-06-10 18:02:51 +0200$)


 With contributions from (in alphabetic order):
[Max-Planck-Institut fuer Kohlenforschung]                               
  Daniel Aravena         : Magnetic Suceptibility                        
  Michael Atanasov       : Ab Initio Ligand Field Theory (pilot matlab implementation)
  Alexander A. Auer      : GIAO ZORA, VPT2 properties, NMR spectrum      
  Ute Becker             : All parallelization in ORCA, NUMFREQ, NUMCALC 
  Giovanni Bistoni       : ED, misc. LED, open-shell LED, HFLD           
  Dmytro Bykov           : pre 5.0 version of the SCF Hessian            
  Marcos Casanova-Páez   : Triplet and SCS-CIS(D). UHF-(DLPNO)-IP/EA/STEOM-CCSD. UHF-CVS-IP/STEOM-CCSD   
  Vijay G. Chilkuri      : MRCI spin determinant printing, contributions to CSF-ICE 
  Pauline Colinet        : FMM embedding                                 
  Dipayan Datta          : RHF DLPNO-CCSD density                        
  Achintya Kumar Dutta   : EOM-CC, STEOM-CC                              
  Nicolas Foglia         : Exact transition moments, OPA infrastructure, MCD improvements    
  Dmitry Ganyushin       : Spin-Orbit,Spin-Spin,Magnetic field MRCI      
  Miquel Garcia-Rates    : C-PCM and meta-GGA Hessian, CCSD/C-PCM, Gaussian charge scheme 
  Tiago L. C. Gouveia    : GS-ROHF, GS-ROCIS                             
  Yang Guo               : DLPNO-NEVPT2, F12-NEVPT2, CIM, IAO-localization        
  Andreas Hansen         : Spin unrestricted coupled pair/coupled cluster methods 
  Ingolf Harden          : AUTO-CI MPn and infrastructure                
  Benjamin Helmich-Paris : MC-RPA, TRAH-(SCF,CASSCF), AVAS, COSX integrals, SCF dyn. polar., MC-PDFT, srDFT 
  Lee Huntington         : MR-EOM, pCC                                   
  Robert Izsak           : Overlap fitted RIJCOSX, COSX-SCS-MP3, EOM     
  Riya Kayal             : Wick's Theorem for AUTO-CI, AUTO-CI UHF-CCSDT 
  Emily Kempfer          : AUTO-CI RHF CISDT and CCSDT, approximate NEVPT4
  Christian Kollmar      : KDIIS, OOCD, Brueckner-CCSD(T), CCSD density, CASPT2, CASPT2-K, improved NEVPT2 
  Axel Koslowski         : Symmetry handling                             
  Simone Kossmann        : meta-GGA functionals, TD-DFT gradient, OOMP2, (MP2 Hessian; deprecated post 5.0) 
  Lucas Lang             : DCDCAS, Hyperfine gauge corrections, ICE-SOC+SSC
  Marvin Lechner         : AUTO-CI (C++ implementation), FIC-MRCC        
  Spencer Leger          : CASSCF response                               
  Dagmar Lenk            : GEPOL surface, SMD, ORCA-2-JSON               
  Dimitrios Liakos       : Extrapolation schemes; Compound Job, Property file
  Dimitrios Manganas     : Further ROCIS development; embedding schemes. LFT, Crystal Embedding 
  Dimitrios Pantazis     : SARC Basis sets                               
  Anastasios Papadopoulos: AUTO-CI, single reference methods and gradients 
  Taras Petrenko         : pre 6.0 DFT Hessian and TD-DFT gradient,  ECA, NRVS 
  Petra Pikulova         : Analytic Raman intensities                    
  Peter Pinski           : DLPNO-MP2, DLPNO-MP2 Gradient                 
  Shashank Vittal Rao    : ES-AILFT, MagRelax                            
  Christoph Reimann      : Effective Core Potentials                     
  Marius Retegan         : Local ZFS, SOC                                
  Christoph Riplinger    : Optimizer, TS searches, QM/MM, DLPNO-CCSD(T), (RO)-DLPNO pert. Triples 
  Michael Roemelt        : Original ROCIS implementation, recursive CI coupling coefficients
  Masaaki Saitow         : Open-shell DLPNO-CCSD energy and density      
  Barbara Sandhoefer     : DKH picture change effects                    
  Yorick L. A. Schmerwitz: GMF and freeze-and-release deltaSCF, NEB S-IDPP initial path                    
  Kantharuban Sivalingam : CASSCF convergence/infrastructure, NEVPT2, NEVPT3, NEVPT4(SD), FIC-MRCI and CEPA variants
  Bernardo de Souza      : ESD, SOC TD-DFT                               
  Georgi L. Stoychev     : AutoAux, RI-MP2 NMR, DLPNO-MP2 response, X2C  
  Van Anh Tran           : RI-MP2 g-tensors                              
  Willem Van den Heuvel  : Paramagnetic NMR                              
  Zikuan Wang            : NOTCH, Electric field optimization            
  Frank Wennmohs         : Technical directorship and infrastructure     
  Hang Xu                : AUTO-CI-Response properties                   
                                                                         
[FACCTs GmbH]                                                            
  Markus Bursch, Nicolas Foglia, Miquel Garcia-Rates, Ingolf Harden, Hagen Neugebauer, Anastasios Papadopoulos, 
  Christoph Riplinger, Bernardo de Souza, Georgi L. Stoychev                                                    
                                                                 
  APM, various basis sets, CI-OPT, improved COSX, DLPNO-Multilevel,           
  DOCKER, DRACO, updates on ESD, Fragmentator, GOAT, IRC, LR-CPCM, L-BFGS, MBIS, meta-GGA TD-DFT gradient, ML-optimized integration grids, 
  MM, NACMEs, nearIR, NEB, NEB-TS, NL-DFT gradient (VV10), 2- and 3-layer-ONIOM, interface openCOSMO-RS, QMMM,   
  Crystal-QMMM, RESP, rigid body optimization, SF, symmetry and pop. for TD-DFT, various functionals, SOLVATOR                                   
                                                                         
[Other institutions]                                                     
  V. Asgeirsson          : NEB                                           
  Christoph Bannwarth    : sTDA-DFT, sTD-DFT, PBEh-3c, B97-3c, D3        
  Giovanni Bistoni       : ETS/NOCV, ADLD/ADEX, COVALED                  
  Martin Brehm           : Molecular dynamics                            
  Ronald Cardenas        : ETS/NOCV                                      
  Martina Colucci        : COVALED                                       
  Sebastian Ehlert       : rSCAN, r2SCAN, r2SCAN-3c, D4, dhf basis sets  
  Marvin Friede          : D4 for Fr, Ra, Ac-Lr                          
  Lars Goerigk           : TD-DFT with DH, B97 family of functionals     
  Stefan Grimme          : VdW corrections, initial TS optimization, DFT functionals, gCP, sTDA/sTD-DF 
  Waldemar Hujo          : DFT-NL                                        
  H. Jonsson             : NEB                                           
  Holger Kruse           : gCP                                           
  Marcel Mueller         : wB97X-3c, vDZP basis set                      
  Hagen Neugebauer       : wr2SCAN, Native XTB                           
  Gianluca Regni         : ADLD/ADEX                                     
  Tobias Risthaus        : pre 6.0 range-separated hybrid DFT and stability analysis
  Lukas Wittmann         : regularized MP2, r2SCAN double-hybrids, wr2SCAN        
                                                                         
We gratefully acknowledge several colleagues who have allowed us to      
interface, adapt or use parts of their codes:                            
  Ed Valeev, F. Pavosevic, A. Kumar             : LibInt (2-el integral package), F12 methods 
  Garnet Chan, S. Sharma, J. Yang, R. Olivares  : DMRG                   
  Ulf Ekstrom                                   : XCFun DFT Library      
  Mihaly Kallay                                 : mrcc  (arbitrary order and MRCC methods)
  Frank Weinhold                                : gennbo (NPA and NBO analysis)           
  Simon Mueller                                 : openCOSMO-RS                            
  Christopher J. Cramer and Donald G. Truhlar   : smd solvation model                     
  S Lehtola, MJT Oliveira, MAL Marques          : LibXC Library                           
  Liviu Ungur et al                             : ANISO software                          


 Your calculation uses the libint2 library for the computation of 2-el integrals
 For citations please refer to: http://libint.valeyev.net

 Your ORCA version has been built with support for libXC version: 7.0.0
 For citations please refer to: https://libxc.gitlab.io

 This ORCA versions uses:
   CBLAS   interface :  Fast vector & matrix operations
   LAPACKE interface :  Fast linear algebra routines
   SCALAPACK package :  Parallel linear algebra routines
   Shared memory     :  Shared parallel matrices
   BLAS/LAPACK       :  OpenBLAS 0.3.29  USE64BITINT DYNAMIC_ARCH NO_AFFINITY Haswell SINGLE_THREADED
        Core in use  :  Haswell
   Copyright (c) 2011-2014, The OpenBLAS Project


  ***********************************
  * Starting time: Wed Sep  3 14:50:11 2025
  * Host name:     chemlab03
  * Process ID:    121842
  * Working dir.:  /home/vivek/mm-project/vivek/xtb-goat/MP2-opt/h/3
  ***********************************



***************************************
The coordinates will be read from file: /home/vivek/mm-project/vivek/xtb-goat/xtb-goat/h/H_CONF/3.xyz
***************************************


================================================================================

----- Orbital basis set information -----
Your calculation utilizes the basis: 6-31G**
   H-He, Li-Ne : W. J. Hehre, R. Ditchfield and J.A. Pople, J. Chem. Phys. 56, 2257 (1972).
                 Note: He and Ne are unpublished basis sets taken from the Gaussian program.
                 Note: Li and B from J. D. Dill and J. A. Pople, J. Chem. Phys. 62, 2921 (1975).
   Na - Ar     : M. M. Francl, W. J. Pietro, W. J. Hehre, J. S. Binkley, M. S. Gordon, 
                 D. J. DeFrees and J. A. Pople, J. Chem. Phys. 77, 3654 (1982).
   K - Zn      : V. A. Rassolov, J. A. Pople, M. A. Ratner, and T. L. Windus, J. Chem. Phys. 109, 1223 (1998).

================================================================================
                                        WARNINGS
                       Please study these warnings very carefully!
================================================================================


WARNING: The frozen-core approximation for MP2-gradient calculations is turned on by default.

WARNING: Geometry Optimization
  ===> : Switching off AutoStart
         For restart on a previous wavefunction, please use MOREAD

WARNING: Post HF methods need fully converged wavefunctions
  ===> : Setting SCFConvForced true
         You can overwrite this default with %scf ConvForced false 


================================================================================
                                       INPUT FILE
================================================================================
NAME = 3.inp
|  1> ! MP2 6-31G** opt
|  2> 
|  3> * xyzfile 0 1 /home/vivek/mm-project/vivek/xtb-goat/xtb-goat/h/H_CONF/3.xyz
|  4> 
|  5>                          ****END OF INPUT****
================================================================================

                       *****************************
                       * Geometry Optimization Run *
                       *****************************

Geometry optimization settings:
Update method            Update   .... BFGS
Choice of coordinates    CoordSys .... (2022) Redundant Internals
Initial Hessian          InHess   .... Almloef's Model
Max. no of cycles        MaxIter  .... 72

Convergence Tolerances:
Energy Change            TolE     ....  5.0000e-06 Eh
Max. Gradient            TolMAXG  ....  3.0000e-04 Eh/bohr
RMS Gradient             TolRMSG  ....  1.0000e-04 Eh/bohr
Max. Displacement        TolMAXD  ....  4.0000e-03 bohr
RMS Displacement         TolRMSD  ....  2.0000e-03 bohr
Strict Convergence                .... False

------------------------------------------------------------------------------
                        ORCA OPTIMIZATION COORDINATE SETUP
------------------------------------------------------------------------------

The optimization will be done in redundant internal coordinates (2022)
Making redundant internal coordinates   ...  (2022 redundants) done
Evaluating the initial hessian          ...  (Almloef) done
Evaluating the coordinates              ...  done
Calculating the B-matrix                .... done
Calculating the G-matrix                .... done
The number of degrees of freedom        ....  117

    -----------------------------------------------------------------
                    Redundant Internal Coordinates


    -----------------------------------------------------------------
         Definition                    Initial Value    Approx d2E/dq
    -----------------------------------------------------------------
      1. B(N   1,C   0)                  1.4591         0.434101   
      2. B(C   3,N   1)                  1.4634         0.427264   
      3. B(N   4,C   0)                  1.4516         0.446232   
      4. B(N   4,H   2)                  1.0167         0.422142   
      5. B(H   5,C   0)                  1.0963         0.351848   
      6. B(H   6,C   0)                  1.0891         0.361271   
      7. B(C   7,C   3)                  1.5611         0.333224   
      8. B(C   7,N   4)                  1.4567         0.438064   
      9. B(H   8,N   1)                  1.0142         0.426022   
     10. B(H   9,C   7)                  1.0927         0.356509   
     11. B(H  10,C   7)                  1.0890         0.361407   
     12. B(C  11,C   3)                  1.5292         0.374627   
     13. B(H  12,C   3)                  1.0940         0.354840   
     14. B(C  13,C  11)                  1.5281         0.376233   
     15. B(H  14,C  11)                  1.0912         0.358567   
     16. B(H  15,C  11)                  1.0886         0.361896   
     17. B(C  16,C  13)                  1.5313         0.371852   
     18. B(N  18,H  17)                  1.0161         0.423071   
     19. B(N  18,C  13)                  1.4546         0.441443   
     20. B(H  19,N  18)                  1.0148         0.425081   
     21. B(O  20,C  16)                  1.3506         0.646706   
     22. B(H  21,C  13)                  1.0938         0.355115   
     23. B(H  22,O  20)                  0.9694         0.502304   
     24. B(O  23,C  16)                  1.2091         1.087525   
     25. A(N   4,C   0,H   6)          112.1833         0.332140   
     26. A(N   1,C   0,N   4)          107.1785         0.379643   
     27. A(N   1,C   0,H   5)          107.2419         0.329187   
     28. A(N   4,C   0,H   5)          108.7163         0.330690   
     29. A(H   5,C   0,H   6)          109.2514         0.289931   
     30. A(N   1,C   0,H   6)          112.0931         0.330628   
     31. A(C   3,N   1,H   8)          112.1034         0.336003   
     32. A(C   0,N   1,H   8)          111.8566         0.336892   
     33. A(C   0,N   1,C   3)          105.0393         0.376800   
     34. A(C  11,C   3,H  12)          109.3195         0.323686   
     35. A(N   1,C   3,H  12)          110.1334         0.328785   
     36. A(C   7,C   3,C  11)          112.8840         0.356515   
     37. A(N   1,C   3,C   7)          104.7572         0.362327   
     38. A(N   1,C   3,C  11)          107.9679         0.369669   
     39. A(C   7,C   3,H  12)          111.6231         0.317547   
     40. A(C   0,N   4,H   2)          109.7055         0.337927   
     41. A(H   2,N   4,C   7)          110.1112         0.336889   
     42. A(C   0,N   4,C   7)          103.5041         0.380242   
     43. A(C   3,C   7,H   9)          109.7595         0.317789   
     44. A(C   3,C   7,N   4)          106.1620         0.363876   
     45. A(N   4,C   7,H  10)          111.2825         0.331146   
     46. A(C   3,C   7,H  10)          112.6886         0.318497   
     47. A(N   4,C   7,H   9)          108.1790         0.330400   
     48. A(H   9,C   7,H  10)          108.6635         0.290547   
     49. A(H  14,C  11,H  15)          108.9452         0.290872   
     50. A(C  13,C  11,H  15)          110.2841         0.324962   
     51. A(C   3,C  11,H  15)          111.3594         0.324734   
     52. A(C  13,C  11,H  14)          107.7100         0.324469   
     53. A(C   3,C  11,H  14)          109.7849         0.324241   
     54. A(C   3,C  11,C  13)          108.6854         0.363967   
     55. A(C  11,C  13,C  16)          108.2110         0.363505   
     56. A(N  18,C  13,H  21)          108.4984         0.330605   
     57. A(C  16,C  13,H  21)          108.8266         0.323332   
     58. A(C  11,C  13,H  21)          110.8768         0.323954   
     59. A(C  16,C  13,N  18)          110.4188         0.371276   
     60. A(C  11,C  13,N  18)          110.0042         0.372025   
     61. A(O  20,C  16,O  23)          122.0089         0.478142   
     62. A(C  13,C  16,O  23)          123.9125         0.435178   
     63. A(C  13,C  16,O  20)          112.3093         0.396757   
     64. A(H  17,N  18,H  19)          107.5990         0.301311   
     65. A(C  13,N  18,H  19)          110.1971         0.337710   
     66. A(C  13,N  18,H  17)          109.0659         0.337443   
     67. A(C  16,O  20,H  22)          109.3171         0.370602   
     68. D(C   3,N   1,C   0,H   5)     82.2791         0.016067   
     69. D(H   8,N   1,C   0,N   4)     87.5303         0.016067   
     70. D(C   3,N   1,C   0,N   4)    -34.3114         0.016067   
     71. D(H   8,N   1,C   0,H   5)   -155.8792         0.016067   
     72. D(C   3,N   1,C   0,H   6)   -157.8160         0.016067   
     73. D(C  11,C   3,N   1,H   8)    134.9721         0.015564   
     74. D(H  12,C   3,N   1,C   0)    137.3567         0.015564   
     75. D(C   7,C   3,N   1,C   0)     17.1952         0.015564   
     76. D(C  11,C   3,N   1,C   0)   -103.3471         0.015564   
     77. D(C   7,C   3,N   1,H   8)   -104.4856         0.015564   
     78. D(C   7,N   4,C   0,N   1)     37.1554         0.016983   
     79. D(H   2,N   4,C   0,H   5)    164.0491         0.016983   
     80. D(H   2,N   4,C   0,N   1)    -80.3370         0.016983   
     81. D(C   7,N   4,C   0,H   5)    -78.4585         0.016983   
     82. D(H   2,N   4,C   0,H   6)     43.1121         0.016983   
     83. D(H  10,C   7,N   4,C   0)   -147.9775         0.016363   
     84. D(H   9,C   7,N   4,H   2)   -150.0694         0.016363   
     85. D(H   9,C   7,N   4,C   0)     92.7223         0.016363   
     86. D(C   3,C   7,N   4,C   0)    -25.0295         0.016363   
     87. D(H   9,C   7,C   3,H  12)    129.0591         0.010000   
     88. D(H   9,C   7,C   3,C  11)      5.4451         0.010000   
     89. D(C   3,C   7,N   4,H   2)     92.1788         0.016363   
     90. D(N   4,C   7,C   3,H  12)   -114.2451         0.010000   
     91. D(N   4,C   7,C   3,C  11)    122.1408         0.010000   
     92. D(N   4,C   7,C   3,N   1)      4.9186         0.010000   
     93. D(H   9,C   7,C   3,N   1)   -111.7771         0.010000   
     94. D(H  14,C  11,C   3,N   1)     74.0171         0.011203   
     95. D(C  13,C  11,C   3,H  12)     76.2518         0.011203   
     96. D(C  13,C  11,C   3,C   7)   -158.8708         0.011203   
     97. D(H  14,C  11,C   3,C   7)    -41.2946         0.011203   
     98. D(C  13,C  11,C   3,N   1)    -43.5591         0.011203   
     99. D(H  14,C  11,C   3,H  12)   -166.1720         0.011203   
    100. D(N  18,C  13,C  11,H  15)    -56.2066         0.011294   
    101. D(N  18,C  13,C  11,H  14)     62.5684         0.011294   
    102. D(N  18,C  13,C  11,C   3)   -178.5437         0.011294   
    103. D(C  16,C  13,C  11,H  15)   -176.9123         0.011294   
    104. D(C  16,C  13,C  11,H  14)    -58.1373         0.011294   
    105. D(C  16,C  13,C  11,C   3)     60.7506         0.011294   
    106. D(O  23,C  16,C  13,N  18)    -59.2901         0.010347   
    107. D(O  23,C  16,C  13,C  11)     61.1573         0.010347   
    108. D(O  20,C  16,C  13,H  21)    -13.2099         0.010347   
    109. D(O  20,C  16,C  13,N  18)    105.7771         0.010347   
    110. D(O  20,C  16,C  13,C  11)   -133.7755         0.010347   
    111. D(H  19,N  18,C  13,C  16)    -61.5257         0.016618   
    112. D(H  19,N  18,C  13,C  11)    179.1070         0.016618   
    113. D(H  17,N  18,C  13,H  21)    175.5653         0.016618   
    114. D(H  17,N  18,C  13,C  16)     56.3791         0.016618   
    115. D(H  17,N  18,C  13,C  11)    -62.9882         0.016618   
    116. D(H  22,O  20,C  16,O  23)     -8.0930         0.030884   
    117. D(H  22,O  20,C  16,C  13)   -173.4856         0.030884   
    -----------------------------------------------------------------

Number of atoms                         .... 24
Number of degrees of freedom            .... 117


         *************************************************************
         *                GEOMETRY OPTIMIZATION CYCLE   1            *
         *************************************************************
---------------------------------
CARTESIAN COORDINATES (ANGSTROEM)
---------------------------------
  C     -8.724190    2.250112    0.228655
  N     -7.335920    2.469585    0.620552
  H     -9.679499    2.674879    1.973137
  C     -7.262708    3.885821    0.981923
  N     -9.545942    3.107917    1.062983
  H     -8.822697    2.574481   -0.813927
  H     -9.011352    1.202493    0.307453
  C     -8.747157    4.318654    1.196738
  H     -7.059906    1.865389    1.387001
  H     -9.047031    5.013716    0.408690
  H     -8.910248    4.795146    2.162299
  C     -6.586298    4.631962   -0.168860
  H     -6.670170    4.011861    1.892891
  C     -5.384450    3.815611   -0.642284
  H     -7.277942    4.721686   -1.008033
  H     -6.269549    5.627853    0.136132
  C     -5.891996    2.456134   -1.131130
  H     -5.326978    4.606184   -2.509251
  N     -4.698256    4.517096   -1.715970
  H     -3.890825    3.984299   -2.022703
  O     -5.152641    1.431247   -0.654550
  H     -4.676065    3.654676    0.175443
  H     -5.444575    0.605153   -1.069380
  O     -6.665893    2.315418   -2.049434

----------------------------
CARTESIAN COORDINATES (A.U.)
----------------------------
  NO LB      ZA    FRAG     MASS         X           Y           Z
   0 C     6.0000    0    12.011  -16.486331    4.252095    0.432096
   1 N     7.0000    0    14.007  -13.862879    4.666839    1.172673
   2 H     1.0000    0     1.008  -18.291602    5.054790    3.728688
   3 C     6.0000    0    12.011  -13.724528    7.343138    1.855566
   4 N     7.0000    0    14.007  -18.039217    5.873112    2.008746
   5 H     1.0000    0     1.008  -16.672481    4.865064   -1.538099
   6 H     1.0000    0     1.008  -17.028988    2.272383    0.581002
   7 C     6.0000    0    12.011  -16.529731    8.161073    2.261507
   8 H     1.0000    0     1.008  -13.341290    3.525073    2.621051
   9 H     1.0000    0     1.008  -17.096411    9.474550    0.772313
  10 H     1.0000    0     1.008  -16.837929    9.061512    4.086153
  11 C     6.0000    0    12.011  -12.446299    8.753139   -0.319099
  12 H     1.0000    0     1.008  -12.604795    7.581318    3.577045
  13 C     6.0000    0    12.011  -10.175136    7.210460   -1.213741
  14 H     1.0000    0     1.008  -13.753317    8.922693   -1.904906
  15 H     1.0000    0     1.008  -11.847731   10.635102    0.257252
  16 C     6.0000    0    12.011  -11.134259    4.641421   -2.137525
  17 H     1.0000    0     1.008  -10.066530    8.704427   -4.741798
  18 N     7.0000    0    14.007   -8.878418    8.536074   -3.242714
  19 H     1.0000    0     1.008   -7.352594    7.529234   -3.822354
  20 O     8.0000    0    15.999   -9.737080    2.704664   -1.236920
  21 H     1.0000    0     1.008   -8.836482    6.906337    0.331540
  22 H     1.0000    0     1.008  -10.288756    1.143574   -2.020835
  23 O     8.0000    0    15.999  -12.596711    4.375507   -3.872869

--------------------------------
INTERNAL COORDINATES (ANGSTROEM)
--------------------------------
 C      0   0   0     0.000000000000     0.00000000     0.00000000
 N      1   0   0     1.459125298701     0.00000000     0.00000000
 H      1   2   0     2.033778985963   100.66803710     0.00000000
 C      2   1   3     1.463446231181   105.03930974   297.51608569
 N      3   1   2     1.016729464622    42.21831920   106.58463644
 H      1   2   3     1.096310661550   107.24188007   144.76302271
 H      1   2   3     1.089116475075   112.09308656   264.66792411
 C      5   3   1     1.456651216852   110.11124586   246.71569834
 H      2   1   3     1.014238724415   111.85659620    59.35777077
 H      8   5   3     1.092728102864   108.17899418   209.93060772
 H      8   5   3     1.089014056591   111.28252529   329.23085266
 C      4   2   1     1.529234636907   107.96788924   256.65291932
 H      4   2   1     1.094005228332   110.13335909   137.35671982
 C     12   4   2     1.528069732188   108.68541008   316.44089893
 H     12   4   2     1.091161254284   109.78488009    74.01710300
 H     12   4   2     1.088645825425   111.35942706   194.75804152
 C     14  12   4     1.531257975525   108.21097404    60.75062986
 H     14  12   4     2.028269062122    95.69497065   156.37261395
 N     18  14  12     1.016131269191    42.67224670   122.72081066
 H     19  18  14     1.014840930028   107.59904166   119.52835370
 O     17  14  12     1.350617946218   112.30928324   226.22445905
 H     14  12   4     1.093794892707   110.87683743   301.47115908
 H     21  17  14     0.969401834130   109.31714074   186.51437350
 O     17  14  12     1.209131645474   123.91252899    61.15729509

---------------------------
INTERNAL COORDINATES (A.U.)
---------------------------
 C      0   0   0     0.000000000000     0.00000000     0.00000000
 N      1   0   0     2.757347209621     0.00000000     0.00000000
 H      1   2   0     3.843285300394   100.66803710     0.00000000
 C      2   1   3     2.765512588651   105.03930974   297.51608569
 N      3   1   2     1.921340240424    42.21831920   106.58463644
 H      1   2   3     2.071726908028   107.24188007   144.76302271
 H      1   2   3     2.058131865834   112.09308656   264.66792411
 C      5   3   1     2.752671872492   110.11124586   246.71569834
 H      2   1   3     1.916633423562   111.85659620    59.35777077
 H      8   5   3     2.064956853252   108.17899418   209.93060772
 H      8   5   3     2.057938322948   111.28252529   329.23085266
 C      4   2   1     2.889834658261   107.96788924   256.65291932
 H      4   2   1     2.067370270625   110.13335909   137.35671982
 C     12   4   2     2.887633307371   108.68541008   316.44089893
 H     12   4   2     2.061995938543   109.78488009    74.01710300
 H     12   4   2     2.057242466890   111.35942706   194.75804152
 C     14  12   4     2.893658214125   108.21097404    60.75062986
 H     14  12   4     3.832873053316    95.69497065   156.37261395
 N     18  14  12     1.920209814885    42.67224670   122.72081066
 H     19  18  14     1.917771427246   107.59904166   119.52835370
 O     17  14  12     2.552298029912   112.30928324   226.22445905
 H     14  12   4     2.066972793898   110.87683743   301.47115908
 H     21  17  14     1.831903980226   109.31714074   186.51437350
 O     17  14  12     2.284927669804   123.91252899    61.15729509

---------------------
BASIS SET INFORMATION
---------------------
There are 4 groups of distinct atoms

 Group   1 Type C   : 10s4p1d contracted to 3s2p1d pattern {631/31/1}
 Group   2 Type N   : 10s4p1d contracted to 3s2p1d pattern {631/31/1}
 Group   3 Type H   : 4s1p contracted to 2s1p pattern {31/1}
 Group   4 Type O   : 10s4p1d contracted to 3s2p1d pattern {631/31/1}

Atom   0C    basis set group =>   1
Atom   1N    basis set group =>   2
Atom   2H    basis set group =>   3
Atom   3C    basis set group =>   1
Atom   4N    basis set group =>   2
Atom   5H    basis set group =>   3
Atom   6H    basis set group =>   3
Atom   7C    basis set group =>   1
Atom   8H    basis set group =>   3
Atom   9H    basis set group =>   3
Atom  10H    basis set group =>   3
Atom  11C    basis set group =>   1
Atom  12H    basis set group =>   3
Atom  13C    basis set group =>   1
Atom  14H    basis set group =>   3
Atom  15H    basis set group =>   3
Atom  16C    basis set group =>   1
Atom  17H    basis set group =>   3
Atom  18N    basis set group =>   2
Atom  19H    basis set group =>   3
Atom  20O    basis set group =>   4
Atom  21H    basis set group =>   3
Atom  22H    basis set group =>   3
Atom  23O    basis set group =>   4
------------------------------------------------------------------------------
                             ORCA STARTUP CALCULATIONS
------------------------------------------------------------------------------
------------------------------------------------------------------------------
                   ___                                                        
                  /   \      - P O W E R E D   B Y -                         
                 /     \                                                     
                 |  |  |   _    _      __       _____    __    __             
                 |  |  |  | |  | |    /  \     |  _  \  |  |  /  |          
                  \  \/   | |  | |   /    \    | | | |  |  | /  /          
                 / \  \   | |__| |  /  /\  \   | |_| |  |  |/  /          
                |  |  |   |  __  | /  /__\  \  |    /   |      \           
                |  |  |   | |  | | |   __   |  |    \   |  |\   \          
                \     /   | |  | | |  |  |  |  | |\  \  |  | \   \       
                 \___/    |_|  |_| |__|  |__|  |_| \__\ |__|  \__/        
                                                                              
                      - O R C A' S   B I G   F R I E N D -                    
                                      &                                       
                       - I N T E G R A L  F E E D E R -                       
                                                                              
 v1 FN, 2020, v2 2021, v3 2022-2024                                           
------------------------------------------------------------------------------


----------------------
SHARK INTEGRAL PACKAGE
----------------------

Number of atoms                             ...     24
Number of basis functions                   ...    219
Number of shells                            ...    105
Maximum angular momentum                    ...      2
Integral batch strategy                     ... SHARK/LIBINT Hybrid
RI-J (if used) integral strategy            ... SPLIT-RIJ (Revised 2003 algorithm where possible)
Printlevel                                  ...      1
Contraction scheme used                     ... SEGMENTED contraction
Prescreening option                         ... SCHWARTZ
   Thresh                                   ... 2.500e-11
   Tcut                                     ... 2.500e-12
   Tpresel                                  ... 2.500e-12 
Coulomb Range Separation                    ... NOT USED
Exchange Range Separation                   ... NOT USED
Multipole approximations                    ... NOT USED
Finite Nucleus Model                        ... NOT USED
CABS basis                                  ... NOT available
Auxiliary Coulomb fitting basis             ... NOT available
Auxiliary J/K fitting basis                 ... NOT available
Auxiliary Correlation fitting basis         ... NOT available
Auxiliary 'external' fitting basis          ... NOT available

Checking pre-screening integrals            ... done (  0.0 sec) Dimension = 105
   => SHARK Basis and OBASIS are compatible. Storing Pre-screening
Shell pair information
Shell pair cut-off parameter TPreSel        ...   2.5e-12
Total number of shell pairs                 ...      5565
Shell pairs after pre-screening             ...      5000
Total number of primitive shell pairs       ...     26835
Primitive shell pairs kept                  ...     15742
          la=0 lb=0:   1591 shell pairs
          la=1 lb=0:   1847 shell pairs
          la=1 lb=1:    566 shell pairs
          la=2 lb=0:    585 shell pairs
          la=2 lb=1:    350 shell pairs
          la=2 lb=2:     61 shell pairs

Checking whether 4 symmetric matrices of dimension 219 fit in memory
:Max Core in MB      =   4096.00
 MB in use           =      7.92
 MB left             =   4088.08
 MB needed           =      0.74
 Data fit in memory  = YES
Calculating Nuclear repulsion               ... done (  0.0 sec) ENN=    698.344196311287 Eh

Diagonalization of the overlap matrix:
Smallest eigenvalue                        ... 2.269e-03
Time for diagonalization                   ...    0.003 sec
Threshold for overlap eigenvalues          ... 1.000e-07
Number of eigenvalues below threshold      ... 0
Time for construction of square roots      ...    0.001 sec
Total time needed                          ...    0.004 sec

-------------------
DFT GRID GENERATION
-------------------

General Integration Accuracy     IntAcc      ... 4.388
Radial Grid Type                 RadialGrid  ... OptM3 with GC (2021)
Angular Grid (max. ang.)         AngularGrid ... 4 (Lebedev-302)
Angular grid pruning method      GridPruning ... 4 (adaptive)
Weight generation scheme         WeightScheme... mBecke (2022)
Basis function cutoff            BFCut       ... 1.0000e-11
Integration weight cutoff        WCut        ... 1.0000e-14
Partially contracted basis set               ... off
Rotationally invariant grid construction     ... off
Angular grids for H and He will be reduced by one unit

Total number of grid points                  ...   107302
Total number of batches                      ...     1690
Average number of points per batch           ...       63
Average number of grid points per atom       ...     4471
Grids setup in   0.5 sec
Initializing property integral containers    ... done (  0.0 sec)

SHARK setup successfully completed in   0.5 seconds

Maximum memory used throughout the entire STARTUP-calculation: 44.1 MB
-------------------------------------------------------------------------------
                                 ORCA GUESS
                   Start orbitals & Density for SCF / CASSCF
-------------------------------------------------------------------------------

------------
SCF SETTINGS
------------
Hamiltonian:
 Ab initio Hamiltonian  Method          .... Hartree-Fock(GTOs)


General Settings:
 Integral files         IntName         .... 3
 Hartree-Fock type      HFTyp           .... RHF
 Total Charge           Charge          ....    0
 Multiplicity           Mult            ....    1
 Number of Electrons    NEL             ....   86
 Basis Dimension        Dim             ....  219
 Nuclear Repulsion      ENuc            ....    698.3441963113 Eh

Convergence Acceleration:
 AO-DIIS                CNVDIIS         .... on
   Start iteration      DIISMaxIt       ....    12
   Startup error        DIISStart       ....  0.200000
   # of expansion vecs  DIISMaxEq       ....     5
   Bias factor          DIISBfac        ....   1.050
   Max. coefficient     DIISMaxC        ....  10.000
 MO-DIIS                CNVKDIIS        .... off
 Trust-Rad. Augm. Hess. CNVTRAH         .... auto
   Auto Start mean grad. ratio tolernc. ....  1.125000
   Auto Start start iteration           ....    50
   Auto Start num. interpolation iter.  ....    10
   Max. Number of Micro iterations      ....    24
   Max. Number of Macro iterations      .... Maxiter - #DIIS iter
   Number of Davidson start vectors     ....     2
   Converg. threshold    (grad. norm)   ....   1.000e-05
   Grad. Scal. Fac. for Micro threshold ....   0.100
   Minimum threshold for Micro iter.    ....   1.000e-02
   NR start threshold (gradient norm)   ....   1.000e-04
   Initial trust radius                 ....   0.400
   Minimum AH scaling param. (alpha)    ....   1.000
   Maximum AH scaling param. (alpha)    .... 1000.000
   Quad. conv. algorithm                .... NR
   White noise on init. David. guess    .... on
   Maximum white noise                  ....   0.010
   Pseudo random numbers                .... off
   Inactive MOs                         .... canonical
   Orbital update algorithm             .... Taylor
   Preconditioner                       .... Diag
   Full preconditioner red. dimension   ....   250
 SOSCF                 CNVSOSCF           .... on
   Start iteration     SOSCFMaxIt         ....   150
   Startup grad/error  SOSCFStart         ....  0.003300
   Hessian update      SOSCFHessUp        .... L-BFGS
   Autom. constraints  SOSCFAutoConstrain .... off
 Level Shifting         CNVShift        .... on
   Level shift para.    LevelShift      ....    0.2500
   Turn off err/grad.   ShiftErr        ....    0.0010
 Zerner damping         CNVZerner       .... off
 Static damping         CNVDamp         .... on
   Fraction old density DampFac         ....    0.7000
   Max. Damping (<1)    DampMax         ....    0.9800
   Min. Damping (>=0)   DampMin         ....    0.0000
   Turn off err/grad.   DampErr         ....    0.1000

SCF Procedure:
 Maximum # iterations   MaxIter         ....   125
 SCF integral mode      SCFMode         .... Direct
   Integral package                     .... SHARK and LIBINT hybrid scheme
 Reset frequency        DirectResetFreq ....    20
 Integral Threshold     Thresh          ....  2.500e-11 Eh
 Primitive CutOff       TCut            ....  2.500e-12 Eh

Convergence Tolerance:
 Convergence Check Mode ConvCheckMode   .... Total+1el-Energy
 Convergence forced     ConvForced      .... 1
 Energy Change          TolE            ....  1.000e-08 Eh
 1-El. energy change                    ....  1.000e-05 Eh
 Orbital Gradient       TolG            ....  1.000e-05
 Orbital Rotation angle TolX            ....  1.000e-05
 DIIS Error             TolErr          ....  5.000e-07

------------------------------
INITIAL GUESS: MODEL POTENTIAL
------------------------------
Loading Hartree-Fock densities                     ... done
Calculating cut-offs                               ... done
Initializing the effective Hamiltonian             ... done
Setting up the integral package (SHARK)            ... done
Starting the Coulomb interaction                   ... done (   0.1 sec)
Making the grid                                    ... done (   0.1 sec)
Mapping shells                                     ... done
Starting the XC term evaluation                    ... done (   0.1 sec)
Transforming the Hamiltonian                       ... done (   0.0 sec)
Diagonalizing the Hamiltonian                      ... done (   0.0 sec)
Back transforming the eigenvectors                 ... done (   0.0 sec)
Now organizing SCF variables                       ... done
                      ------------------
                      INITIAL GUESS DONE (   0.3 sec)
                      ------------------
             **** ENERGY FILE WAS UPDATED (3.en.tmp) ****
Finished Guess after   0.3 sec
Maximum memory used throughout the entire GUESS-calculation: 14.3 MB

-------------------------------------------------------------------------------------------
                                      ORCA LEAN-SCF
                              memory conserving SCF solver
-------------------------------------------------------------------------------------------

----------------------------------------D-I-I-S--------------------------------------------
Iteration    Energy (Eh)           Delta-E    RMSDP     MaxDP     DIISErr   Damp  Time(sec)
-------------------------------------------------------------------------------------------
               ***  Starting incremental Fock matrix formation  ***
    1    -547.3825699511866105     0.00e+00  2.38e-03  6.38e-02  2.46e-01  0.700   3.4
    2    -547.5515411089057807    -1.69e-01  1.78e-03  4.57e-02  1.49e-01  0.700   3.2
                               ***Turning on AO-DIIS***
    3    -547.6509478474132493    -9.94e-02  9.80e-04  2.02e-02  8.45e-02  0.700   3.2
    4    -547.7138635462976026    -6.29e-02  2.28e-03  4.23e-02  5.71e-02  0.000   3.1
    5    -547.8545610015213470    -1.41e-01  2.61e-04  4.78e-03  5.58e-03  0.000   3.2
                              *** Initializing SOSCF ***
---------------------------------------S-O-S-C-F--------------------------------------
Iteration    Energy (Eh)           Delta-E    RMSDP     MaxDP     MaxGrad    Time(sec)
--------------------------------------------------------------------------------------
    6    -547.8551326591747284    -5.72e-04  1.31e-04  2.89e-03  2.51e-03     3.0
               *** Restarting incremental Fock matrix formation ***
    7    -547.8552489010609179    -1.16e-04  7.15e-05  1.87e-03  7.43e-04     3.4
    8    -547.8552762100711107    -2.73e-05  6.24e-05  1.90e-03  4.27e-04     2.8
    9    -547.8552843248988893    -8.11e-06  1.08e-05  1.91e-04  1.25e-04     2.7
   10    -547.8552849000296874    -5.75e-07  5.05e-06  1.19e-04  3.38e-05     2.5
   11    -547.8552849858100444    -8.58e-08  1.71e-06  6.27e-05  1.15e-05     2.3
   12    -547.8552849979670327    -1.22e-08  4.45e-07  8.02e-06  2.92e-06     2.1
   13    -547.8552850011227520    -3.16e-09  1.59e-07  2.66e-06  6.99e-07     1.9
                 **** Energy Check signals convergence ****

               *****************************************************
               *                     SUCCESS                       *
               *           SCF CONVERGED AFTER  13 CYCLES          *
               *****************************************************

             **** ENERGY FILE WAS UPDATED (3.en.tmp) ****

----------------
TOTAL SCF ENERGY
----------------

Total Energy       :       -547.85528500313660 Eh          -14907.90021 eV

Components:
Nuclear Repulsion  :        698.34419631128674 Eh           19002.91167 eV
Electronic Energy  :      -1246.19948131442334 Eh          -33910.81188 eV
One Electron Energy:      -2135.22123201361046 Eh          -58102.32359 eV
Two Electron Energy:        889.02175069918712 Eh           24191.51171 eV

Virial components:
Potential Energy   :      -1095.24767314195583 Eh          -29803.20435 eV
Kinetic Energy     :        547.39238813881923 Eh           14895.30414 eV
Virial Ratio       :          2.00084563993645

---------------
SCF CONVERGENCE
---------------

  Last Energy change         ...    3.1557e-09  Tolerance :   1.0000e-08
  Last MAX-Density change    ...    2.6567e-06  Tolerance :   1.0000e-07
  Last RMS-Density change    ...    1.5852e-07  Tolerance :   5.0000e-09
  Last DIIS Error            ...    2.5086e-03  Tolerance :   5.0000e-07
  Last Orbital Gradient      ...    6.9893e-07  Tolerance :   1.0000e-05
  Last Orbital Rotation      ...    1.2929e-06  Tolerance :   1.0000e-05


----------------
ORBITAL ENERGIES
----------------

  NO   OCC          E(Eh)            E(eV) 
   0   2.0000     -20.592194      -560.3421 
   1   2.0000     -20.518526      -558.3375 
   2   2.0000     -15.554643      -423.2634 
   3   2.0000     -15.546255      -423.0351 
   4   2.0000     -15.544084      -422.9760 
   5   2.0000     -11.368549      -309.3540 
   6   2.0000     -11.272885      -306.7508 
   7   2.0000     -11.260009      -306.4004 
   8   2.0000     -11.259931      -306.3983 
   9   2.0000     -11.250229      -306.1343 
  10   2.0000     -11.220402      -305.3227 
  11   2.0000      -1.439877       -39.1811 
  12   2.0000      -1.333290       -36.2807 
  13   2.0000      -1.279493       -34.8168 
  14   2.0000      -1.190760       -32.4022 
  15   2.0000      -1.150316       -31.3017 
  16   2.0000      -1.046351       -28.4727 
  17   2.0000      -0.968428       -26.3523 
  18   2.0000      -0.898975       -24.4624 
  19   2.0000      -0.845472       -23.0065 
  20   2.0000      -0.802319       -21.8322 
  21   2.0000      -0.768335       -20.9074 
  22   2.0000      -0.726349       -19.7650 
  23   2.0000      -0.691330       -18.8121 
  24   2.0000      -0.673295       -18.3213 
  25   2.0000      -0.664857       -18.0917 
  26   2.0000      -0.647403       -17.6167 
  27   2.0000      -0.642629       -17.4868 
  28   2.0000      -0.597084       -16.2475 
  29   2.0000      -0.589709       -16.0468 
  30   2.0000      -0.577921       -15.7260 
  31   2.0000      -0.567604       -15.4453 
  32   2.0000      -0.549444       -14.9511 
  33   2.0000      -0.528214       -14.3734 
  34   2.0000      -0.515071       -14.0158 
  35   2.0000      -0.500979       -13.6323 
  36   2.0000      -0.485625       -13.2145 
  37   2.0000      -0.472426       -12.8554 
  38   2.0000      -0.458281       -12.4705 
  39   2.0000      -0.438085       -11.9209 
  40   2.0000      -0.400008       -10.8848 
  41   2.0000      -0.382266       -10.4020 
  42   2.0000      -0.368963       -10.0400 
  43   0.0000       0.193801         5.2736 
  44   0.0000       0.213871         5.8197 
  45   0.0000       0.242256         6.5921 
  46   0.0000       0.249481         6.7887 
  47   0.0000       0.254915         6.9366 
  48   0.0000       0.267481         7.2785 
  49   0.0000       0.283606         7.7173 
  50   0.0000       0.302357         8.2276 
  51   0.0000       0.305676         8.3179 
  52   0.0000       0.312069         8.4918 
  53   0.0000       0.331087         9.0093 
*Only the first 10 virtual orbitals were printed.

                    ********************************
                    * MULLIKEN POPULATION ANALYSIS *
                    ********************************

-----------------------
MULLIKEN ATOMIC CHARGES
-----------------------
   0 C :    0.144084
   1 N :   -0.712067
   2 H :    0.257984
   3 C :    0.018968
   4 N :   -0.620554
   5 H :    0.164715
   6 H :    0.123578
   7 C :   -0.045291
   8 H :    0.282462
   9 H :    0.135079
  10 H :    0.122148
  11 C :   -0.207718
  12 H :    0.128189
  13 C :   -0.001024
  14 H :    0.134829
  15 H :    0.139465
  16 C :    0.890640
  17 H :    0.281027
  18 N :   -0.694193
  19 H :    0.271581
  20 O :   -0.665908
  21 H :    0.143554
  22 H :    0.357196
  23 O :   -0.648745
Sum of atomic charges:    0.0000000

--------------------------------
MULLIKEN REDUCED ORBITAL CHARGES
--------------------------------
  0 C s       :     3.139932  s :     3.139932
      pz      :     0.973212  p :     2.636056
      px      :     0.688456
      py      :     0.974388
      dz2     :     0.020176  d :     0.079928
      dxz     :     0.015452
      dyz     :     0.009802
      dx2y2   :     0.021321
      dxy     :     0.013177

  1 N s       :     3.639666  s :     3.639666
      pz      :     1.509291  p :     4.033471
      px      :     1.372532
      py      :     1.151647
      dz2     :     0.007073  d :     0.038930
      dxz     :     0.003264
      dyz     :     0.010316
      dx2y2   :     0.013552
      dxy     :     0.004726

  2 H s       :     0.716078  s :     0.716078
      pz      :     0.013209  p :     0.025937
      px      :     0.007084
      py      :     0.005644

  3 C s       :     3.184636  s :     3.184636
      pz      :     0.999035  p :     2.728887
      px      :     0.976168
      py      :     0.753684
      dz2     :     0.011775  d :     0.067508
      dxz     :     0.013240
      dyz     :     0.012747
      dx2y2   :     0.019023
      dxy     :     0.010724

  4 N s       :     3.628577  s :     3.628577
      pz      :     1.227697  p :     3.950505
      px      :     1.610476
      py      :     1.112332
      dz2     :     0.009852  d :     0.041471
      dxz     :     0.004379
      dyz     :     0.009985
      dx2y2   :     0.003796
      dxy     :     0.013459

  5 H s       :     0.823286  s :     0.823286
      pz      :     0.009068  p :     0.011999
      px      :     0.001031
      py      :     0.001899

  6 H s       :     0.864190  s :     0.864190
      pz      :     0.001613  p :     0.012232
      px      :     0.001819
      py      :     0.008800

  7 C s       :     3.190161  s :     3.190161
      pz      :     1.085287  p :     2.793183
      px      :     0.844604
      py      :     0.863292
      dz2     :     0.011337  d :     0.061946
      dxz     :     0.004840
      dyz     :     0.015087
      dx2y2   :     0.015862
      dxy     :     0.014821

  8 H s       :     0.692041  s :     0.692041
      pz      :     0.011249  p :     0.025497
      px      :     0.005993
      py      :     0.008256

  9 H s       :     0.852893  s :     0.852893
      pz      :     0.005654  p :     0.012028
      px      :     0.002167
      py      :     0.004207

 10 H s       :     0.865367  s :     0.865367
      pz      :     0.007601  p :     0.012485
      px      :     0.001921
      py      :     0.002963

 11 C s       :     3.227685  s :     3.227685
      pz      :     0.977714  p :     2.932751
      px      :     0.952730
      py      :     1.002307
      dz2     :     0.007290  d :     0.047282
      dxz     :     0.013929
      dyz     :     0.007969
      dx2y2   :     0.008566
      dxy     :     0.009528

 12 H s       :     0.859746  s :     0.859746
      pz      :     0.006851  p :     0.012065
      px      :     0.003903
      py      :     0.001311

 13 C s       :     3.196955  s :     3.196955
      pz      :     0.913591  p :     2.733585
      px      :     0.956231
      py      :     0.863763
      dz2     :     0.012687  d :     0.070484
      dxz     :     0.018555
      dyz     :     0.012277
      dx2y2   :     0.011745
      dxy     :     0.015220

 14 H s       :     0.852539  s :     0.852539
      pz      :     0.006275  p :     0.012632
      px      :     0.004675
      py      :     0.001682

 15 H s       :     0.847975  s :     0.847975
      pz      :     0.002163  p :     0.012560
      px      :     0.002417
      py      :     0.007980

 16 C s       :     2.944291  s :     2.944291
      pz      :     0.644726  p :     2.019109
      px      :     0.613673
      py      :     0.760710
      dz2     :     0.030322  d :     0.145960
      dxz     :     0.021659
      dyz     :     0.034053
      dx2y2   :     0.023409
      dxy     :     0.036517

 17 H s       :     0.692973  s :     0.692973
      pz      :     0.010964  p :     0.025999
      px      :     0.008269
      py      :     0.006767

 18 N s       :     3.614029  s :     3.614029
      pz      :     1.187764  p :     4.045313
      px      :     1.211927
      py      :     1.645622
      dz2     :     0.004555  d :     0.034851
      dxz     :     0.012779
      dyz     :     0.006444
      dx2y2   :     0.002191
      dxy     :     0.008883

 19 H s       :     0.702347  s :     0.702347
      pz      :     0.004894  p :     0.026072
      px      :     0.012588
      py      :     0.008591

 20 O s       :     3.849202  s :     3.849202
      pz      :     1.774616  p :     4.791499
      px      :     1.734988
      py      :     1.281895
      dz2     :     0.002895  d :     0.025208
      dxz     :     0.004006
      dyz     :     0.007250
      dx2y2   :     0.003064
      dxy     :     0.007993

 21 H s       :     0.844500  s :     0.844500
      pz      :     0.005684  p :     0.011946
      px      :     0.004612
      py      :     0.001650

 22 H s       :     0.601411  s :     0.601411
      pz      :     0.011433  p :     0.041394
      px      :     0.009179
      py      :     0.020782

 23 O s       :     3.882895  s :     3.882895
      pz      :     1.433117  p :     4.734634
      px      :     1.476056
      py      :     1.825462
      dz2     :     0.010671  d :     0.031216
      dxz     :     0.008796
      dyz     :     0.004076
      dx2y2   :     0.004724
      dxy     :     0.002949



                     *******************************
                     * LOEWDIN POPULATION ANALYSIS *
                     *******************************

----------------------
LOEWDIN ATOMIC CHARGES
----------------------
   0 C :    0.028819
   1 N :   -0.216246
   2 H :    0.121390
   3 C :   -0.009572
   4 N :   -0.249665
   5 H :    0.074130
   6 H :    0.064240
   7 C :   -0.043073
   8 H :    0.128063
   9 H :    0.064593
  10 H :    0.063421
  11 C :   -0.110100
  12 H :    0.060063
  13 C :   -0.015009
  14 H :    0.070457
  15 H :    0.073385
  16 C :    0.244527
  17 H :    0.133959
  18 N :   -0.277886
  19 H :    0.129141
  20 O :   -0.229930
  21 H :    0.070841
  22 H :    0.190661
  23 O :   -0.366210

-------------------------------
LOEWDIN REDUCED ORBITAL CHARGES
-------------------------------
  0 C s       :     2.870669  s :     2.870669
      pz      :     1.034253  p :     2.940384
      px      :     0.876593
      py      :     1.029539
      dz2     :     0.039833  d :     0.160127
      dxz     :     0.032981
      dyz     :     0.017268
      dx2y2   :     0.043004
      dxy     :     0.027040

  1 N s       :     3.177022  s :     3.177022
      pz      :     1.444138  p :     3.961943
      px      :     1.348960
      py      :     1.168845
      dz2     :     0.011008  d :     0.077281
      dxz     :     0.008130
      dyz     :     0.018876
      dx2y2   :     0.027070
      dxy     :     0.012197

  2 H s       :     0.797008  s :     0.797008
      pz      :     0.040157  p :     0.081602
      px      :     0.023737
      py      :     0.017707

  3 C s       :     2.876835  s :     2.876835
      pz      :     1.046592  p :     2.995897
      px      :     1.037113
      py      :     0.912193
      dz2     :     0.021991  d :     0.136840
      dxz     :     0.024237
      dyz     :     0.028059
      dx2y2   :     0.039076
      dxy     :     0.023477

  4 N s       :     3.187999  s :     3.187999
      pz      :     1.239097  p :     3.980871
      px      :     1.584746
      py      :     1.157029
      dz2     :     0.018244  d :     0.080796
      dxz     :     0.008452
      dyz     :     0.020500
      dx2y2   :     0.009142
      dxy     :     0.024457

  5 H s       :     0.886304  s :     0.886304
      pz      :     0.028034  p :     0.039566
      px      :     0.004287
      py      :     0.007245

  6 H s       :     0.897503  s :     0.897503
      pz      :     0.006223  p :     0.038256
      px      :     0.005958
      py      :     0.026076

  7 C s       :     2.890913  s :     2.890913
      pz      :     1.084720  p :     3.031588
      px      :     0.976258
      py      :     0.970609
      dz2     :     0.019848  d :     0.120572
      dxz     :     0.009343
      dyz     :     0.027336
      dx2y2   :     0.034281
      dxy     :     0.029764

  8 H s       :     0.786948  s :     0.786948
      pz      :     0.038258  p :     0.084989
      px      :     0.021388
      py      :     0.025342

  9 H s       :     0.896257  s :     0.896257
      pz      :     0.017361  p :     0.039150
      px      :     0.007539
      py      :     0.014251

 10 H s       :     0.897165  s :     0.897165
      pz      :     0.022547  p :     0.039414
      px      :     0.006618
      py      :     0.010248

 11 C s       :     2.894617  s :     2.894617
      pz      :     1.044731  p :     3.124808
      px      :     1.029492
      py      :     1.050585
      dz2     :     0.014345  d :     0.090675
      dxz     :     0.026351
      dyz     :     0.015439
      dx2y2   :     0.015832
      dxy     :     0.018707

 12 H s       :     0.900483  s :     0.900483
      pz      :     0.020738  p :     0.039454
      px      :     0.012969
      py      :     0.005747

 13 C s       :     2.871083  s :     2.871083
      pz      :     0.987504  p :     3.003280
      px      :     1.022553
      py      :     0.993224
      dz2     :     0.025524  d :     0.140646
      dxz     :     0.034845
      dyz     :     0.024831
      dx2y2   :     0.024013
      dxy     :     0.031433

 14 H s       :     0.888576  s :     0.888576
      pz      :     0.019072  p :     0.040967
      px      :     0.014889
      py      :     0.007006

 15 H s       :     0.886081  s :     0.886081
      pz      :     0.008005  p :     0.040534
      px      :     0.008465
      py      :     0.024064

 16 C s       :     2.856126  s :     2.856126
      pz      :     0.835012  p :     2.581888
      px      :     0.807227
      py      :     0.939650
      dz2     :     0.061138  d :     0.317458
      dxz     :     0.051304
      dyz     :     0.074666
      dx2y2   :     0.048361
      dxy     :     0.081990

 17 H s       :     0.784142  s :     0.784142
      pz      :     0.033969  p :     0.081899
      px      :     0.025412
      py      :     0.022518

 18 N s       :     3.191699  s :     3.191699
      pz      :     1.203756  p :     4.024782
      px      :     1.209749
      py      :     1.611276
      dz2     :     0.009641  d :     0.061405
      dxz     :     0.022565
      dyz     :     0.011017
      dx2y2   :     0.004590
      dxy     :     0.013592

 19 H s       :     0.789451  s :     0.789451
      pz      :     0.015434  p :     0.081408
      px      :     0.036509
      py      :     0.029465

 20 O s       :     3.465231  s :     3.465231
      pz      :     1.737942  p :     4.717439
      px      :     1.705323
      py      :     1.274174
      dz2     :     0.005053  d :     0.047260
      dxz     :     0.005426
      dyz     :     0.012493
      dx2y2   :     0.009796
      dxy     :     0.014492

 21 H s       :     0.889837  s :     0.889837
      pz      :     0.018020  p :     0.039322
      px      :     0.015293
      py      :     0.006009

 22 H s       :     0.688644  s :     0.688644
      pz      :     0.034920  p :     0.120695
      px      :     0.028957
      py      :     0.056818

 23 O s       :     3.546823  s :     3.546823
      pz      :     1.477524  p :     4.763999
      px      :     1.502348
      py      :     1.784127
      dz2     :     0.013615  d :     0.055388
      dxz     :     0.020697
      dyz     :     0.008043
      dx2y2   :     0.007181
      dxy     :     0.005852



                      *****************************
                      * MAYER POPULATION ANALYSIS *
                      *****************************

  NA   - Mulliken gross atomic population
  ZA   - Total nuclear charge
  QA   - Mulliken gross atomic charge
  VA   - Mayer's total valence
  BVA  - Mayer's bonded valence
  FA   - Mayer's free valence

  ATOM       NA         ZA         QA         VA         BVA        FA
  0 C      5.8559     6.0000     0.1441     3.7160     3.7160     0.0000
  1 N      7.7121     7.0000    -0.7121     2.6702     2.6702     0.0000
  2 H      0.7420     1.0000     0.2580     0.9080     0.9080     0.0000
  3 C      5.9810     6.0000     0.0190     3.6920     3.6920     0.0000
  4 N      7.6206     7.0000    -0.6206     2.7347     2.7347     0.0000
  5 H      0.8353     1.0000     0.1647     0.9455     0.9455    -0.0000
  6 H      0.8764     1.0000     0.1236     0.9561     0.9561    -0.0000
  7 C      6.0453     6.0000    -0.0453     3.7739     3.7739    -0.0000
  8 H      0.7175     1.0000     0.2825     0.9009     0.9009     0.0000
  9 H      0.8649     1.0000     0.1351     0.9449     0.9449     0.0000
 10 H      0.8779     1.0000     0.1221     0.9535     0.9535    -0.0000
 11 C      6.2077     6.0000    -0.2077     3.7643     3.7643    -0.0000
 12 H      0.8718     1.0000     0.1282     0.9503     0.9503     0.0000
 13 C      6.0010     6.0000    -0.0010     3.7606     3.7606    -0.0000
 14 H      0.8652     1.0000     0.1348     0.9573     0.9573     0.0000
 15 H      0.8605     1.0000     0.1395     0.9524     0.9524    -0.0000
 16 C      5.1094     6.0000     0.8906     3.5642     3.5642    -0.0000
 17 H      0.7190     1.0000     0.2810     0.9071     0.9071    -0.0000
 18 N      7.6942     7.0000    -0.6942     2.7692     2.7692    -0.0000
 19 H      0.7284     1.0000     0.2716     0.9048     0.9048     0.0000
 20 O      8.6659     8.0000    -0.6659     1.7879     1.7879     0.0000
 21 H      0.8564     1.0000     0.1436     0.9450     0.9450     0.0000
 22 H      0.6428     1.0000     0.3572     0.8847     0.8847     0.0000
 23 O      8.6487     8.0000    -0.6487     1.8202     1.8202     0.0000

  Mayer bond orders larger than 0.100000
B(  0-C ,  1-N ) :   0.8827 B(  0-C ,  4-N ) :   0.9416 B(  0-C ,  5-H ) :   0.9573 
B(  0-C ,  6-H ) :   0.9812 B(  1-N ,  3-C ) :   0.9158 B(  1-N ,  8-H ) :   0.9015 
B(  2-H ,  4-N ) :   0.9102 B(  3-C ,  7-C ) :   0.9441 B(  3-C , 11-C ) :   0.9556 
B(  3-C , 12-H ) :   0.9756 B(  4-N ,  7-C ) :   0.9446 B(  7-C ,  9-H ) :   0.9703 
B(  7-C , 10-H ) :   0.9784 B( 11-C , 13-C ) :   0.9721 B( 11-C , 14-H ) :   0.9628 
B( 11-C , 15-H ) :   0.9703 B( 13-C , 16-C ) :   0.9008 B( 13-C , 18-N ) :   0.9833 
B( 13-C , 21-H ) :   0.9624 B( 16-C , 20-O ) :   0.9227 B( 16-C , 23-O ) :   1.7382 
B( 17-H , 18-N ) :   0.8975 B( 18-N , 19-H ) :   0.9092 B( 20-O , 22-H ) :   0.8515 


-------
TIMINGS
-------

Total SCF time: 0 days 0 hours 0 min 38 sec 

Total time                  ....      38.465 sec
Sum of individual times     ....      36.822 sec  ( 95.7%)

SCF preparation             ....       0.018 sec  (  0.0%)
Fock matrix formation       ....      36.724 sec  ( 95.5%)
  Startup                   ....       0.001 sec  (  0.0% of F)
  Coulomb+Exchange Fock     ....      38.350 sec  (104.4% of F)
Diagonalization             ....       0.000 sec  (  0.0%)
Density matrix formation    ....       0.007 sec  (  0.0%)
Total Energy calculation    ....       0.001 sec  (  0.0%)
Population analysis         ....       0.003 sec  (  0.0%)
Orbital Transformation      ....       0.008 sec  (  0.0%)
Orbital Orthonormalization  ....       0.000 sec  (  0.0%)
DIIS solution               ....       0.036 sec  (  0.1%)
SOSCF solution              ....       0.023 sec  (  0.1%)
Finished LeanSCF after  38.5 sec

Maximum memory used throughout the entire LEANSCF-calculation: 17.9 MB

------------------------------------------------------------------------------
                                ORCA  MP2 
------------------------------------------------------------------------------

Freezing NCore=22 chemical core electrons
MP2 will be done in the AO integral direct mode
The Q1-step will be done using symmetric double matrices
Dimension of the basis                    ...  219
Memory devoted for MP2                    ... 4096 MB   
Memory needed for all in one shot         ... 1289 MB
Number of MOs that can be treated together...  100      
MP2 density construction                  ... relaxed
The MP2 gradient is requested => amplitudes will be stored on disk
Total number of MOs              ...   32
Number of MOs treated per batch  ...   32 
Number of batches necessary      ...    1 
OPERATORS   0/  0 PASS   0
-----------------------------------------------
 MP2 CORRELATION ENERGY   :     -1.686600382 Eh
-----------------------------------------------


---------------------
MP2 DENSITY FORMATION
---------------------

Completing the external part of the density      ... done
Storing the unrelaxed density                    ... done

Calculating G(D)                                 ... done
Completing the Lagrangian                        ... done
Solving the Z-vector equations                   ... 
-------------------
SHARK CP-SCF DRIVER
-------------------

Dimension of the orbital basis          ...    219
Dimension of the CPSCF-problem          ...   7568
Number of operators                     ...      1
Max. number of iterations               ...    128
Convergence Tolerance                   ... 1.0e-04
Number of perturbations                 ...      1
Perturbation type                       ... REAL

----------------------------
POPLE LINEAR EQUATION SOLVER
----------------------------

  ITERATION   0:   ||err||_max =   1.4363e-01 (   4.3 sec)
  ITERATION   1:   ||err||_max =   3.8935e-02 (   4.4 sec)
  ITERATION   2:   ||err||_max =   1.5367e-02 (   4.5 sec)
  ITERATION   3:   ||err||_max =   4.4279e-03 (   4.4 sec)
  ITERATION   4:   ||err||_max =   1.6628e-03 (   4.5 sec)
  ITERATION   5:   ||err||_max =   5.5680e-04 (   4.5 sec)
  ITERATION   6:   ||err||_max =   2.1518e-04 (   4.5 sec)
  ITERATION   7:   ||err||_max =   7.2019e-05 (   4.4 sec)
                                                 ... done
Finalizing the relaxed density                   ... done
Transforming P to the AO basis                   ... done
Storing the relaxed density                      ... done

------------------------------------
ENERGY WEIGHTED DENSITY FINALIZATION
------------------------------------

Gathering the parts of the W-matrix              ...                                                      done
Forming the Z-density                            ... done
Transforming Z to the AO basis                   ... done
Calculating G(Z)                                 ... done
Finalizing the W-matrix                          ...                                                      done
Transforming W to the AO basis and storing       ... done

                *********************************************
                * UNRELAXED MP2 DENSITY POPULATION ANALYSIS *
                *********************************************

------------------------------------------------------------------------------
                           ORCA POPULATION ANALYSIS
------------------------------------------------------------------------------
Input electron density              ... 3.pmp2ur
BaseName (.gbw .S,...)              ... 3

                    ********************************
                    * MULLIKEN POPULATION ANALYSIS *
                    ********************************

-----------------------
MULLIKEN ATOMIC CHARGES
-----------------------
   0 C :    0.132923
   1 N :   -0.697938
   2 H :    0.256703
   3 C :    0.012906
   4 N :   -0.609887
   5 H :    0.164971
   6 H :    0.124635
   7 C :   -0.051583
   8 H :    0.280951
   9 H :    0.136016
  10 H :    0.123206
  11 C :   -0.209594
  12 H :    0.129134
  13 C :   -0.007078
  14 H :    0.135295
  15 H :    0.140311
  16 C :    0.854507
  17 H :    0.279401
  18 N :   -0.686208
  19 H :    0.270416
  20 O :   -0.652323
  21 H :    0.144286
  22 H :    0.353834
  23 O :   -0.624885
Sum of atomic charges:    0.0000000

--------------------------------
MULLIKEN REDUCED ORBITAL CHARGES
--------------------------------
  0 C s       :     3.138494  s :     3.138494
      pz      :     0.971556  p :     2.634836
      px      :     0.691403
      py      :     0.971877
      dz2     :     0.022991  d :     0.093748
      dxz     :     0.018154
      dyz     :     0.012724
      dx2y2   :     0.023841
      dxy     :     0.016037
  1 N s       :     3.633777  s :     3.633777
      pz      :     1.496318  p :     4.000887
      px      :     1.360724
      py      :     1.143844
      dz2     :     0.011938  d :     0.063274
      dxz     :     0.008474
      dyz     :     0.015091
      dx2y2   :     0.017976
      dxy     :     0.009794
  2 H s       :     0.715217  s :     0.715217
      pz      :     0.013671  p :     0.028080
      px      :     0.007969
      py      :     0.006440
  3 C s       :     3.181544  s :     3.181544
      pz      :     0.995185  p :     2.722273
      px      :     0.971762
      py      :     0.755326
      dz2     :     0.014942  d :     0.083277
      dxz     :     0.016569
      dyz     :     0.015840
      dx2y2   :     0.021829
      dxy     :     0.014097
  4 N s       :     3.623136  s :     3.623136
      pz      :     1.220369  p :     3.922391
      px      :     1.596640
      py      :     1.105382
      dz2     :     0.014295  d :     0.064360
      dxz     :     0.009123
      dyz     :     0.014294
      dx2y2   :     0.008781
      dxy     :     0.017867
  5 H s       :     0.820305  s :     0.820305
      pz      :     0.009688  p :     0.014724
      px      :     0.002137
      py      :     0.002899
  6 H s       :     0.860420  s :     0.860420
      pz      :     0.002631  p :     0.014946
      px      :     0.002860
      py      :     0.009455
  7 C s       :     3.187682  s :     3.187682
      pz      :     1.080728  p :     2.786822
      px      :     0.843396
      py      :     0.862698
      dz2     :     0.014221  d :     0.077079
      dxz     :     0.008274
      dyz     :     0.018091
      dx2y2   :     0.018784
      dxy     :     0.017709
  8 H s       :     0.691486  s :     0.691486
      pz      :     0.011866  p :     0.027563
      px      :     0.006797
      py      :     0.008900
  9 H s       :     0.849145  s :     0.849145
      pz      :     0.006481  p :     0.014838
      px      :     0.003229
      py      :     0.005128
 10 H s       :     0.861558  s :     0.861558
      pz      :     0.008319  p :     0.015235
      px      :     0.002979
      py      :     0.003938
 11 C s       :     3.224441  s :     3.224441
      pz      :     0.973720  p :     2.921347
      px      :     0.949157
      py      :     0.998470
      dz2     :     0.010725  d :     0.063806
      dxz     :     0.017042
      dyz     :     0.011247
      dx2y2   :     0.012089
      dxy     :     0.012704
 12 H s       :     0.855984  s :     0.855984
      pz      :     0.007647  p :     0.014881
      px      :     0.004851
      py      :     0.002383
 13 C s       :     3.193805  s :     3.193805
      pz      :     0.911968  p :     2.727250
      px      :     0.952688
      py      :     0.862593
      dz2     :     0.015825  d :     0.086023
      dxz     :     0.021439
      dyz     :     0.015383
      dx2y2   :     0.015051
      dxy     :     0.018325
 14 H s       :     0.849234  s :     0.849234
      pz      :     0.007112  p :     0.015471
      px      :     0.005602
      py      :     0.002757
 15 H s       :     0.844399  s :     0.844399
      pz      :     0.003170  p :     0.015290
      px      :     0.003422
      py      :     0.008698
 16 C s       :     2.946338  s :     2.946338
      pz      :     0.654783  p :     2.042685
      px      :     0.624317
      py      :     0.763586
      dz2     :     0.032145  d :     0.156470
      dxz     :     0.023479
      dyz     :     0.036478
      dx2y2   :     0.025642
      dxy     :     0.038725
 17 H s       :     0.692581  s :     0.692581
      pz      :     0.011484  p :     0.028018
      px      :     0.008889
      py      :     0.007645
 18 N s       :     3.609245  s :     3.609245
      pz      :     1.181149  p :     4.020228
      px      :     1.205693
      py      :     1.633386
      dz2     :     0.009012  d :     0.056735
      dxz     :     0.016780
      dyz     :     0.010884
      dx2y2   :     0.006801
      dxy     :     0.013258
 19 H s       :     0.701470  s :     0.701470
      pz      :     0.005717  p :     0.028114
      px      :     0.013021
      py      :     0.009376
 20 O s       :     3.844899  s :     3.844899
      pz      :     1.762295  p :     4.759107
      px      :     1.722678
      py      :     1.274134
      dz2     :     0.007510  d :     0.048317
      dxz     :     0.008563
      dyz     :     0.011891
      dx2y2   :     0.007854
      dxy     :     0.012499
 21 H s       :     0.840999  s :     0.840999
      pz      :     0.006507  p :     0.014715
      px      :     0.005495
      py      :     0.002713
 22 H s       :     0.603536  s :     0.603536
      pz      :     0.011991  p :     0.042630
      px      :     0.009798
      py      :     0.020841
 23 O s       :     3.878360  s :     3.878360
      pz      :     1.420747  p :     4.692992
      px      :     1.462143
      py      :     1.810102
      dz2     :     0.015055  d :     0.053533
      dxz     :     0.012837
      dyz     :     0.008797
      dx2y2   :     0.009221
      dxy     :     0.007623


                     *******************************
                     * LOEWDIN POPULATION ANALYSIS *
                     *******************************

----------------------
LOEWDIN ATOMIC CHARGES
----------------------
   0 C :    0.023578
   1 N :   -0.209122
   2 H :    0.120680
   3 C :   -0.013192
   4 N :   -0.244018
   5 H :    0.074232
   6 H :    0.064712
   7 C :   -0.045881
   8 H :    0.127287
   9 H :    0.064922
  10 H :    0.063816
  11 C :   -0.110377
  12 H :    0.060487
  13 C :   -0.018916
  14 H :    0.070538
  15 H :    0.073650
  16 C :    0.218811
  17 H :    0.133058
  18 N :   -0.273405
  19 H :    0.128462
  20 O :   -0.221557
  21 H :    0.071054
  22 H :    0.188132
  23 O :   -0.346950

-------------------------------
LOEWDIN REDUCED ORBITAL CHARGES
-------------------------------
  0 C s       :     2.870877  s :     2.870877
      pz      :     1.030054  p :     2.929838
      px      :     0.875156
      py      :     1.024629
      dz2     :     0.043048  d :     0.175707
      dxz     :     0.035849
      dyz     :     0.020657
      dx2y2   :     0.045951
      dxy     :     0.030202
  1 N s       :     3.175423  s :     3.175423
      pz      :     1.431333  p :     3.929351
      px      :     1.337426
      py      :     1.160593
      dz2     :     0.016398  d :     0.104349
      dxz     :     0.013741
      dyz     :     0.024268
      dx2y2   :     0.032547
      dxy     :     0.017394
  2 H s       :     0.793736  s :     0.793736
      pz      :     0.041970  p :     0.085584
      px      :     0.024645
      py      :     0.018969
  3 C s       :     2.877051  s :     2.877051
      pz      :     1.040690  p :     2.981061
      px      :     1.030814
      py      :     0.909557
      dz2     :     0.025729  d :     0.155080
      dxz     :     0.028193
      dyz     :     0.031538
      dx2y2   :     0.042563
      dxy     :     0.027057
  4 N s       :     3.186447  s :     3.186447
      pz      :     1.231096  p :     3.951558
      px      :     1.571107
      py      :     1.149355
      dz2     :     0.023154  d :     0.106012
      dxz     :     0.013538
      dyz     :     0.025314
      dx2y2   :     0.014298
      dxy     :     0.029708
  5 H s       :     0.881551  s :     0.881551
      pz      :     0.029939  p :     0.044217
      px      :     0.005652
      py      :     0.008626
  6 H s       :     0.892391  s :     0.892391
      pz      :     0.007509  p :     0.042897
      px      :     0.007328
      py      :     0.028061
  7 C s       :     2.890706  s :     2.890706
      pz      :     1.078880  p :     3.017309
      px      :     0.971671
      py      :     0.966758
      dz2     :     0.023373  d :     0.137865
      dxz     :     0.013034
      dyz     :     0.030850
      dx2y2   :     0.037398
      dxy     :     0.033211
  8 H s       :     0.783758  s :     0.783758
      pz      :     0.039845  p :     0.088955
      px      :     0.022428
      py      :     0.026682
  9 H s       :     0.891124  s :     0.891124
      pz      :     0.019061  p :     0.043955
      px      :     0.008930
      py      :     0.015963
 10 H s       :     0.892044  s :     0.892044
      pz      :     0.024455  p :     0.044139
      px      :     0.007952
      py      :     0.011732
 11 C s       :     2.894277  s :     2.894277
      pz      :     1.038515  p :     3.106258
      px      :     1.023370
      py      :     1.044373
      dz2     :     0.018183  d :     0.109843
      dxz     :     0.030227
      dyz     :     0.019196
      dx2y2   :     0.019770
      dxy     :     0.022467
 12 H s       :     0.895017  s :     0.895017
      pz      :     0.022688  p :     0.044496
      px      :     0.014625
      py      :     0.007183
 13 C s       :     2.871410  s :     2.871410
      pz      :     0.983282  p :     2.988859
      px      :     1.016810
      py      :     0.988767
      dz2     :     0.028888  d :     0.158647
      dxz     :     0.038483
      dyz     :     0.028498
      dx2y2   :     0.027634
      dxy     :     0.035144
 14 H s       :     0.883627  s :     0.883627
      pz      :     0.020892  p :     0.045835
      px      :     0.016574
      py      :     0.008368
 15 H s       :     0.881063  s :     0.881063
[...]
      dxz     :     0.011995
      dyz     :     0.019116
      dx2y2   :     0.032302
      dxy     :     0.015304
  2 H s       :     0.795799  s :     0.795799
      pz      :     0.042977  p :     0.084383
      px      :     0.024011
      py      :     0.017395
  3 C s       :     2.884938  s :     2.884938
      pz      :     1.050591  p :     2.999353
      px      :     1.031361
      py      :     0.917401
      dz2     :     0.025762  d :     0.145246
      dxz     :     0.027297
      dyz     :     0.025754
      dx2y2   :     0.038244
      dxy     :     0.028189
  4 N s       :     3.210132  s :     3.210132
      pz      :     1.235052  p :     3.914545
      px      :     1.534314
      py      :     1.145178
      dz2     :     0.024044  d :     0.101986
      dxz     :     0.012006
      dyz     :     0.021768
      dx2y2   :     0.014000
      dxy     :     0.030168
  5 H s       :     0.882878  s :     0.882878
      pz      :     0.029720  p :     0.043866
      px      :     0.006087
      py      :     0.008059
  6 H s       :     0.889364  s :     0.889364
      pz      :     0.008048  p :     0.042906
      px      :     0.008360
      py      :     0.026498
  7 C s       :     2.900970  s :     2.900970
      pz      :     1.087566  p :     3.041037
      px      :     0.976001
      py      :     0.977469
      dz2     :     0.020797  d :     0.127112
      dxz     :     0.012176
      dyz     :     0.029807
      dx2y2   :     0.032512
      dxy     :     0.031820
  8 H s       :     0.792286  s :     0.792286
      pz      :     0.043407  p :     0.085020
      px      :     0.019753
      py      :     0.021860
  9 H s       :     0.887728  s :     0.887728
      pz      :     0.018945  p :     0.044070
      px      :     0.008822
      py      :     0.016302
 10 H s       :     0.889176  s :     0.889176
      pz      :     0.023540  p :     0.044160
      px      :     0.008159
      py      :     0.012461
 11 C s       :     2.895498  s :     2.895498
      pz      :     1.044508  p :     3.125924
      px      :     1.028490
      py      :     1.052926
      dz2     :     0.019805  d :     0.103855
      dxz     :     0.029401
      dyz     :     0.014490
      dx2y2   :     0.021878
      dxy     :     0.018281
 12 H s       :     0.891401  s :     0.891401
      pz      :     0.020980  p :     0.044425
      px      :     0.015388
      py      :     0.008056
 13 C s       :     2.874260  s :     2.874260
      pz      :     1.001140  p :     3.012970
      px      :     1.018294
      py      :     0.993536
      dz2     :     0.023984  d :     0.149496
      dxz     :     0.033902
      dyz     :     0.030318
      dx2y2   :     0.028941
      dxy     :     0.032351
 14 H s       :     0.880821  s :     0.880821
      pz      :     0.020836  p :     0.045900
      px      :     0.016550
      py      :     0.008514
 15 H s       :     0.876608  s :     0.876608
      pz      :     0.008848  p :     0.045021
      px      :     0.009229
      py      :     0.026945
 16 C s       :     2.861080  s :     2.861080
      pz      :     0.886809  p :     2.680991
      px      :     0.868015
      py      :     0.926166
      dz2     :     0.050136  d :     0.305762
      dxz     :     0.050014
      dyz     :     0.065934
      dx2y2   :     0.055135
      dxy     :     0.084544
 17 H s       :     0.787174  s :     0.787174
      pz      :     0.038098  p :     0.083683
      px      :     0.022621
      py      :     0.022963
 18 N s       :     3.209080  s :     3.209080
      pz      :     1.233932  p :     3.968288
      px      :     1.177038
      py      :     1.557319
      dz2     :     0.015912  d :     0.082674
      dxz     :     0.022852
      dyz     :     0.013884
      dx2y2   :     0.010536
      dxy     :     0.019490
 19 H s       :     0.788103  s :     0.788103
      pz      :     0.016732  p :     0.083540
      px      :     0.038234
      py      :     0.028574
 20 O s       :     3.482167  s :     3.482167
      pz      :     1.671984  p :     4.623220
      px      :     1.649425
      py      :     1.301811
      dz2     :     0.009626  d :     0.072331
      dxz     :     0.010423
      dyz     :     0.017922
      dx2y2   :     0.014248
      dxy     :     0.020112
 21 H s       :     0.879919  s :     0.879919
      pz      :     0.021500  p :     0.044397
      px      :     0.014854
      py      :     0.008044
 22 H s       :     0.695595  s :     0.695595
      pz      :     0.040469  p :     0.120271
      px      :     0.028588
      py      :     0.051214
 23 O s       :     3.560219  s :     3.560219
      pz      :     1.435424  p :     4.612473
      px      :     1.453768
      py      :     1.723281
      dz2     :     0.016784  d :     0.078363
      dxz     :     0.024803
      dyz     :     0.011593
      dx2y2   :     0.013393
      dxy     :     0.011789


                      *****************************
                      * MAYER POPULATION ANALYSIS *
                      *****************************

  NA   - Mulliken gross atomic population
  ZA   - Total nuclear charge
  QA   - Mulliken gross atomic charge
  VA   - Mayer's total valence
  BVA  - Mayer's bonded valence
  FA   - Mayer's free valence

  ATOM       NA         ZA         QA         VA         BVA        FA
  0 C      5.9750     6.0000     0.0250     3.9059     3.6458     0.2601
  1 N      7.5293     7.0000    -0.5293     3.0298     2.6767     0.3531
  2 H      0.7592     1.0000     0.2408     0.9231     0.8736     0.0495
  3 C      6.0235     6.0000    -0.0235     3.8956     3.6096     0.2860
  4 N      7.5113     7.0000    -0.5113     3.0308     2.6875     0.3433
  5 H      0.8485     1.0000     0.1515     0.9553     0.9093     0.0459
  6 H      0.8805     1.0000     0.1195     0.9635     0.9171     0.0463
  7 C      6.0895     6.0000    -0.0895     3.8976     3.6295     0.2680
  8 H      0.7504     1.0000     0.2496     0.9215     0.8718     0.0498
  9 H      0.8712     1.0000     0.1288     0.9566     0.9090     0.0475
 10 H      0.8852     1.0000     0.1148     0.9623     0.9146     0.0478
 11 C      6.2046     6.0000    -0.2046     3.8875     3.6188     0.2687
 12 H      0.8839     1.0000     0.1161     0.9599     0.9104     0.0495
 13 C      6.0367     6.0000    -0.0367     3.9027     3.6300     0.2727
 14 H      0.8731     1.0000     0.1269     0.9728     0.9237     0.0491
 15 H      0.8681     1.0000     0.1319     0.9636     0.9148     0.0488
 16 C      5.3703     6.0000     0.6297     3.9034     3.6291     0.2742
 17 H      0.7424     1.0000     0.2576     0.9239     0.8775     0.0464
 18 N      7.6150     7.0000    -0.6150     3.0260     2.6999     0.3260
 19 H      0.7428     1.0000     0.2572     0.9179     0.8716     0.0464
 20 O      8.5362     8.0000    -0.5362     2.2059     1.8536     0.3523
 21 H      0.8666     1.0000     0.1334     0.9584     0.9106     0.0478
 22 H      0.6654     1.0000     0.3346     0.9088     0.8643     0.0444
 23 O      8.4714     8.0000    -0.4714     2.2872     1.8978     0.3894

  Mayer bond orders larger than 0.100000
B(  0-C ,  1-N ) :   0.8994 B(  0-C ,  4-N ) :   0.9224 B(  0-C ,  5-H ) :   0.9126 
B(  0-C ,  6-H ) :   0.9324 B(  1-N ,  3-C ) :   0.9261 B(  1-N ,  8-H ) :   0.8655 
B(  2-H ,  4-N ) :   0.8691 B(  3-C ,  7-C ) :   0.8822 B(  3-C , 11-C ) :   0.9223 
B(  3-C , 12-H ) :   0.9246 B(  4-N ,  7-C ) :   0.9280 B(  7-C ,  9-H ) :   0.9229 
B(  7-C , 10-H ) :   0.9302 B( 11-C , 13-C ) :   0.9241 B( 11-C , 14-H ) :   0.9100 
B( 11-C , 15-H ) :   0.9175 B( 13-C , 16-C ) :   0.8656 B( 13-C , 18-N ) :   0.9446 
B( 13-C , 21-H ) :   0.9115 B( 16-C , 20-O ) :   0.9842 B( 16-C , 23-O ) :   1.7563 
B( 17-H , 18-N ) :   0.8658 B( 18-N , 19-H ) :   0.8707 B( 20-O , 22-H ) :   0.8173 



----------------------------------
MP2 DERIVATIVE INTEGRAL GENERATION
----------------------------------

Input SCF Electron Density              ... 3.scfp
Input Correlated Electron Density       ... 3.pmp2re
Input Energy Weighted Density           ... 3.wmp2.tmp
Input Wavefunction Amplitudes           ... 3.mp2tsaa.tmp

Nuclear repulsion gradient              ... done (  0.0 sec)
HCore & Overlap gradient  (SHARK)       ... done (  0.2 sec)
Analytic two-electron gradient terms    ... 
  Batch handling in the gradient evaluation:
  General contraction                   ... not used
  Memory available                      ... 4077.9 MB
  Memory per occupied orbital in Q2     ...   11.7 MB
  Memory per occupied orbital in Q3     ...    0.0 MB
  Total memory requirement per |i>      ...   11.8 MB
  Number of orbitals treated per batch  ...     32
  Number of batches to be done          ...      1
done ( 39.9 sec)

---------------------------------------
MP2 TOTAL ENERGY:     -549.551132123 Eh
---------------------------------------

The final MP2 gradient
  0:  -0.00010768  -0.00002871  -0.00000885
  1:  -0.00000046   0.00001211   0.00003200
  2:   0.00002512   0.00000964   0.00001465
  3:  -0.00011105   0.00002923   0.00004239
  4:  -0.00003053  -0.00005386  -0.00002659
  5:   0.00003672   0.00003486   0.00000424
  6:   0.00000155   0.00000387   0.00001604
  7:   0.00009377   0.00002805   0.00000639
  8:   0.00002421  -0.00000839   0.00000276
  9:   0.00000218  -0.00002863  -0.00001582
 10:  -0.00002604  -0.00001862   0.00000185
 11:   0.00004851   0.00004515  -0.00007199
 12:   0.00002564  -0.00000795  -0.00000641
 13:   0.00000504   0.00001405   0.00004504
 14:   0.00000491   0.00001820   0.00000768
 15:  -0.00001018  -0.00000301   0.00001892
 16:   0.00000889   0.00002713  -0.00006578
 17:  -0.00000213   0.00003234   0.00002147
 18:  -0.00000178  -0.00007770  -0.00005506
 19:   0.00000317   0.00000841   0.00002585
 20:  -0.00005981   0.00001611  -0.00005312
 21:   0.00000372  -0.00000826  -0.00000327
 22:   0.00004398  -0.00001248   0.00002830
 23:   0.00002224  -0.00003153   0.00003932

-----------------------------------
NORM OF THE MP2 GRADIENT:  0.000303
-----------------------------------

Maximum memory used throughout the entire MP2-calculation: 1373.2 MB

-------------------------   --------------------
FINAL SINGLE POINT ENERGY      -549.551132123291
-------------------------   --------------------

                                *** OPTIMIZATION RUN DONE ***


------------------------------------------------------------------------------
                              ORCA PROPERTY CALCULATIONS
------------------------------------------------------------------------------

GBWName                                 ... 3.gbw
Number of atoms                         ...     24
Number of basis functions               ...    219
Max core memory                         ...   4096 MB

Electric properties:
Dipole moment                           ... YES
Quadrupole moment                       ...  NO
Static polarizability (Dipole/Dipole)   ...  NO
Static polarizability (Dipole/Quad.)    ...  NO
Static polarizability (Quad./Quad.)     ...  NO
Static polarizability (Velocity)        ...  NO
Static hyperpolarizability              ...  NO

Atomic electric properties:
Dipole moment                           ...  NO
Quadrupole moment                       ...  NO
Static polarizability                   ...  NO

Choice of electric origin               ... Center of mass
Position of electric origin             ...   -12.970922     5.961560    -0.486933

General magnetic properties:
Magnetizability                         ...  NO

EPR properties:
g-Tensor (aka g-matrix)                 ...  NO
Zero-Field splitting spin-orbit         ...  NO
Zero-field splitting spin-spin          ...  NO
Hyperfine couplings                     ...  NO (   0 nuclei)
Quadrupole couplings                    ...  NO (   0 nuclei)
Contact density                         ...  NO (   0 nuclei)

NMR properties:
Chemical shifts                         ...  NO (   0 nuclei)
Spin-rotation constants                 ...  NO (   0 nuclei)
Spin-spin couplings                     ...  NO (   0 nuclei,    0 pairs)

Choice of magnetic origin               ... GIAO
Position of magnetic origin             ...     0.000000     0.000000     0.000000

Properties with geometric perturbations:
SCF Hessian                             ...  NO
IR spectrum                             ...  NO
VCD spectrum                            ...  NO
X-ray spectroscopy properties:
SCF XES/XAS/RIXS spectra                ...  NO

SCF SOC stabilization energy            ...  NO
Diagonal Born-Oppenheimer correction    ...  NO

-------------
DIPOLE MOMENT
-------------

Method             : SCF
Type of density    : Electron Density
Multiplicity       :   1
Irrep              :   0
Energy             :  -547.8630821624801683 Eh
Basis              : AO
                                X                 Y                 Z
Electronic contribution:      3.217828287      -4.536270894      -3.355634174
Nuclear contribution   :     -2.827789209       4.154943625       4.302341079
                        -----------------------------------------
Total Dipole Moment    :      0.390039078      -0.381327269       0.946706905
                        -----------------------------------------
Magnitude (a.u.)       :      1.092609232
Magnitude (Debye)      :      2.777191960



--------------------
Rotational spectrum 
--------------------
 
Rotational constants in cm-1:             0.063776             0.025830             0.021597 
Rotational constants in MHz :          1911.953045           774.369875           647.455033 

Dipole components along the rotational axes: 
x,y,z [a.u.] :     0.172986     0.161344     1.066695 
x,y,z [Debye]:     0.439696     0.410105     2.711324 

 

-------------
DIPOLE MOMENT
-------------

Method             : MP2
Type of density    : Electron Density
Multiplicity       :   1
Level              : Unrelaxed density
Irrep              :   0
Energy             :     0.0000000000000000 Eh
Basis              : AO
                                X                 Y                 Z
Electronic contribution:      3.196944546      -4.549041251      -3.385613044
Nuclear contribution   :     -2.827789209       4.154943625       4.302341079
                        -----------------------------------------
Total Dipole Moment    :      0.369155337      -0.394097626       0.916728036
                        -----------------------------------------
Magnitude (a.u.)       :      1.063944967
Magnitude (Debye)      :      2.704333189



--------------------
Rotational spectrum 
--------------------
 
Rotational constants in cm-1:             0.063776             0.025830             0.021597 
Rotational constants in MHz :          1911.953045           774.369875           647.455033 

Dipole components along the rotational axes: 
x,y,z [a.u.] :     0.172579     0.181990     1.033961 
x,y,z [Debye]:     0.438662     0.462582     2.628120 

 

-------------
DIPOLE MOMENT
-------------

Method             : MP2
Type of density    : Electron Density
Multiplicity       :   1
Level              : Relaxed density
Irrep              :   0
Energy             :     0.0000000000000000 Eh
Basis              : AO
                                X                 Y                 Z
Electronic contribution:      3.131352063      -4.621955922      -3.490279257
Nuclear contribution   :     -2.827789209       4.154943625       4.302341079
                        -----------------------------------------
Total Dipole Moment    :      0.303562854      -0.467012297       0.812061822
                        -----------------------------------------
Magnitude (a.u.)       :      0.984731077
Magnitude (Debye)      :      2.502987483



--------------------
Rotational spectrum 
--------------------
 
Rotational constants in cm-1:             0.063776             0.025830             0.021597 
Rotational constants in MHz :          1911.953045           774.369875           647.455033 

Dipole components along the rotational axes: 
x,y,z [a.u.] :     0.162834     0.280200     0.929876 
x,y,z [Debye]:     0.413891     0.712212     2.363556 

 

Dipole moment calculation done in   0.0 sec 

Maximum memory used throughout the entire PROP-calculation: 13.0 MB

--------------------------------
SUGGESTED CITATIONS FOR THIS RUN
--------------------------------

Below you find a list of papers that are relevant to this ORCA run
We neither can nor want to force you to cite these papers, but we appreciate if you do
You receive ORCA, which is the product of decades of hard work by many enthusiastic individuals, for free
The only thing we kindly ask in return is that you cite our papers,
We deeply appreciate it, if you show your appreciation for ORCA by not just citing the generic ORCA reference.

Please note that relegating all ORCA citations to the supporting information does *not* help us.
SI sections are not indexed - citations you put there will not count into any citation statistics
But we need these citations in order to attract the funding resources that allow us to do what we are doing

Therefore, if you are a happy ORCA user, please consider citing a few of the papers listed below in the main body of your paper

In addition to the list printed below, the program has created the file 3.bibtex that contains the list in bibtex format
You can import this file easily into all common literature databanks and citation aid programs


List of essential papers. We consider these as the minimum necessary citations

  1. Neese, F.
     Software update: the ORCA program system, version 6.0
     WIRES Comput. Molec. Sci. 2025 15(1), e70019
     doi.org/10.1002/wcms.7019

List of papers to cite with high priority. The work reported in these papers was absolutely
necessary for this run to complete.
Our perspective: the developers of density functionals and basis sets usually get cited in chemistry papers
Good! But without the algorithms to do something with them, the functionals or basis sets would not do anything.
Hence, in our opinion, the algorithm design and method developments papers are equally worthy of getting cited

  1. Neese, F.
     The SHARK Integral Generation and Digestion System
     J. Comp. Chem. 2022 44(3), 381
     doi.org/10.1002/jcc.26942

List of suggested additional citations. These are papers that are important in the 'surrounding' of 
of this run, or papers that preceded the highly important papers. If you like your results we are grateful for a citation.

  1. Neese, F.
     The ORCA program system
     WIRES Comput. Molec. Sci. 2012 2(1), 73-78
     doi.org/10.1002/wcms.81
  2. Neese, F.
     Software update: the ORCA program system, version 4.0
     WIRES Comput. Molec. Sci. 2018 8(1), 1-6
     doi.org/10.1002/wcms.1327
  3. Neese, F.; Wennmohs, F.; Becker, U.; Riplinger, C.
     The ORCA quantum chemistry program package
     J. Chem. Phys. 2020 152(22), 224108
     doi.org/10.1063/5.0004608
  4. Neese, F.
     Software update: The ORCA program system—Version 5.0
     WIRES Comput. Molec. Sci. 2022 12(1), e1606
     doi.org/10.1002/wcms.1606

List of optional additional citations

  1. Neese, F.
     Approximate second-order SCF convergence for spin unrestricted wavefunctions
     Chem. Phys. Lett. 2000 325(1-3), 93-98
     doi.org/10.1016/s0009-2614(00)00662-x

Timings for individual modules:

Sum of individual times          ...     1703.485 sec (=  28.391 min)
Startup calculation              ...        6.660 sec (=   0.111 min)   0.4 %
SCF iterations                   ...      321.798 sec (=   5.363 min)  18.9 %
Property calculations            ...        0.046 sec (=   0.001 min)   0.0 %
MP2 module                       ...     1374.956 sec (=  22.916 min)  80.7 %
Geometry relaxation              ...        0.026 sec (=   0.000 min)   0.0 %
                             ****ORCA TERMINATED NORMALLY****
TOTAL RUN TIME: 0 days 0 hours 28 minutes 23 seconds 747 msec
