
                                 *****************
                                 * O   R   C   A *
                                 *****************

                                            #,                                       
                                            ###                                      
                                            ####                                     
                                            #####                                    
                                            ######                                   
                                           ########,                                 
                                     ,,################,,,,,                         
                               ,,#################################,,                 
                          ,,##########################################,,             
                       ,#########################################, ''#####,          
                    ,#############################################,,   '####,        
                  ,##################################################,,,,####,       
                ,###########''''           ''''###############################       
              ,#####''   ,,,,##########,,,,          '''####'''          '####       
            ,##' ,,,,###########################,,,                        '##       
           ' ,,###''''                  '''############,,,                           
         ,,##''                                '''############,,,,        ,,,,,,###''
      ,#''                                            '''#######################'''  
     '                                                          ''''####''''         
             ,#######,   #######,   ,#######,      ##                                
            ,#'     '#,  ##    ##  ,#'     '#,    #''#        ,####,    ,#,          
            ##       ##  ##   ,#'  ##            #'  '#       #'       ,# #          
            ##       ##  #######   ##           ,######,      #####,      #          
            '#,     ,#'  ##    ##  '#,     ,#' ,#      #,     #,   #      #          
             '#######'   ##     ##  '#######'  #'      '#     '####' #    #          



                #########################################################
                #                        -***-                          #
                #          Department of theory and spectroscopy        #
                #                                                       #
                #                      Frank Neese                      #
                #                                                       #
                #     Directorship, Architecture, Infrastructure        #
                #                    SHARK, DRIVERS                     #
                #        Core code/Algorithms in most modules           #
                #                                                       #
                #        Max Planck Institute fuer Kohlenforschung      #
                #                Kaiser Wilhelm Platz 1                 #
                #                 D-45470 Muelheim/Ruhr                 #
                #                      Germany                          #
                #                                                       #
                #                  All rights reserved                  #
                #                        -***-                          #
                #########################################################


                         Program Version 6.1.0  -  RELEASE   -
                                (GIT: $679e74b$)
                          ($2025-06-10 18:02:51 +0200$)


 With contributions from (in alphabetic order):
[Max-Planck-Institut fuer Kohlenforschung]                               
  Daniel Aravena         : Magnetic Suceptibility                        
  Michael Atanasov       : Ab Initio Ligand Field Theory (pilot matlab implementation)
  Alexander A. Auer      : GIAO ZORA, VPT2 properties, NMR spectrum      
  Ute Becker             : All parallelization in ORCA, NUMFREQ, NUMCALC 
  Giovanni Bistoni       : ED, misc. LED, open-shell LED, HFLD           
  Dmytro Bykov           : pre 5.0 version of the SCF Hessian            
  Marcos Casanova-Páez   : Triplet and SCS-CIS(D). UHF-(DLPNO)-IP/EA/STEOM-CCSD. UHF-CVS-IP/STEOM-CCSD   
  Vijay G. Chilkuri      : MRCI spin determinant printing, contributions to CSF-ICE 
  Pauline Colinet        : FMM embedding                                 
  Dipayan Datta          : RHF DLPNO-CCSD density                        
  Achintya Kumar Dutta   : EOM-CC, STEOM-CC                              
  Nicolas Foglia         : Exact transition moments, OPA infrastructure, MCD improvements    
  Dmitry Ganyushin       : Spin-Orbit,Spin-Spin,Magnetic field MRCI      
  Miquel Garcia-Rates    : C-PCM and meta-GGA Hessian, CCSD/C-PCM, Gaussian charge scheme 
  Tiago L. C. Gouveia    : GS-ROHF, GS-ROCIS                             
  Yang Guo               : DLPNO-NEVPT2, F12-NEVPT2, CIM, IAO-localization        
  Andreas Hansen         : Spin unrestricted coupled pair/coupled cluster methods 
  Ingolf Harden          : AUTO-CI MPn and infrastructure                
  Benjamin Helmich-Paris : MC-RPA, TRAH-(SCF,CASSCF), AVAS, COSX integrals, SCF dyn. polar., MC-PDFT, srDFT 
  Lee Huntington         : MR-EOM, pCC                                   
  Robert Izsak           : Overlap fitted RIJCOSX, COSX-SCS-MP3, EOM     
  Riya Kayal             : Wick's Theorem for AUTO-CI, AUTO-CI UHF-CCSDT 
  Emily Kempfer          : AUTO-CI RHF CISDT and CCSDT, approximate NEVPT4
  Christian Kollmar      : KDIIS, OOCD, Brueckner-CCSD(T), CCSD density, CASPT2, CASPT2-K, improved NEVPT2 
  Axel Koslowski         : Symmetry handling                             
  Simone Kossmann        : meta-GGA functionals, TD-DFT gradient, OOMP2, (MP2 Hessian; deprecated post 5.0) 
  Lucas Lang             : DCDCAS, Hyperfine gauge corrections, ICE-SOC+SSC
  Marvin Lechner         : AUTO-CI (C++ implementation), FIC-MRCC        
  Spencer Leger          : CASSCF response                               
  Dagmar Lenk            : GEPOL surface, SMD, ORCA-2-JSON               
  Dimitrios Liakos       : Extrapolation schemes; Compound Job, Property file
  Dimitrios Manganas     : Further ROCIS development; embedding schemes. LFT, Crystal Embedding 
  Dimitrios Pantazis     : SARC Basis sets                               
  Anastasios Papadopoulos: AUTO-CI, single reference methods and gradients 
  Taras Petrenko         : pre 6.0 DFT Hessian and TD-DFT gradient,  ECA, NRVS 
  Petra Pikulova         : Analytic Raman intensities                    
  Peter Pinski           : DLPNO-MP2, DLPNO-MP2 Gradient                 
  Shashank Vittal Rao    : ES-AILFT, MagRelax                            
  Christoph Reimann      : Effective Core Potentials                     
  Marius Retegan         : Local ZFS, SOC                                
  Christoph Riplinger    : Optimizer, TS searches, QM/MM, DLPNO-CCSD(T), (RO)-DLPNO pert. Triples 
  Michael Roemelt        : Original ROCIS implementation, recursive CI coupling coefficients
  Masaaki Saitow         : Open-shell DLPNO-CCSD energy and density      
  Barbara Sandhoefer     : DKH picture change effects                    
  Yorick L. A. Schmerwitz: GMF and freeze-and-release deltaSCF, NEB S-IDPP initial path                    
  Kantharuban Sivalingam : CASSCF convergence/infrastructure, NEVPT2, NEVPT3, NEVPT4(SD), FIC-MRCI and CEPA variants
  Bernardo de Souza      : ESD, SOC TD-DFT                               
  Georgi L. Stoychev     : AutoAux, RI-MP2 NMR, DLPNO-MP2 response, X2C  
  Van Anh Tran           : RI-MP2 g-tensors                              
  Willem Van den Heuvel  : Paramagnetic NMR                              
  Zikuan Wang            : NOTCH, Electric field optimization            
  Frank Wennmohs         : Technical directorship and infrastructure     
  Hang Xu                : AUTO-CI-Response properties                   
                                                                         
[FACCTs GmbH]                                                            
  Markus Bursch, Nicolas Foglia, Miquel Garcia-Rates, Ingolf Harden, Hagen Neugebauer, Anastasios Papadopoulos, 
  Christoph Riplinger, Bernardo de Souza, Georgi L. Stoychev                                                    
                                                                 
  APM, various basis sets, CI-OPT, improved COSX, DLPNO-Multilevel,           
  DOCKER, DRACO, updates on ESD, Fragmentator, GOAT, IRC, LR-CPCM, L-BFGS, MBIS, meta-GGA TD-DFT gradient, ML-optimized integration grids, 
  MM, NACMEs, nearIR, NEB, NEB-TS, NL-DFT gradient (VV10), 2- and 3-layer-ONIOM, interface openCOSMO-RS, QMMM,   
  Crystal-QMMM, RESP, rigid body optimization, SF, symmetry and pop. for TD-DFT, various functionals, SOLVATOR                                   
                                                                         
[Other institutions]                                                     
  V. Asgeirsson          : NEB                                           
  Christoph Bannwarth    : sTDA-DFT, sTD-DFT, PBEh-3c, B97-3c, D3        
  Giovanni Bistoni       : ETS/NOCV, ADLD/ADEX, COVALED                  
  Martin Brehm           : Molecular dynamics                            
  Ronald Cardenas        : ETS/NOCV                                      
  Martina Colucci        : COVALED                                       
  Sebastian Ehlert       : rSCAN, r2SCAN, r2SCAN-3c, D4, dhf basis sets  
  Marvin Friede          : D4 for Fr, Ra, Ac-Lr                          
  Lars Goerigk           : TD-DFT with DH, B97 family of functionals     
  Stefan Grimme          : VdW corrections, initial TS optimization, DFT functionals, gCP, sTDA/sTD-DF 
  Waldemar Hujo          : DFT-NL                                        
  H. Jonsson             : NEB                                           
  Holger Kruse           : gCP                                           
  Marcel Mueller         : wB97X-3c, vDZP basis set                      
  Hagen Neugebauer       : wr2SCAN, Native XTB                           
  Gianluca Regni         : ADLD/ADEX                                     
  Tobias Risthaus        : pre 6.0 range-separated hybrid DFT and stability analysis
  Lukas Wittmann         : regularized MP2, r2SCAN double-hybrids, wr2SCAN        
                                                                         
We gratefully acknowledge several colleagues who have allowed us to      
interface, adapt or use parts of their codes:                            
  Ed Valeev, F. Pavosevic, A. Kumar             : LibInt (2-el integral package), F12 methods 
  Garnet Chan, S. Sharma, J. Yang, R. Olivares  : DMRG                   
  Ulf Ekstrom                                   : XCFun DFT Library      
  Mihaly Kallay                                 : mrcc  (arbitrary order and MRCC methods)
  Frank Weinhold                                : gennbo (NPA and NBO analysis)           
  Simon Mueller                                 : openCOSMO-RS                            
  Christopher J. Cramer and Donald G. Truhlar   : smd solvation model                     
  S Lehtola, MJT Oliveira, MAL Marques          : LibXC Library                           
  Liviu Ungur et al                             : ANISO software                          


 Your calculation uses the libint2 library for the computation of 2-el integrals
 For citations please refer to: http://libint.valeyev.net

 Your ORCA version has been built with support for libXC version: 7.0.0
 For citations please refer to: https://libxc.gitlab.io

 This ORCA versions uses:
   CBLAS   interface :  Fast vector & matrix operations
   LAPACKE interface :  Fast linear algebra routines
   SCALAPACK package :  Parallel linear algebra routines
   Shared memory     :  Shared parallel matrices
   BLAS/LAPACK       :  OpenBLAS 0.3.29  USE64BITINT DYNAMIC_ARCH NO_AFFINITY Haswell SINGLE_THREADED
        Core in use  :  Haswell
   Copyright (c) 2011-2014, The OpenBLAS Project


  ***********************************
  * Starting time: Sat Aug 30 15:25:20 2025
  * Host name:     chemlab03
  * Process ID:    78472
  * Working dir.:  /home/vivek/mm-project/vivek/xtb-goat/B97-D-opt/e/1
  ***********************************



***************************************
The coordinates will be read from file: /home/vivek/mm-project/vivek/xtb-goat/xtb-goat/e/E_CONF/1.xyz
***************************************


Your calculation utilizes empirical dispersion correction


Warning: RI is on but no J-basis has been assigned. Assigning Def2/J (nothing to worry about!)
================================================================================

----- Orbital basis set information -----
Your calculation utilizes the basis: 6-31G**
   H-He, Li-Ne : W. J. Hehre, R. Ditchfield and J.A. Pople, J. Chem. Phys. 56, 2257 (1972).
                 Note: He and Ne are unpublished basis sets taken from the Gaussian program.
                 Note: Li and B from J. D. Dill and J. A. Pople, J. Chem. Phys. 62, 2921 (1975).
   Na - Ar     : M. M. Francl, W. J. Pietro, W. J. Hehre, J. S. Binkley, M. S. Gordon, 
                 D. J. DeFrees and J. A. Pople, J. Chem. Phys. 77, 3654 (1982).
   K - Zn      : V. A. Rassolov, J. A. Pople, M. A. Ratner, and T. L. Windus, J. Chem. Phys. 109, 1223 (1998).

----- AuxJ basis set information -----
Your calculation utilizes the auxiliary basis: def2/J
   H-Rn: F. Weigend, Phys. Chem. Chem. Phys. 8, 1057 (2006).
   Fr-Lr: K. Eichkorn, F. Weigend, O. Treutler, R. Ahlrichs; Theor. Chem. Acc. 97, 119 (1997).

================================================================================
                                        WARNINGS
                       Please study these warnings very carefully!
================================================================================


WARNING: Geometry Optimization
  ===> : Switching off AutoStart
         For restart on a previous wavefunction, please use MOREAD

INFO   : The exchange functional is Grimme's B97(-D)
         As described in S. Grimme, J. Comput. Chem. 27, 1787 (2006).
         Note that this functional defaults to a pure GGA. 

INFO   : The correlation functional is Grimme's B97(-D)
         As described in S. Grimme, J. Comput. Chem. 27, 1787 (2006).

================================================================================
                                       INPUT FILE
================================================================================
NAME = 1.inp
|  1> ! B97-D 6-31G** opt
|  2> 
|  3> * xyzfile 0 1 /home/vivek/mm-project/vivek/xtb-goat/xtb-goat/e/E_CONF/1.xyz
|  4> 
|  5>                          ****END OF INPUT****
================================================================================

                       *****************************
                       * Geometry Optimization Run *
                       *****************************

Geometry optimization settings:
Update method            Update   .... BFGS
Choice of coordinates    CoordSys .... (2022) Redundant Internals
Initial Hessian          InHess   .... Almloef's Model
Max. no of cycles        MaxIter  .... 57

Convergence Tolerances:
Energy Change            TolE     ....  5.0000e-06 Eh
Max. Gradient            TolMAXG  ....  3.0000e-04 Eh/bohr
RMS Gradient             TolRMSG  ....  1.0000e-04 Eh/bohr
Max. Displacement        TolMAXD  ....  4.0000e-03 bohr
RMS Displacement         TolRMSD  ....  2.0000e-03 bohr
Strict Convergence                .... False

------------------------------------------------------------------------------
                        ORCA OPTIMIZATION COORDINATE SETUP
------------------------------------------------------------------------------

The optimization will be done in redundant internal coordinates (2022)
Making redundant internal coordinates   ...  (2022 redundants) done
Evaluating the initial hessian          ...  (Almloef) done
Evaluating the coordinates              ...  done
Calculating the B-matrix                .... done
Calculating the G-matrix                .... done
The number of degrees of freedom        ....   79

    -----------------------------------------------------------------
                    Redundant Internal Coordinates


    -----------------------------------------------------------------
         Definition                    Initial Value    Approx d2E/dq
    -----------------------------------------------------------------
      1. B(C   1,C   0)                  1.5059         0.408214   
      2. B(O   4,C   0)                  1.3293         0.699513   
      3. B(C   5,C   1)                  1.5363         0.364969   
      4. B(H   6,C   1)                  1.0891         0.361286   
      5. B(H   7,C   1)                  1.0896         0.360628   
      6. B(C   8,C   5)                  1.5367         0.364483   
      7. B(H   9,C   5)                  1.0910         0.358816   
      8. B(H  10,C   5)                  1.0893         0.360985   
      9. B(C  11,C   8)                  1.5314         0.371663   
     10. B(O  12,C  11)                  1.2036         1.109733   
     11. B(N  13,C   8)                  1.4503         0.448487   
     12. B(N  13,H   3)                  1.0138         0.426697   
     13. B(N  13,H   2)                  1.0164         0.422678   
     14. B(H  14,O   4)                  0.9703         0.500671   
     15. B(O  15,C  11)                  1.3341         0.687157   
     16. B(H  16,C   8)                  1.0997         0.347450   
     17. B(O  17,H   2)                  2.3660         0.010000   
     18. B(O  17,C   0)                  1.2062         1.099111   
     19. B(H  18,O  15)                  0.9696         0.501930   
     20. A(O   4,C   0,O  17)          122.8669         0.486068   
     21. A(C   1,C   0,O  17)          124.8286         0.443414   
     22. A(C   1,C   0,O   4)          112.2966         0.408958   
     23. A(C   0,C   1,H   6)          109.0140         0.329268   
     24. A(C   0,C   1,H   7)          109.3071         0.329169   
     25. A(C   5,C   1,H   7)          109.2586         0.323158   
     26. A(H   6,C   1,H   7)          110.1703         0.291057   
     27. A(C   0,C   1,C   5)          109.9257         0.367441   
     28. A(C   5,C   1,H   6)          109.1540         0.323255   
     29. A(C   0,O   4,H  14)          111.1527         0.375439   
     30. A(C   8,C   5,H  10)          108.6921         0.323140   
     31. A(C   1,C   5,H  10)          108.1497         0.323211   
     32. A(C   8,C   5,H   9)          108.0682         0.322821   
     33. A(H   9,C   5,H  10)          109.1451         0.290788   
     34. A(C   1,C   5,H   9)          109.5127         0.322892   
     35. A(C   1,C   5,C   8)          113.2104         0.360390   
     36. A(C   5,C   8,C  11)          110.2841         0.361509   
     37. A(N  13,C   8,H  16)          107.8342         0.330278   
     38. A(C  11,C   8,H  16)          105.3411         0.322151   
     39. A(C   5,C   8,H  16)          107.5574         0.321124   
     40. A(C  11,C   8,N  13)          113.8702         0.372256   
     41. A(C   5,C   8,N  13)          111.5424         0.371008   
     42. A(C   8,C  11,O  12)          125.2785         0.436725   
     43. A(O  12,C  11,O  15)          122.8160         0.485332   
     44. A(C   8,C  11,O  15)          111.8745         0.400976   
     45. A(H   3,N  13,C   8)          110.0561         0.338818   
     46. A(H   2,N  13,C   8)          109.1348         0.338283   
     47. A(H   2,N  13,H   3)          106.8429         0.301449   
     48. A(C  11,O  15,H  18)          110.5607         0.374448   
     49. D(C   5,C   1,C   0,O  17)     83.6250         0.012346   
     50. D(H   6,C   1,C   0,O  17)   -156.7672         0.012346   
     51. D(H   6,C   1,C   0,O   4)     24.2324         0.012346   
     52. D(H   7,C   1,C   0,O   4)    144.7079         0.012346   
     53. D(C   5,C   1,C   0,O   4)    -95.3754         0.012346   
     54. D(H  14,O   4,C   0,O  17)     -4.9372         0.036638   
     55. D(H  14,O   4,C   0,C   1)    174.0859         0.036638   
     56. D(H   9,C   5,C   1,H   7)   -175.3424         0.010667   
     57. D(H   9,C   5,C   1,H   6)    -54.8110         0.010667   
     58. D(H   9,C   5,C   1,C   0)     64.7115         0.010667   
     59. D(C   8,C   5,C   1,H   7)     63.9949         0.010667   
     60. D(C   8,C   5,C   1,H   6)   -175.4737         0.010667   
     61. D(C   8,C   5,C   1,C   0)    -55.9512         0.010667   
     62. D(C  11,C   8,C   5,H   9)    -43.7009         0.010640   
     63. D(C  11,C   8,C   5,C   1)     77.7775         0.010640   
     64. D(N  13,C   8,C   5,H  10)     70.3990         0.010640   
     65. D(N  13,C   8,C   5,H   9)   -171.2705         0.010640   
     66. D(N  13,C   8,C   5,C   1)    -49.7921         0.010640   
     67. D(C  11,C   8,C   5,H  10)   -162.0314         0.010640   
     68. D(O  15,C  11,C   8,N  13)    -29.7831         0.010338   
     69. D(O  15,C  11,C   8,C   5)   -156.0562         0.010338   
     70. D(O  12,C  11,C   8,H  16)    -89.8487         0.010338   
     71. D(O  12,C  11,C   8,N  13)    152.2023         0.010338   
     72. D(O  12,C  11,C   8,C   5)     25.9291         0.010338   
     73. D(H   3,N  13,C   8,C  11)     65.6094         0.017157   
     74. D(H   3,N  13,C   8,C   5)   -168.7808         0.017157   
     75. D(H   2,N  13,C   8,H  16)   -167.8429         0.017157   
     76. D(H   2,N  13,C   8,C  11)    -51.3374         0.017157   
     77. D(H   2,N  13,C   8,C   5)     74.2725         0.017157   
     78. D(H  18,O  15,C  11,O  12)     -4.0613         0.035237   
     79. D(H  18,O  15,C  11,C   8)    177.8672         0.035237   
    -----------------------------------------------------------------

Number of atoms                         .... 19
Number of degrees of freedom            .... 79


         *************************************************************
         *                GEOMETRY OPTIMIZATION CYCLE   1            *
         *************************************************************
---------------------------------
CARTESIAN COORDINATES (ANGSTROEM)
---------------------------------
  C     -2.758308   -0.061986    0.104918
  C     -2.529999    1.042627   -0.892742
  H     -1.624997    2.176110    1.378403
  H     -0.142186    2.796424    1.651263
  O     -3.021475   -1.225230   -0.482037
  C     -1.025543    1.206069   -1.157794
  H     -3.031523    0.787746   -1.825297
  H     -2.928233    1.975501   -0.494764
  C     -0.209512    1.458973    0.119547
  H     -0.639065    0.303287   -1.633021
  H     -0.889568    2.050876   -1.831927
  C     -0.003918    0.149334    0.886198
  O     -0.003677   -0.950168    0.396485
  N     -0.787231    2.522353    0.918728
  H     -3.074147   -1.942215    0.169591
  O      0.222339    0.363055    2.183488
  H      0.797292    1.777444   -0.187597
  O     -2.695594    0.067560    1.302548
  H      0.316368   -0.478438    2.655908

----------------------------
CARTESIAN COORDINATES (A.U.)
----------------------------
  NO LB      ZA    FRAG     MASS         X           Y           Z
   0 C     6.0000    0    12.011   -5.212447   -0.117136    0.198266
   1 C     6.0000    0    12.011   -4.781004    1.970280   -1.687038
   2 H     1.0000    0     1.008   -3.070799    4.112252    2.604804
   3 H     1.0000    0     1.008   -0.268693    5.284475    3.120435
   4 O     8.0000    0    15.999   -5.709760   -2.315349   -0.910917
   5 C     6.0000    0    12.011   -1.937995    2.279140   -2.187914
   6 H     1.0000    0     1.008   -5.728748    1.488625   -3.449312
   7 H     1.0000    0     1.008   -5.533558    3.733156   -0.934968
   8 C     6.0000    0    12.011   -0.395920    2.757059    0.225912
   9 H     1.0000    0     1.008   -1.207657    0.573129   -3.085963
  10 H     1.0000    0     1.008   -1.681040    3.875594   -3.461840
  11 C     6.0000    0    12.011   -0.007403    0.282200    1.674671
  12 O     8.0000    0    15.999   -0.006949   -1.795558    0.749248
  13 N     7.0000    0    14.007   -1.487651    4.766555    1.736144
  14 H     1.0000    0     1.008   -5.809297   -3.670254    0.320480
  15 O     8.0000    0    15.999    0.420159    0.686075    4.126194
  16 H     1.0000    0     1.008    1.506664    3.358883   -0.354507
  17 O     8.0000    0    15.999   -5.093934    0.127669    2.461458
  18 H     1.0000    0     1.008    0.597849   -0.904116    5.018939

--------------------------------
INTERNAL COORDINATES (ANGSTROEM)
--------------------------------
 C      0   0   0     0.000000000000     0.00000000     0.00000000
 C      1   0   0     1.505862214383     0.00000000     0.00000000
 H      2   1   0     2.694793461817    78.52712045     0.00000000
 H      3   2   1     1.630327712677   127.33966802   123.20997928
 O      1   2   3     1.329251712777   112.29663412   193.36400403
 C      2   1   3     1.536344214208   109.92574732    71.26055564
 H      2   1   3     1.089105083876   109.01402918   190.86841424
 H      2   1   3     1.089601306755   109.30710308   311.34390047
 C      6   2   1     1.536706816477   113.21040190   304.04878069
 H      6   2   1     1.090972593497   109.51270532    64.71147470
 H      6   2   1     1.089331809685   108.14970681   183.54906592
 C      9   6   2     1.531396902246   110.28405696    77.77748912
 O     12   9   6     1.203629015640   125.27847223    25.92914430
 N      4   3   2     1.013807851935    36.63248124    18.59892844
 H      5   1   2     0.970288421023   111.15265604   174.08589526
 O     12   9   6     1.334102816369   111.87452983   203.94376557
 H      9   6   2     1.099734417283   107.55739139   192.15697971
 O      1   2   3     1.206246993252   124.82856897    12.36442823
 H     16  12   9     0.969604519975   110.56074600   177.86723627

---------------------------
INTERNAL COORDINATES (A.U.)
---------------------------
 C      0   0   0     0.000000000000     0.00000000     0.00000000
 C      1   0   0     2.845667180604     0.00000000     0.00000000
 H      2   1   0     5.092421630315    78.52712045     0.00000000
 H      3   2   1     3.080872885502   127.33966802   123.20997928
 O      1   2   3     2.511921700194   112.29663412   193.36400403
 C      2   1   3     2.903269812287   109.92574732    71.26055564
 H      2   1   3     2.058110339586   109.01402918   190.86841424
 H      2   1   3     2.059048064930   109.30710308   311.34390047
 C      6   2   1     2.903955031271   113.21040190   304.04878069
 H      6   2   1     2.061639421323   109.51270532    64.71147470
 H      6   2   1     2.058538789273   108.14970681   183.54906592
 C      9   6   2     2.893920747580   110.28405696    77.77748912
 O     12   9   6     2.274529206400   125.27847223    25.92914430
 N      4   3   2     1.915819192576    36.63248124    18.59892844
 H      5   1   2     1.833579386648   111.15265604   174.08589526
 O     12   9   6     2.521088957430   111.87452983   203.94376557
 H      9   6   2     2.078196868713   107.55739139   192.15697971
 O      1   2   3     2.279476467112   124.82856897    12.36442823
 H     16  12   9     1.832287000965   110.56074600   177.86723627

---------------------
BASIS SET INFORMATION
---------------------
There are 4 groups of distinct atoms

 Group   1 Type C   : 10s4p1d contracted to 3s2p1d pattern {631/31/1}
 Group   2 Type H   : 4s1p contracted to 2s1p pattern {31/1}
 Group   3 Type O   : 10s4p1d contracted to 3s2p1d pattern {631/31/1}
 Group   4 Type N   : 10s4p1d contracted to 3s2p1d pattern {631/31/1}

Atom   0C    basis set group =>   1
Atom   1C    basis set group =>   1
Atom   2H    basis set group =>   2
Atom   3H    basis set group =>   2
Atom   4O    basis set group =>   3
Atom   5C    basis set group =>   1
Atom   6H    basis set group =>   2
Atom   7H    basis set group =>   2
Atom   8C    basis set group =>   1
Atom   9H    basis set group =>   2
Atom  10H    basis set group =>   2
Atom  11C    basis set group =>   1
Atom  12O    basis set group =>   3
Atom  13N    basis set group =>   4
Atom  14H    basis set group =>   2
Atom  15O    basis set group =>   3
Atom  16H    basis set group =>   2
Atom  17O    basis set group =>   3
Atom  18H    basis set group =>   2
---------------------------------
AUXILIARY/J BASIS SET INFORMATION
---------------------------------
There are 4 groups of distinct atoms

 Group   1 Type C   : 12s5p4d2f1g contracted to 6s4p3d1f1g pattern {711111/2111/211/2/1}
 Group   2 Type H   : 5s2p1d contracted to 3s1p1d pattern {311/2/1}
 Group   3 Type O   : 12s5p4d2f1g contracted to 6s4p3d1f1g pattern {711111/2111/211/2/1}
 Group   4 Type N   : 12s5p4d2f1g contracted to 6s4p3d1f1g pattern {711111/2111/211/2/1}

Atom   0C    basis set group =>   1
Atom   1C    basis set group =>   1
Atom   2H    basis set group =>   2
Atom   3H    basis set group =>   2
Atom   4O    basis set group =>   3
Atom   5C    basis set group =>   1
Atom   6H    basis set group =>   2
Atom   7H    basis set group =>   2
Atom   8C    basis set group =>   1
Atom   9H    basis set group =>   2
Atom  10H    basis set group =>   2
Atom  11C    basis set group =>   1
Atom  12O    basis set group =>   3
Atom  13N    basis set group =>   4
Atom  14H    basis set group =>   2
Atom  15O    basis set group =>   3
Atom  16H    basis set group =>   2
Atom  17O    basis set group =>   3
Atom  18H    basis set group =>   2
------------------------------------------------------------------------------
                             ORCA STARTUP CALCULATIONS
                           -- RI-GTO INTEGRALS CHOSEN --
------------------------------------------------------------------------------
------------------------------------------------------------------------------
                   ___                                                        
                  /   \      - P O W E R E D   B Y -                         
                 /     \                                                     
                 |  |  |   _    _      __       _____    __    __             
                 |  |  |  | |  | |    /  \     |  _  \  |  |  /  |          
                  \  \/   | |  | |   /    \    | | | |  |  | /  /          
                 / \  \   | |__| |  /  /\  \   | |_| |  |  |/  /          
                |  |  |   |  __  | /  /__\  \  |    /   |      \           
                |  |  |   | |  | | |   __   |  |    \   |  |\   \          
                \     /   | |  | | |  |  |  |  | |\  \  |  | \   \       
                 \___/    |_|  |_| |__|  |__|  |_| \__\ |__|  \__/        
                                                                              
                      - O R C A' S   B I G   F R I E N D -                    
                                      &                                       
                       - I N T E G R A L  F E E D E R -                       
                                                                              
 v1 FN, 2020, v2 2021, v3 2022-2024                                           
------------------------------------------------------------------------------


----------------------
SHARK INTEGRAL PACKAGE
----------------------

Number of atoms                             ...     19
Number of basis functions                   ...    185
Number of shells                            ...     87
Maximum angular momentum                    ...      2
Integral batch strategy                     ... SHARK/LIBINT Hybrid
RI-J (if used) integral strategy            ... SPLIT-RIJ (Revised 2003 algorithm where possible)
Printlevel                                  ...      1
Contraction scheme used                     ... SEGMENTED contraction
Prescreening option                         ... SCHWARTZ
   Thresh                                   ... 2.500e-11
   Tcut                                     ... 2.500e-12
   Tpresel                                  ... 2.500e-12 
Coulomb Range Separation                    ... NOT USED
Exchange Range Separation                   ... NOT USED
Multipole approximations                    ... NOT USED
Finite Nucleus Model                        ... NOT USED
CABS basis                                  ... NOT available
Auxiliary Coulomb fitting basis             ... AVAILABLE
   # of basis functions in Aux-J            ...    589
   # of shells in Aux-J                     ...    195
   Maximum angular momentum in Aux-J        ...      4
Auxiliary J/K fitting basis                 ... NOT available
Auxiliary Correlation fitting basis         ... NOT available
Auxiliary 'external' fitting basis          ... NOT available

Checking pre-screening integrals            ... done (  0.0 sec) Dimension = 87
   => SHARK Basis and OBASIS are compatible. Storing Pre-screening
Shell pair information
Shell pair cut-off parameter TPreSel        ...   2.5e-12
Total number of shell pairs                 ...      3828
Shell pairs after pre-screening             ...      3535
Total number of primitive shell pairs       ...     19347
Primitive shell pairs kept                  ...     11705
          la=0 lb=0:   1066 shell pairs
          la=1 lb=0:   1276 shell pairs
          la=1 lb=1:    405 shell pairs
          la=2 lb=0:    456 shell pairs
          la=2 lb=1:    277 shell pairs
          la=2 lb=2:     55 shell pairs

Checking whether 4 symmetric matrices of dimension 185 fit in memory
:Max Core in MB      =   4096.00
 MB in use           =      8.26
 MB left             =   4087.74
 MB needed           =      0.53
 Data fit in memory  = YES
Calculating RI/J V-Matrix + Cholesky decomp.... done (  0.0 sec)
Calculating Nuclear repulsion               ... done (  0.0 sec) ENN=    592.511699526391 Eh

Diagonalization of the overlap matrix:
Smallest eigenvalue                        ... 3.026e-03
Time for diagonalization                   ...    0.002 sec
Threshold for overlap eigenvalues          ... 1.000e-07
Number of eigenvalues below threshold      ... 0
Time for construction of square roots      ...    0.001 sec
Total time needed                          ...    0.002 sec

-------------------
DFT GRID GENERATION
-------------------

General Integration Accuracy     IntAcc      ... 4.388
Radial Grid Type                 RadialGrid  ... OptM3 with GC (2021)
Angular Grid (max. ang.)         AngularGrid ... 4 (Lebedev-302)
Angular grid pruning method      GridPruning ... 4 (adaptive)
Weight generation scheme         WeightScheme... mBecke (2022)
Basis function cutoff            BFCut       ... 1.0000e-11
Integration weight cutoff        WCut        ... 1.0000e-14
Partially contracted basis set               ... off
Rotationally invariant grid construction     ... off
Angular grids for H and He will be reduced by one unit

Total number of grid points                  ...    89006
Total number of batches                      ...     1401
Average number of points per batch           ...       63
Average number of grid points per atom       ...     4685
Grids setup in   0.4 sec
Initializing property integral containers    ... done (  0.0 sec)

SHARK setup successfully completed in   0.5 seconds

Maximum memory used throughout the entire STARTUP-calculation: 37.9 MB
-------------------------------------------------------------------------------
                                 ORCA GUESS
                   Start orbitals & Density for SCF / CASSCF
-------------------------------------------------------------------------------

------------
SCF SETTINGS
------------
Hamiltonian:
 Density Functional     Method          .... DFT(GTOs)
 Exchange Functional    Exchange        .... B97(D)
 Correlation Functional Correlation     .... B97(D)
 Gradients option       PostSCFGGA      .... off
 RI-approximation to the Coulomb term is turned on
   Number of AuxJ basis functions       .... 589


General Settings:
 Integral files         IntName         .... 1
 Hartree-Fock type      HFTyp           .... RHF
 Total Charge           Charge          ....    0
 Multiplicity           Mult            ....    1
 Number of Electrons    NEL             ....   78
 Basis Dimension        Dim             ....  185
 Nuclear Repulsion      ENuc            ....    592.5116995264 Eh

Convergence Acceleration:
 AO-DIIS                CNVDIIS         .... on
   Start iteration      DIISMaxIt       ....    12
   Startup error        DIISStart       ....  0.200000
   # of expansion vecs  DIISMaxEq       ....     5
   Bias factor          DIISBfac        ....   1.050
   Max. coefficient     DIISMaxC        ....  10.000
 MO-DIIS                CNVKDIIS        .... off
 Trust-Rad. Augm. Hess. CNVTRAH         .... auto
   Auto Start mean grad. ratio tolernc. ....  1.125000
   Auto Start start iteration           ....    50
   Auto Start num. interpolation iter.  ....    10
   Max. Number of Micro iterations      ....    24
   Max. Number of Macro iterations      .... Maxiter - #DIIS iter
   Number of Davidson start vectors     ....     2
   Converg. threshold    (grad. norm)   ....   1.000e-05
   Grad. Scal. Fac. for Micro threshold ....   0.100
   Minimum threshold for Micro iter.    ....   1.000e-02
   NR start threshold (gradient norm)   ....   1.000e-04
   Initial trust radius                 ....   0.400
   Minimum AH scaling param. (alpha)    ....   1.000
   Maximum AH scaling param. (alpha)    .... 1000.000
   Quad. conv. algorithm                .... NR
   White noise on init. David. guess    .... on
   Maximum white noise                  ....   0.010
   Pseudo random numbers                .... off
   Inactive MOs                         .... canonical
   Orbital update algorithm             .... Taylor
   Preconditioner                       .... Diag
   Full preconditioner red. dimension   ....   250
 SOSCF                 CNVSOSCF           .... on
   Start iteration     SOSCFMaxIt         ....   150
   Startup grad/error  SOSCFStart         ....  0.003300
   Hessian update      SOSCFHessUp        .... L-BFGS
   Autom. constraints  SOSCFAutoConstrain .... off
 Level Shifting         CNVShift        .... on
   Level shift para.    LevelShift      ....    0.2500
   Turn off err/grad.   ShiftErr        ....    0.0010
 Zerner damping         CNVZerner       .... off
 Static damping         CNVDamp         .... on
   Fraction old density DampFac         ....    0.7000
   Max. Damping (<1)    DampMax         ....    0.9800
   Min. Damping (>=0)   DampMin         ....    0.0000
   Turn off err/grad.   DampErr         ....    0.1000

SCF Procedure:
 Maximum # iterations   MaxIter         ....   125
 SCF integral mode      SCFMode         .... Direct
   Integral package                     .... SHARK and LIBINT hybrid scheme
 Reset frequency        DirectResetFreq ....    20
 Integral Threshold     Thresh          ....  2.500e-11 Eh
 Primitive CutOff       TCut            ....  2.500e-12 Eh

Convergence Tolerance:
 Convergence Check Mode ConvCheckMode   .... Total+1el-Energy
 Convergence forced     ConvForced      .... 0
 Energy Change          TolE            ....  1.000e-08 Eh
 1-El. energy change                    ....  1.000e-05 Eh
 Orbital Gradient       TolG            ....  1.000e-05
 Orbital Rotation angle TolX            ....  1.000e-05
 DIIS Error             TolErr          ....  5.000e-07

------------------------------
INITIAL GUESS: MODEL POTENTIAL
------------------------------
Loading Hartree-Fock densities                     ... done
Calculating cut-offs                               ... done
Initializing the effective Hamiltonian             ... done
Setting up the integral package (SHARK)            ... done
Starting the Coulomb interaction                   ... done (   0.1 sec)
Making the grid                                    ... done (   0.1 sec)
Mapping shells                                     ... done
Starting the XC term evaluation                    ... done (   0.1 sec)
  promolecular density results
     # of electrons  =     77.989289961
     EX              =    -66.731355077
     EC              =     -3.513140222
     EX+EC           =    -70.244495299
Transforming the Hamiltonian                       ... done (   0.0 sec)
Diagonalizing the Hamiltonian                      ... done (   0.0 sec)
Back transforming the eigenvectors                 ... done (   0.0 sec)
Now organizing SCF variables                       ... done
                      ------------------
                      INITIAL GUESS DONE (   0.3 sec)
                      ------------------
             **** ENERGY FILE WAS UPDATED (1.en.tmp) ****
Finished Guess after   0.3 sec
Maximum memory used throughout the entire GUESS-calculation: 13.7 MB

-------------------------------------------------------------------------------------------
                                      ORCA LEAN-SCF
                              memory conserving SCF solver
-------------------------------------------------------------------------------------------

----------------------------------------D-I-I-S--------------------------------------------
Iteration    Energy (Eh)           Delta-E    RMSDP     MaxDP     DIISErr   Damp  Time(sec)
-------------------------------------------------------------------------------------------
               ***  Starting incremental Fock matrix formation  ***
    1    -550.8679371831714207     0.00e+00  3.94e-03  1.09e-01  2.60e-01  0.700   0.6
    2    -551.0645096268784755    -1.97e-01  2.39e-03  5.92e-02  9.33e-02  0.700   0.5
                               ***Turning on AO-DIIS***
    3    -551.1219847240682839    -5.75e-02  8.71e-04  1.48e-02  2.75e-02  0.700   0.5
    4    -551.1608359704504210    -3.89e-02  1.14e-03  1.93e-02  1.73e-02  0.000   0.5
    5    -551.2521857059199419    -9.13e-02  3.97e-04  7.65e-03  1.02e-02  0.000   0.5
                              *** Initializing SOSCF ***
---------------------------------------S-O-S-C-F--------------------------------------
Iteration    Energy (Eh)           Delta-E    RMSDP     MaxDP     MaxGrad    Time(sec)
--------------------------------------------------------------------------------------
    6    -551.2530379019596012    -8.52e-04  1.42e-04  2.39e-03  2.93e-03     0.5
               *** Restarting incremental Fock matrix formation ***
    7    -551.2531027294029400    -6.48e-05  1.22e-04  3.87e-03  7.91e-04     0.6
    8    -551.2530781270410216     2.46e-05  6.90e-05  2.79e-03  2.08e-03     0.5
    9    -551.2531127224116290    -3.46e-05  4.07e-05  7.48e-04  2.38e-04     0.5
   10    -551.2531109094455815     1.81e-06  2.30e-05  4.74e-04  2.69e-04     0.5
   11    -551.2531141391524443    -3.23e-06  1.04e-05  3.02e-04  6.76e-05     0.5
   12    -551.2531138689931822     2.70e-07  6.90e-06  2.08e-04  1.73e-04     0.4
   13    -551.2531142144313208    -3.45e-07  4.57e-06  1.45e-04  3.42e-05     0.4
   14    -551.2531141698769943     4.46e-08  2.94e-06  9.01e-05  4.04e-05     0.4
   15    -551.2531142305948606    -6.07e-08  6.82e-07  1.72e-05  3.24e-06     0.4
   16    -551.2531142336162020    -3.02e-09  3.85e-07  1.25e-05  4.38e-06     0.4
                 **** Energy Check signals convergence ****

               *****************************************************
               *                     SUCCESS                       *
               *           SCF CONVERGED AFTER  16 CYCLES          *
               *****************************************************

             **** ENERGY FILE WAS UPDATED (1.en.tmp) ****

----------------
TOTAL SCF ENERGY
----------------

Total Energy       :       -551.25311423233927 Eh          -15000.35984 eV

Components:
Nuclear Repulsion  :        592.51169952639077 Eh           16123.06302 eV
Electronic Energy  :      -1143.76481375873004 Eh          -31123.42287 eV
One Electron Energy:      -1930.42454096644701 Eh          -52529.52231 eV
Two Electron Energy:        786.65972720771697 Eh           21406.09944 eV

Virial components:
Potential Energy   :      -1099.77150389775716 Eh          -29926.30404 eV
Kinetic Energy     :        548.51838966541789 Eh           14925.94420 eV
Virial Ratio       :          2.00498565703256

DFT components:
N(Alpha)           :       39.000008970324 electrons
N(Beta)            :       39.000008970324 electrons
N(Total)           :       78.000017940647 electrons
E(X)               :      -68.096622164288 Eh       
E(C)               :       -3.503021972849 Eh       
E(XC)              :      -71.599644137137 Eh       

---------------
SCF CONVERGENCE
---------------

  Last Energy change         ...    3.0213e-09  Tolerance :   1.0000e-08
  Last MAX-Density change    ...    1.2481e-05  Tolerance :   1.0000e-07
  Last RMS-Density change    ...    3.8457e-07  Tolerance :   5.0000e-09
  Last DIIS Error            ...    2.9292e-03  Tolerance :   5.0000e-07
  Last Orbital Gradient      ...    4.3815e-06  Tolerance :   1.0000e-05
  Last Orbital Rotation      ...    4.2920e-06  Tolerance :   1.0000e-05


----------------
ORBITAL ENERGIES
----------------

  NO   OCC          E(Eh)            E(eV) 
   0   2.0000     -18.812745      -511.9208 
   1   2.0000     -18.808855      -511.8150 
   2   2.0000     -18.753906      -510.3197 
   3   2.0000     -18.747490      -510.1451 
   4   2.0000     -13.980169      -380.4197 
   5   2.0000     -10.033808      -273.0338 
   6   2.0000     -10.024444      -272.7790 
   7   2.0000      -9.947470      -270.6844 
   8   2.0000      -9.918321      -269.8912 
   9   2.0000      -9.914455      -269.7860 
  10   2.0000      -1.022986       -27.8369 
  11   2.0000      -1.016254       -27.6537 
  12   2.0000      -0.932794       -25.3826 
  13   2.0000      -0.926852       -25.2209 
  14   2.0000      -0.813559       -22.1381 
  15   2.0000      -0.720836       -19.6149 
  16   2.0000      -0.650772       -17.7084 
  17   2.0000      -0.601432       -16.3658 
  18   2.0000      -0.559024       -15.2118 
  19   2.0000      -0.515271       -14.0212 
  20   2.0000      -0.467314       -12.7163 
  21   2.0000      -0.448324       -12.1995 
  22   2.0000      -0.430021       -11.7015 
  23   2.0000      -0.417874       -11.3709 
  24   2.0000      -0.415141       -11.2965 
  25   2.0000      -0.408260       -11.1093 
  26   2.0000      -0.376535       -10.2460 
  27   2.0000      -0.372284       -10.1304 
  28   2.0000      -0.361842        -9.8462 
  29   2.0000      -0.350587        -9.5399 
  30   2.0000      -0.331629        -9.0241 
  31   2.0000      -0.316098        -8.6015 
  32   2.0000      -0.308834        -8.4038 
  33   2.0000      -0.298018        -8.1095 
  34   2.0000      -0.272321        -7.4102 
  35   2.0000      -0.267191        -7.2706 
  36   2.0000      -0.238616        -6.4931 
  37   2.0000      -0.224216        -6.1012 
  38   2.0000      -0.181045        -4.9265 
  39   0.0000      -0.018003        -0.4899 
  40   0.0000      -0.011211        -0.3051 
  41   0.0000       0.050838         1.3834 
  42   0.0000       0.059941         1.6311 
  43   0.0000       0.082550         2.2463 
  44   0.0000       0.107498         2.9252 
  45   0.0000       0.125311         3.4099 
  46   0.0000       0.129531         3.5247 
  47   0.0000       0.152549         4.1511 
  48   0.0000       0.165464         4.5025 
  49   0.0000       0.170468         4.6387 
*Only the first 10 virtual orbitals were printed.

                    ********************************
                    * MULLIKEN POPULATION ANALYSIS *
                    ********************************

-----------------------
MULLIKEN ATOMIC CHARGES
-----------------------
   0 C :    0.519024
   1 C :   -0.260308
   2 H :    0.256230
   3 H :    0.246531
   4 O :   -0.442643
   5 C :   -0.191283
   6 H :    0.131451
   7 H :    0.145512
   8 C :   -0.070633
   9 H :    0.139244
  10 H :    0.120768
  11 C :    0.528505
  12 O :   -0.434393
  13 N :   -0.570278
  14 H :    0.320486
  15 O :   -0.458616
  16 H :    0.136046
  17 O :   -0.434151
  18 H :    0.318506
Sum of atomic charges:    0.0000000

--------------------------------
MULLIKEN REDUCED ORBITAL CHARGES
--------------------------------
  0 C s       :     2.986221  s :     2.986221
      pz      :     0.804010  p :     2.366940
      px      :     0.776571
      py      :     0.786359
      dz2     :     0.029770  d :     0.127815
      dxz     :     0.022948
      dyz     :     0.050440
      dx2y2   :     0.011919
      dxy     :     0.012738

  1 C s       :     3.243933  s :     3.243933
      pz      :     0.997910  p :     2.982093
      px      :     0.987986
      py      :     0.996197
      dz2     :     0.005044  d :     0.034282
      dxz     :     0.007234
      dyz     :     0.008606
      dx2y2   :     0.007176
      dxy     :     0.006222

  2 H s       :     0.719241  s :     0.719241
      pz      :     0.006772  p :     0.024529
      px      :     0.010556
      py      :     0.007200

  3 H s       :     0.729509  s :     0.729509
      pz      :     0.008927  p :     0.023960
      px      :     0.007418
      py      :     0.007615

  4 O s       :     3.822461  s :     3.822461
      pz      :     1.613383  p :     4.597109
      px      :     1.746826
      py      :     1.236900
      dz2     :     0.003814  d :     0.023072
      dxz     :     0.003319
      dyz     :     0.010417
      dx2y2   :     0.002947
      dxy     :     0.002575

  5 C s       :     3.227793  s :     3.227793
      pz      :     0.975669  p :     2.927609
      px      :     0.898706
      py      :     1.053234
      dz2     :     0.005043  d :     0.035881
      dxz     :     0.007603
      dyz     :     0.009187
      dx2y2   :     0.008539
      dxy     :     0.005507

  6 H s       :     0.856919  s :     0.856919
      pz      :     0.005574  p :     0.011630
      px      :     0.003418
      py      :     0.002638

  7 H s       :     0.842814  s :     0.842814
      pz      :     0.002959  p :     0.011674
      px      :     0.003032
      py      :     0.005683

  8 C s       :     3.206440  s :     3.206440
      pz      :     0.920891  p :     2.807090
      px      :     1.022624
      py      :     0.863575
      dz2     :     0.011188  d :     0.057103
      dxz     :     0.008747
      dyz     :     0.014824
      dx2y2   :     0.013760
      dxy     :     0.008584

  9 H s       :     0.849013  s :     0.849013
      pz      :     0.003093  p :     0.011742
      px      :     0.002898
      py      :     0.005752

 10 H s       :     0.867730  s :     0.867730
      pz      :     0.003991  p :     0.011502
      px      :     0.002476
      py      :     0.005035

 11 C s       :     2.982025  s :     2.982025
      pz      :     0.727168  p :     2.364199
      px      :     0.776180
      py      :     0.860850
      dz2     :     0.037482  d :     0.125271
      dxz     :     0.017680
      dyz     :     0.036745
      dx2y2   :     0.016040
      dxy     :     0.017325

 12 O s       :     3.863259  s :     3.863259
      pz      :     1.689764  p :     4.543208
      px      :     1.440712
      py      :     1.412733
      dz2     :     0.003829  d :     0.027925
      dxz     :     0.001873
      dyz     :     0.007565
      dx2y2   :     0.006101
      dxy     :     0.008557

 13 N s       :     3.589438  s :     3.589438
      pz      :     1.303940  p :     3.952607
      px      :     1.178500
      py      :     1.470166
      dz2     :     0.003369  d :     0.028234
      dxz     :     0.010142
      dyz     :     0.004793
      dx2y2   :     0.004492
      dxy     :     0.005439

 14 H s       :     0.641523  s :     0.641523
      pz      :     0.013924  p :     0.037990
      px      :     0.009201
      py      :     0.014866

 15 O s       :     3.825577  s :     3.825577
      pz      :     1.316806  p :     4.609973
      px      :     1.756164
      py      :     1.537002
      dz2     :     0.005971  d :     0.023065
      dxz     :     0.003946
      dyz     :     0.007061
      dx2y2   :     0.004208
      dxy     :     0.001880

 16 H s       :     0.852797  s :     0.852797
      pz      :     0.002718  p :     0.011157
      px      :     0.005823
      py      :     0.002616

 17 O s       :     3.866764  s :     3.866764
      pz      :     1.344494  p :     4.539711
      px      :     1.442760
      py      :     1.752458
      dz2     :     0.009708  d :     0.027675
      dxz     :     0.010095
      dyz     :     0.007262
      dx2y2   :     0.000335
      dxy     :     0.000275

 18 H s       :     0.643401  s :     0.643401
      pz      :     0.010408  p :     0.038093
      px      :     0.009444
      py      :     0.018241



                     *******************************
                     * LOEWDIN POPULATION ANALYSIS *
                     *******************************

----------------------
LOEWDIN ATOMIC CHARGES
----------------------
   0 C :    0.121364
   1 C :   -0.145146
   2 H :    0.125476
   3 H :    0.127397
   4 O :   -0.120872
   5 C :   -0.106980
   6 H :    0.087926
   7 H :    0.091070
   8 C :   -0.052372
   9 H :    0.083842
  10 H :    0.079333
  11 C :    0.100535
  12 O :   -0.231318
  13 N :   -0.254124
  14 H :    0.184659
  15 O :   -0.133006
  16 H :    0.091848
  17 O :   -0.232353
  18 H :    0.182719

-------------------------------
LOEWDIN REDUCED ORBITAL CHARGES
-------------------------------
  0 C s       :     2.846812  s :     2.846812
      pz      :     1.023840  p :     2.730254
      px      :     0.782232
      py      :     0.924182
      dz2     :     0.073087  d :     0.301570
      dxz     :     0.048816
      dyz     :     0.126025
      dx2y2   :     0.027135
      dxy     :     0.026507

  1 C s       :     2.905461  s :     2.905461
      pz      :     1.058435  p :     3.162494
      px      :     1.048106
      py      :     1.055952
      dz2     :     0.011530  d :     0.077191
      dxz     :     0.015044
      dyz     :     0.020650
      dx2y2   :     0.017574
      dxy     :     0.012392

  2 H s       :     0.792218  s :     0.792218
      pz      :     0.021671  p :     0.082305
      px      :     0.037908
      py      :     0.022726

  3 H s       :     0.793105  s :     0.793105
      pz      :     0.031709  p :     0.079498
      px      :     0.024947
      py      :     0.022843

  4 O s       :     3.464896  s :     3.464896
      pz      :     1.619004  p :     4.604614
      px      :     1.709284
      py      :     1.276325
      dz2     :     0.006335  d :     0.051362
      dxz     :     0.003607
      dyz     :     0.023925
      dx2y2   :     0.011041
      dxy     :     0.006454

  5 C s       :     2.902141  s :     2.902141
      pz      :     1.039978  p :     3.124839
      px      :     0.997111
      py      :     1.087750
      dz2     :     0.012258  d :     0.080000
      dxz     :     0.018206
      dyz     :     0.018476
      dx2y2   :     0.020103
      dxy     :     0.010957

  6 H s       :     0.871207  s :     0.871207
      pz      :     0.021682  p :     0.040867
      px      :     0.011363
      py      :     0.007822

  7 H s       :     0.867814  s :     0.867814
      pz      :     0.009315  p :     0.041116
      px      :     0.009796
      py      :     0.022005

  8 C s       :     2.883647  s :     2.883647
      pz      :     1.009658  p :     3.038850
      px      :     1.047808
      py      :     0.981384
      dz2     :     0.024196  d :     0.129874
      dxz     :     0.020785
      dyz     :     0.035441
      dx2y2   :     0.031100
      dxy     :     0.018353

  9 H s       :     0.874609  s :     0.874609
      pz      :     0.010615  p :     0.041549
      px      :     0.009350
      py      :     0.021584

 10 H s       :     0.880708  s :     0.880708
      pz      :     0.014258  p :     0.039960
      px      :     0.007136
      py      :     0.018566

 11 C s       :     2.860790  s :     2.860790
      pz      :     0.907639  p :     2.739717
      px      :     0.785825
      py      :     1.046253
      dz2     :     0.093192  d :     0.298958
      dxz     :     0.037981
      dyz     :     0.092210
      dx2y2   :     0.039836
      dxy     :     0.035739

 12 O s       :     3.552634  s :     3.552634
      pz      :     1.688472  p :     4.620669
      px      :     1.425835
      py      :     1.506362
      dz2     :     0.008507  d :     0.058015
      dxz     :     0.002685
      dyz     :     0.017911
      dx2y2   :     0.017006
      dxy     :     0.011905

 13 N s       :     3.192536  s :     3.192536
      pz      :     1.325705  p :     4.004068
      px      :     1.199598
      py      :     1.478765
      dz2     :     0.006239  d :     0.057519
      dxz     :     0.019465
      dyz     :     0.010619
      dx2y2   :     0.009988
      dxy     :     0.011209

 14 H s       :     0.699916  s :     0.699916
      pz      :     0.044764  p :     0.115425
      px      :     0.025833
      py      :     0.044828

 15 O s       :     3.465155  s :     3.465155
      pz      :     1.356746  p :     4.616487
      px      :     1.719110
      py      :     1.540631
      dz2     :     0.018085  d :     0.051363
      dxz     :     0.008014
      dyz     :     0.016904
      dx2y2   :     0.006645
      dxy     :     0.001716

 16 H s       :     0.869606  s :     0.869606
      pz      :     0.008686  p :     0.038546
      px      :     0.022011
      py      :     0.007848

 17 O s       :     3.553901  s :     3.553901
      pz      :     1.461823  p :     4.621023
      px      :     1.426346
      py      :     1.732853
      dz2     :     0.027841  d :     0.057430
      dxz     :     0.014226
      dyz     :     0.014374
      dx2y2   :     0.000552
      dxy     :     0.000437

 18 H s       :     0.701285  s :     0.701285
      pz      :     0.030139  p :     0.115996
      px      :     0.026578
      py      :     0.059278



                      *****************************
                      * MAYER POPULATION ANALYSIS *
                      *****************************

  NA   - Mulliken gross atomic population
  ZA   - Total nuclear charge
  QA   - Mulliken gross atomic charge
  VA   - Mayer's total valence
  BVA  - Mayer's bonded valence
  FA   - Mayer's free valence

  ATOM       NA         ZA         QA         VA         BVA        FA
  0 C      5.4810     6.0000     0.5190     3.9906     3.9906    -0.0000
  1 C      6.2603     6.0000    -0.2603     3.8384     3.8384     0.0000
  2 H      0.7438     1.0000     0.2562     0.9390     0.9390    -0.0000
  3 H      0.7535     1.0000     0.2465     0.9248     0.9248    -0.0000
  4 O      8.4426     8.0000    -0.4426     2.0759     2.0759    -0.0000
  5 C      6.1913     6.0000    -0.1913     3.8790     3.8790     0.0000
  6 H      0.8685     1.0000     0.1315     0.9533     0.9533    -0.0000
  7 H      0.8545     1.0000     0.1455     0.9545     0.9545     0.0000
  8 C      6.0706     6.0000    -0.0706     3.8867     3.8867     0.0000
  9 H      0.8608     1.0000     0.1392     0.9582     0.9582     0.0000
 10 H      0.8792     1.0000     0.1208     0.9516     0.9516     0.0000
 11 C      5.4715     6.0000     0.5285     3.9432     3.9432     0.0000
 12 O      8.4344     8.0000    -0.4344     2.0759     2.0759     0.0000
 13 N      7.5703     7.0000    -0.5703     2.8780     2.8780    -0.0000
 14 H      0.6795     1.0000     0.3205     0.9158     0.9158     0.0000
 15 O      8.4586     8.0000    -0.4586     2.0593     2.0593     0.0000
 16 H      0.8640     1.0000     0.1360     0.9452     0.9452    -0.0000
 17 O      8.4342     8.0000    -0.4342     2.0804     2.0804     0.0000
 18 H      0.6815     1.0000     0.3185     0.9182     0.9182     0.0000

  Mayer bond orders larger than 0.100000
B(  0-C ,  1-C ) :   0.9637 B(  0-C ,  4-O ) :   1.1269 B(  0-C , 17-O ) :   1.8381 
B(  1-C ,  5-C ) :   0.9961 B(  1-C ,  6-H ) :   0.9331 B(  1-C ,  7-H ) :   0.9314 
B(  2-H , 13-N ) :   0.8800 B(  3-H , 13-N ) :   0.9033 B(  4-O , 14-H ) :   0.8525 
B(  5-C ,  8-C ) :   0.9807 B(  5-C ,  9-H ) :   0.9316 B(  5-C , 10-H ) :   0.9422 
B(  8-C , 11-C ) :   0.9011 B(  8-C , 13-N ) :   1.0381 B(  8-C , 16-H ) :   0.9266 
B( 11-C , 12-O ) :   1.8571 B( 11-C , 15-O ) :   1.1024 B( 15-O , 18-H ) :   0.8532 


-------
TIMINGS
-------

Total SCF time: 0 days 0 hours 0 min 8 sec 

Total time                  ....       8.282 sec
Sum of individual times     ....       7.817 sec  ( 94.4%)

SCF preparation             ....       0.028 sec  (  0.3%)
Fock matrix formation       ....       7.725 sec  ( 93.3%)
  Startup                   ....       0.001 sec  (  0.0% of F)
  Split-RI-J                ....       2.736 sec  ( 35.4% of F)
  XC integration            ....       5.379 sec  ( 69.6% of F)
    XC Preparation          ....       0.000 sec  (  0.0% of XC)
    Basis function eval.    ....       1.919 sec  ( 35.7% of XC)
    Density eval.           ....       1.195 sec  ( 22.2% of XC)
    XC-Functional eval.     ....       0.925 sec  ( 17.2% of XC)
    XC-Potential eval.      ....       1.206 sec  ( 22.4% of XC)
Diagonalization             ....       0.000 sec  (  0.0%)
Density matrix formation    ....       0.006 sec  (  0.1%)
Total Energy calculation    ....       0.001 sec  (  0.0%)
Population analysis         ....       0.002 sec  (  0.0%)
Orbital Transformation      ....       0.006 sec  (  0.1%)
Orbital Orthonormalization  ....       0.000 sec  (  0.0%)
DIIS solution               ....       0.025 sec  (  0.3%)
SOSCF solution              ....       0.024 sec  (  0.3%)
Finished LeanSCF after   8.3 sec

Maximum memory used throughout the entire LEANSCF-calculation: 21.0 MB



-------------------------------------------------------------------------------
                          DFT DISPERSION CORRECTION                            
-------------------------------------------------------------------------------
Active option DFTDOPT                   ...         2   
Final C6-coefficient scaling factor     ...     1.250
Final VDW-radii scaling factor          ...     1.100
Damping factor alpha                    ...    20.000
-------------------------   ----------------
Dispersion correction           -0.030051826
-------------------------   ----------------


-------------------------   --------------------
FINAL SINGLE POINT ENERGY      -551.283166058448
-------------------------   --------------------

------------------------------------------------------------------------------
                         ORCA SCF GRADIENT CALCULATION
------------------------------------------------------------------------------

Nuc. rep. gradient        (SHARK) ... done (  0.0 sec)
HCore & Overlap gradient  (SHARK) ... done (  0.1 sec)
Split-RIJ-J gradient      (SHARK) ... done (  0.7 sec)
XC gradient                       ... done (  2.6 sec)
Dispersion correction             ... done (  0.0 sec)

-------------------
DISPERSION GRADIENT
-------------------

   1   C   :   -0.000013084   -0.000020108   -0.000639079
   2   C   :    0.000512954    0.000100624   -0.000439616
   3   H   :    0.000222200    0.000942350    0.001227283
   4   H   :   -0.000352169    0.000755239    0.000432863
   5   O   :   -0.000901009   -0.000278289   -0.000013517
   6   C   :   -0.000030992    0.000123796    0.000217655
   7   H   :   -0.000328757    0.000176901    0.000728512
   8   H   :   -0.001052458   -0.000548225   -0.001217703
   9   C   :   -0.000224631   -0.000291523   -0.000422986
  10   H   :    0.000286020    0.000804129   -0.000450308
  11   H   :    0.000234566   -0.000547512   -0.000533610
  12   C   :   -0.000435559    0.000151376   -0.000054095
  13   O   :    0.000839195    0.000037173    0.000614879
  14   N   :    0.001183437   -0.000279438    0.000243349
  15   H   :   -0.000191476    0.000104245    0.000287928
  16   O   :    0.000554971   -0.000159133    0.000219408
  17   H   :    0.000297294    0.000105118   -0.000056223
  18   O   :   -0.000743166   -0.000848137    0.000074119
  19   H   :    0.000142662   -0.000328589   -0.000218859

Difference to translation invariance:
           :   -0.0000000000   -0.0000000000   -0.0000000000

Difference to rotation invariance:
           :    0.0000000000   -0.0000000000   -0.0000000000

Norm of the Dispersion gradient    ...    0.0039376582
RMS gradient                       ...    0.0005215556
MAX gradient                       ...    0.0012272827

------------------
CARTESIAN GRADIENT
------------------

   1   C   :    0.008234324   -0.006283456    0.011466045
   2   C   :   -0.000615827    0.003678698    0.003198671
   3   H   :    0.000964865    0.002808636   -0.002261999
   4   H   :   -0.001651164    0.000462773   -0.002730408
   5   O   :    0.005338454    0.018954263    0.023174089
   6   C   :   -0.003480925    0.000662490   -0.000121962
   7   H   :    0.002940457   -0.001423073    0.005439218
   8   H   :    0.002566919   -0.003323908   -0.002582942
   9   C   :   -0.000558409   -0.002214978   -0.002772497
  10   H   :   -0.001386608    0.002959023    0.003329646
  11   H   :   -0.001028519   -0.004576579    0.003272002
  12   C   :   -0.004648378   -0.008991713    0.001747705
  13   O   :   -0.001861460    0.030917130    0.014930485
  14   N   :    0.003462046   -0.015326413    0.004108530
  15   H   :   -0.001452091   -0.002122545   -0.006859648
  16   O   :   -0.005136150   -0.014933458   -0.024424445
  17   H   :   -0.002375459   -0.000532680    0.000975345
  18   O   :    0.000545551   -0.006443937   -0.034022841
  19   H   :    0.000142374    0.005729727    0.004135005

Difference to translation invariance:
           :   -0.0000000000   -0.0000000000   -0.0000000000

Difference to rotation invariance:
           :    0.0004716159    0.0001708534   -0.0001049736

Norm of the Cartesian gradient     ...    0.0711610192
RMS gradient                       ...    0.0094255072
MAX gradient                       ...    0.0340228412

-------
TIMINGS
-------

Total SCF gradient time     ....        3.368 sec

Densities                   ....       0.000 sec  (  0.0%)
One electron gradient       ....       0.121 sec  (  3.6%)
RI-J Coulomb gradient       ....       0.664 sec  ( 19.7%)
XC gradient                 ....       2.583 sec  ( 76.7%)

Maximum memory used throughout the entire SCFGRAD-calculation: 26.9 MB
------------------------------------------------------------------------------
                         ORCA GEOMETRY RELAXATION STEP
------------------------------------------------------------------------------

Reading the OPT-File                    .... done
Getting information on internals        .... done
Copying old internal coords+grads       .... done
Making the new internal coordinates     .... (2022 redundants) done
Validating the new internal coordinates .... (2022 redundants) done
Calculating the B-matrix                .... done
Calculating the G,G- and P matrices     .... done
Transforming gradient to internals      .... done
Projecting the internal gradient        .... done
Number of atoms                         ....  19
Number of internal coordinates          ....  79
Current Energy                          ....  -551.283166058 Eh
Current gradient norm                   ....     0.071161019 Eh/bohr
Maximum allowed component of the step   ....  0.300
Current trust radius                    ....  0.300
Evaluating the initial hessian          ....  (Almloef) done
Projecting the Hessian                  .... done
Forming the augmented Hessian           .... done
Diagonalizing the augmented Hessian     .... done
Last element of RFO vector              ....  0.925638921
Lowest eigenvalues of augmented Hessian:
 -0.017472627  0.010165147  0.010337561  0.011525886  0.012990983
Length of the computed step             ....  0.408807320
Warning: the length of the step is outside the trust region - taking restricted step instead
The input lambda is                     ....     0.009128
   iter:   5  x=   -0.001676  g=  217.003083 f(x)=     0.951650
   iter:  10  x=   -0.036636  g=    2.353878 f(x)=     0.003881
The output lambda is                    ....    -0.036707 (14 iterations)
The final length of the internal step   ....  0.300000000
Converting the step to Cartesian space:
 Initial RMS(Int)=    0.0337526370
Transforming coordinates:
 Iter   0:  RMS(Cart)=    0.2083694450 RMS(Int)=    0.0363783550
 Iter   5:  RMS(Cart)=    0.0000030727 RMS(Int)=    0.0000023946
done
Storing new coordinates                 .... done

                                .--------------------.
          ----------------------|Geometry convergence|-------------------------
          Item                value                   Tolerance       Converged
          ---------------------------------------------------------------------
          RMS gradient        0.0089246255            0.0001000000      NO
          MAX gradient        0.0351022847            0.0003000000      NO
          RMS step            0.0337526370            0.0020000000      NO
          MAX step            0.1321745040            0.0040000000      NO
          -------------------------------------------------------------------------
          ........................................................
          Max(Bonds)      0.0222      Max(Angles)    3.90
          Max(Dihed)        7.57      Max(Improp)    0.00
          ---------------------------------------------------------------------

The optimization has not yet converged - more geometry cycles are needed


    ---------------------------------------------------------------------------
                         Redundant Internal Coordinates
                            (Angstroem and degrees)

        Definition                    Value    dE/dq     Step     New-Value
    ----------------------------------------------------------------------------
     1. B(C   1,C   0)                1.5059 -0.005999  0.0097    1.5156   
     2. B(O   4,C   0)                1.3293 -0.022706  0.0163    1.3456   
     3. B(C   5,C   1)                1.5363 -0.015231  0.0222    1.5586   
     4. B(H   6,C   1)                1.0891 -0.005675  0.0075    1.0967   
     5. B(H   7,C   1)                1.0896 -0.004733  0.0063    1.0959   
     6. B(C   8,C   5)                1.5367 -0.009958  0.0148    1.5515   
     7. B(H   9,C   5)                1.0910 -0.004384  0.0059    1.0968   
     8. B(H  10,C   5)                1.0893 -0.005706  0.0076    1.0969   
     9. B(C  11,C   8)                1.5314 -0.014240  0.0185    1.5498   
    10. B(O  12,C  11)                1.2036 -0.034322  0.0158    1.2195   
    11. B(N  13,C   8)                1.4503 -0.008287  0.0107    1.4609   
    12. B(N  13,H   3)                1.0138 -0.002903  0.0033    1.0171   
    13. B(N  13,H   2)                1.0164 -0.005667  0.0042    1.0206   
    14. B(H  14,O   4)                0.9703 -0.002954  0.0029    0.9732   
    15. B(O  15,C  11)                1.3341 -0.022037  0.0161    1.3502   
    16. B(H  16,C   8)                1.0997 -0.002601  0.0036    1.1033   
    17. B(O  17,H   2)                2.3660 -0.004364  0.0144    2.3803   
    18. B(O  17,C   0)                1.2062 -0.035102  0.0161    1.2224   
    19. B(H  18,O  15)                0.9696 -0.002950  0.0029    0.9725   
    20. A(O   4,C   0,O  17)          122.87 -0.006645    0.50    123.37   
    21. A(C   1,C   0,O  17)          124.83  0.007822   -0.37    124.46   
    22. A(C   1,C   0,O   4)          112.30 -0.001174   -0.11    112.18   
    23. A(C   0,C   1,H   6)          109.01  0.001048   -0.16    108.86   
    24. A(C   0,C   1,H   7)          109.31  0.010112   -1.36    107.95   
    25. A(C   5,C   1,H   7)          109.26  0.003973   -0.65    108.60   
    26. A(H   6,C   1,H   7)          110.17 -0.001092   -0.71    109.46   
    27. A(C   0,C   1,C   5)          109.93 -0.020821    3.90    113.83   
    28. A(C   5,C   1,H   6)          109.15  0.006610   -1.00    108.16   
    29. A(C   0,O   4,H  14)          111.15  0.012262   -1.70    109.45   
    30. A(C   8,C   5,H  10)          108.69  0.004490   -1.46    107.23   
    31. A(C   1,C   5,H  10)          108.15  0.008828   -2.02    106.13   
    32. A(C   8,C   5,H   9)          108.07  0.005678   -0.12    107.95   
    33. A(H   9,C   5,H  10)          109.15 -0.002690   -0.48    108.66   
    34. A(C   1,C   5,H   9)          109.51 -0.002348    0.54    110.06   
    35. A(C   1,C   5,C   8)          113.21 -0.013792    3.43    116.64   
    36. A(C   5,C   8,C  11)          110.28 -0.007230    1.65    111.93   
    37. A(N  13,C   8,H  16)          107.83  0.000956   -0.95    106.89   
    38. A(C  11,C   8,H  16)          105.34  0.001548   -0.93    104.42   
    39. A(C   5,C   8,H  16)          107.56  0.000754   -0.91    106.64   
    40. A(C  11,C   8,N  13)          113.87 -0.004356    1.62    115.49   
    41. A(C   5,C   8,N  13)          111.54  0.008413   -0.72    110.82   
    42. A(C   8,C  11,O  12)          125.28  0.000317   -0.05    125.23   
    43. A(O  12,C  11,O  15)          122.82 -0.001348    0.13    122.95   
    44. A(C   8,C  11,O  15)          111.87  0.001115   -0.16    111.71   
    45. A(H   3,N  13,C   8)          110.06  0.000535   -0.32    109.74   
    46. A(H   2,N  13,C   8)          109.13  0.008531   -0.86    108.27   
    47. A(H   2,N  13,H   3)          106.84 -0.000978   -0.38    106.46   
    48. A(C  11,O  15,H  18)          110.56  0.011757   -1.64    108.92   
    49. D(C   5,C   1,C   0,O  17)     83.62  0.000320    1.75     85.37   
    50. D(H   6,C   1,C   0,O  17)   -156.77 -0.003500    2.78   -153.99   
    51. D(H   6,C   1,C   0,O   4)     24.23 -0.003580    1.79     26.02   
    52. D(H   7,C   1,C   0,O   4)    144.71  0.001853    0.00    144.71   
    53. D(C   5,C   1,C   0,O   4)    -95.38  0.000240    0.75    -94.62   
    54. D(H  14,O   4,C   0,O  17)     -4.94  0.000168   -0.71     -5.64   
    55. D(H  14,O   4,C   0,C   1)    174.09  0.000413    0.25    174.34   
    56. D(H   9,C   5,C   1,H   7)   -175.34 -0.005065    2.50   -172.84   
    57. D(H   9,C   5,C   1,H   6)    -54.81  0.000056    0.62    -54.19   
    58. D(H   9,C   5,C   1,C   0)     64.71 -0.007194    2.18     66.89   
    59. D(C   8,C   5,C   1,H   7)     63.99 -0.001457   -0.02     63.98   
    60. D(C   8,C   5,C   1,H   6)   -175.47  0.003665   -1.90   -177.37   
    61. D(C   8,C   5,C   1,C   0)    -55.95 -0.003585   -0.34    -56.29   
    62. D(C  11,C   8,C   5,H   9)    -43.70 -0.004698    4.76    -38.94   
    63. D(C  11,C   8,C   5,C   1)     77.78 -0.012577    7.57     85.35   
    64. D(N  13,C   8,C   5,H  10)     70.40 -0.002218    3.33     73.73   
    65. D(N  13,C   8,C   5,H   9)   -171.27  0.000240    1.88   -169.39   
    66. D(N  13,C   8,C   5,C   1)    -49.79 -0.007638    4.70    -45.09   
    67. D(C  11,C   8,C   5,H  10)   -162.03 -0.007156    6.21   -155.83   
    68. D(O  15,C  11,C   8,N  13)    -29.78  0.002397   -0.71    -30.50   
    69. D(O  15,C  11,C   8,C   5)   -156.06  0.000422   -2.36   -158.42   
    70. D(O  12,C  11,C   8,H  16)    -89.85 -0.000454    1.04    -88.81   
    71. D(O  12,C  11,C   8,N  13)    152.20 -0.000249    1.91    154.11   
    72. D(O  12,C  11,C   8,C   5)     25.93 -0.002224    0.26     26.19   
    73. D(H   3,N  13,C   8,C  11)     65.61  0.004765   -1.74     63.86   
    74. D(H   3,N  13,C   8,C   5)   -168.78 -0.001579    1.19   -167.59   
    75. D(H   2,N  13,C   8,H  16)   -167.84  0.000626    0.23   -167.61   
    76. D(H   2,N  13,C   8,C  11)    -51.34  0.000642   -0.60    -51.93   
    77. D(H   2,N  13,C   8,C   5)     74.27 -0.005702    2.34     76.61   
    78. D(H  18,O  15,C  11,O  12)     -4.06  0.000863   -0.93     -4.99   
    79. D(H  18,O  15,C  11,C   8)    177.87 -0.001743    1.63    179.49   
    ----------------------------------------------------------------------------

Geometry step timings:
Preparation and reading OPT file:      0.000 s ( 0.951 %)
Internal coordinates            :      0.000 s ( 0.951 %)
B/P matrices and projection     :      0.000 s (31.046 %)
Hessian update/contruction      :      0.000 s ( 8.696 %)
Making the step                 :      0.001 s (42.595 %)
Converting the step to Cartesian:      0.000 s ( 3.533 %)
Storing new data                :      0.000 s ( 1.019 %)
Checking convergence            :      0.000 s ( 0.951 %)
Final printing                  :      0.000 s (10.258 %)
Total time                      :      0.001 s

Time for energy+gradient        :     12.492 s
Time for complete geometry iter :     12.507 s

         *************************************************************
         *                GEOMETRY OPTIMIZATION CYCLE   2            *
         *************************************************************
---------------------------------
CARTESIAN COORDINATES (ANGSTROEM)
---------------------------------
  C     -2.949721   -0.044655    0.056840
  C     -2.551234    1.018749   -0.945702
  H     -1.636362    2.062797    1.446922
  H     -0.205549    2.812391    1.688189
  O     -3.206604   -1.227924   -0.530058
  C     -1.010419    1.165196   -1.124151
  H     -2.986320    0.769621   -1.921036
  H     -2.956013    1.976631   -0.599833
  C     -0.193072    1.455392    0.161776
  H     -0.596098    0.262813   -1.590086
  H     -0.860432    2.012812   -1.804073
  C      0.174885    0.154903    0.920306
  O      0.292895   -0.946745    0.410840
  N     -0.842694    2.487827    0.964833
  H     -3.369848   -1.900373    0.154250
  O      0.452530    0.396383    2.219412
  H      0.776830    1.866619   -0.166084
  O     -3.031127    0.141408    1.262398
  H      0.669377   -0.444522    2.657153

----------------------------
CARTESIAN COORDINATES (A.U.)
----------------------------
  NO LB      ZA    FRAG     MASS         X           Y           Z
   0 C     6.0000    0    12.011   -5.574164   -0.084385    0.107413
   1 C     6.0000    0    12.011   -4.821134    1.925157   -1.787117
   2 H     1.0000    0     1.008   -3.092275    3.898122    2.734286
   3 H     1.0000    0     1.008   -0.388431    5.314650    3.190215
   4 O     8.0000    0    15.999   -6.059603   -2.320440   -1.001665
   5 C     6.0000    0    12.011   -1.909415    2.201902   -2.124338
   6 H     1.0000    0     1.008   -5.643328    1.454372   -3.630233
   7 H     1.0000    0     1.008   -5.586055    3.735291   -1.133520
   8 C     6.0000    0    12.011   -0.364853    2.750292    0.305712
   9 H     1.0000    0     1.008   -1.126462    0.496644   -3.004828
  10 H     1.0000    0     1.008   -1.625982    3.803664   -3.409203
  11 C     6.0000    0    12.011    0.330484    0.292724    1.739127
  12 O     8.0000    0    15.999    0.553491   -1.789090    0.776376
  13 N     7.0000    0    14.007   -1.592460    4.701311    1.823270
  14 H     1.0000    0     1.008   -6.368090   -3.591184    0.291490
  15 O     8.0000    0    15.999    0.855157    0.749055    4.194081
  16 H     1.0000    0     1.008    1.467996    3.527399   -0.313853
  17 O     8.0000    0    15.999   -5.728000    0.267222    2.385587
  18 H     1.0000    0     1.008    1.264940   -0.840025    5.021291

--------------------------------
INTERNAL COORDINATES (ANGSTROEM)
--------------------------------
 C      0   0   0     0.000000000000     0.00000000     0.00000000
[...]
      pz      :     0.916462  p :     2.793851
      px      :     1.008532
      py      :     0.868856
      dz2     :     0.010840  d :     0.055412
      dxz     :     0.008734
      dyz     :     0.013868
      dx2y2   :     0.012287
      dxy     :     0.009682

  9 H s       :     0.849668  s :     0.849668
      pz      :     0.003022  p :     0.011571
      px      :     0.002869
      py      :     0.005680

 10 H s       :     0.867545  s :     0.867545
      pz      :     0.003953  p :     0.011323
      px      :     0.002437
      py      :     0.004933

 11 C s       :     3.005863  s :     3.005863
      pz      :     0.724376  p :     2.349098
      px      :     0.780034
      py      :     0.844687
      dz2     :     0.033012  d :     0.117378
      dxz     :     0.015758
      dyz     :     0.034512
      dx2y2   :     0.016008
      dxy     :     0.018089

 12 O s       :     3.877309  s :     3.877309
      pz      :     1.675382  p :     4.529028
      px      :     1.455577
      py      :     1.398070
      dz2     :     0.003718  d :     0.027212
      dxz     :     0.001614
      dyz     :     0.007508
      dx2y2   :     0.006102
      dxy     :     0.008269

 13 N s       :     3.617511  s :     3.617511
      pz      :     1.295771  p :     3.927251
      px      :     1.183068
      py      :     1.448412
      dz2     :     0.003644  d :     0.028746
      dxz     :     0.009919
      dyz     :     0.004975
      dx2y2   :     0.003959
      dxy     :     0.006248

 14 H s       :     0.641059  s :     0.641059
      pz      :     0.015287  p :     0.037464
      px      :     0.009225
      py      :     0.012952

 15 O s       :     3.842350  s :     3.842350
      pz      :     1.354301  p :     4.603531
      px      :     1.730272
      py      :     1.518958
      dz2     :     0.006340  d :     0.023286
      dxz     :     0.003729
      dyz     :     0.006335
      dx2y2   :     0.004401
      dxy     :     0.002480

 16 H s       :     0.850052  s :     0.850052
      pz      :     0.002687  p :     0.011086
      px      :     0.005629
      py      :     0.002771

 17 O s       :     3.880012  s :     3.880012
      pz      :     1.338075  p :     4.533522
      px      :     1.455472
      py      :     1.739975
      dz2     :     0.009526  d :     0.026665
      dxz     :     0.009500
      dyz     :     0.007091
      dx2y2   :     0.000262
      dxy     :     0.000287

 18 H s       :     0.641722  s :     0.641722
      pz      :     0.009348  p :     0.037560
      px      :     0.009542
      py      :     0.018670



                     *******************************
                     * LOEWDIN POPULATION ANALYSIS *
                     *******************************

----------------------
LOEWDIN ATOMIC CHARGES
----------------------
   0 C :    0.146062
   1 C :   -0.147787
   2 H :    0.128132
   3 H :    0.130115
   4 O :   -0.141807
   5 C :   -0.107583
   6 H :    0.088857
   7 H :    0.094307
   8 C :   -0.050201
   9 H :    0.084390
  10 H :    0.080995
  11 C :    0.126033
  12 O :   -0.233837
  13 N :   -0.259175
  14 H :    0.186167
  15 O :   -0.158003
  16 H :    0.093020
  17 O :   -0.244188
  18 H :    0.184503

-------------------------------
LOEWDIN REDUCED ORBITAL CHARGES
-------------------------------
  0 C s       :     2.862304  s :     2.862304
      pz      :     1.014104  p :     2.712117
      px      :     0.787458
      py      :     0.910555
      dz2     :     0.068791  d :     0.279517
      dxz     :     0.046808
      dyz     :     0.114507
      dx2y2   :     0.025670
      dxy     :     0.023740

  1 C s       :     2.913793  s :     2.913793
      pz      :     1.057155  p :     3.159177
      px      :     1.043899
      py      :     1.058123
      dz2     :     0.012601  d :     0.074817
      dxz     :     0.014259
      dyz     :     0.018860
      dx2y2   :     0.016494
      dxy     :     0.012604

  2 H s       :     0.790807  s :     0.790807
      pz      :     0.020964  p :     0.081061
      px      :     0.036413
      py      :     0.023684

  3 H s       :     0.791865  s :     0.791865
      pz      :     0.032163  p :     0.078020
      px      :     0.024109
      py      :     0.021749

  4 O s       :     3.493860  s :     3.493860
      pz      :     1.587891  p :     4.598973
      px      :     1.706315
      py      :     1.304767
      dz2     :     0.006985  d :     0.048973
      dxz     :     0.003849
      dyz     :     0.022391
      dx2y2   :     0.009446
      dxy     :     0.006301

  5 C s       :     2.910644  s :     2.910644
      pz      :     1.039125  p :     3.119918
      px      :     0.993966
      py      :     1.086827
      dz2     :     0.012531  d :     0.077021
      dxz     :     0.016663
      dyz     :     0.017727
      dx2y2   :     0.019154
      dxy     :     0.010945

  6 H s       :     0.871308  s :     0.871308
      pz      :     0.022173  p :     0.039835
      px      :     0.010376
      py      :     0.007286

  7 H s       :     0.865348  s :     0.865348
      pz      :     0.008916  p :     0.040345
      px      :     0.009449
      py      :     0.021979

  8 C s       :     2.893363  s :     2.893363
      pz      :     1.006918  p :     3.032461
      px      :     1.042445
      py      :     0.983098
      dz2     :     0.023135  d :     0.124377
      dxz     :     0.020564
      dyz     :     0.032608
      dx2y2   :     0.027064
      dxy     :     0.021006

  9 H s       :     0.874895  s :     0.874895
      pz      :     0.010211  p :     0.040715
      px      :     0.009291
      py      :     0.021212

 10 H s       :     0.880101  s :     0.880101
      pz      :     0.013958  p :     0.038905
      px      :     0.006874
      py      :     0.018073

 11 C s       :     2.877634  s :     2.877634
      pz      :     0.889463  p :     2.719645
      px      :     0.793054
      py      :     1.037127
      dz2     :     0.080654  d :     0.276687
      dxz     :     0.034305
      dyz     :     0.084894
      dx2y2   :     0.039378
      dxy     :     0.037457

 12 O s       :     3.568427  s :     3.568427
      pz      :     1.675164  p :     4.609770
      px      :     1.441602
      py      :     1.493005
      dz2     :     0.007907  d :     0.055640
      dxz     :     0.002310
      dyz     :     0.016998
      dx2y2   :     0.016846
      dxy     :     0.011580

 13 N s       :     3.217109  s :     3.217109
      pz      :     1.318330  p :     3.985628
      px      :     1.206224
      py      :     1.461074
      dz2     :     0.006339  d :     0.056439
      dxz     :     0.018708
      dyz     :     0.010496
      dx2y2   :     0.008420
      dxy     :     0.012476

 14 H s       :     0.700303  s :     0.700303
      pz      :     0.048931  p :     0.113530
      px      :     0.025982
      py      :     0.038618

 15 O s       :     3.494472  s :     3.494472
      pz      :     1.388785  p :     4.614946
      px      :     1.700886
      py      :     1.525276
      dz2     :     0.016598  d :     0.048585
      dxz     :     0.008222
      dyz     :     0.013859
      dx2y2   :     0.006930
      dxy     :     0.002977

 16 H s       :     0.868757  s :     0.868757
      pz      :     0.008432  p :     0.038223
      px      :     0.021270
      py      :     0.008520

 17 O s       :     3.570499  s :     3.570499
      pz      :     1.453656  p :     4.619097
      px      :     1.440625
      py      :     1.724816
      dz2     :     0.026941  d :     0.054592
      dxz     :     0.013280
      dyz     :     0.013505
      dx2y2   :     0.000430
      dxy     :     0.000436

 18 H s       :     0.701277  s :     0.701277
      pz      :     0.026537  p :     0.114221
      px      :     0.027058
      py      :     0.060625



                      *****************************
                      * MAYER POPULATION ANALYSIS *
                      *****************************

  NA   - Mulliken gross atomic population
  ZA   - Total nuclear charge
  QA   - Mulliken gross atomic charge
  VA   - Mayer's total valence
  BVA  - Mayer's bonded valence
  FA   - Mayer's free valence

  ATOM       NA         ZA         QA         VA         BVA        FA
  0 C      5.4720     6.0000     0.5280     3.9506     3.9506    -0.0000
  1 C      6.2650     6.0000    -0.2650     3.8403     3.8403    -0.0000
  2 H      0.7415     1.0000     0.2585     0.9379     0.9379    -0.0000
  3 H      0.7513     1.0000     0.2487     0.9223     0.9223    -0.0000
  4 O      8.4516     8.0000    -0.4516     2.0660     2.0660     0.0000
  5 C      6.1866     6.0000    -0.1866     3.8730     3.8730    -0.0000
  6 H      0.8681     1.0000     0.1319     0.9523     0.9523    -0.0000
  7 H      0.8501     1.0000     0.1499     0.9533     0.9533    -0.0000
  8 C      6.0660     6.0000    -0.0660     3.8760     3.8760    -0.0000
  9 H      0.8612     1.0000     0.1388     0.9579     0.9579    -0.0000
 10 H      0.8789     1.0000     0.1211     0.9507     0.9507    -0.0000
 11 C      5.4723     6.0000     0.5277     3.9061     3.9061    -0.0000
 12 O      8.4335     8.0000    -0.4335     2.0788     2.0788     0.0000
 13 N      7.5735     7.0000    -0.5735     2.8752     2.8752    -0.0000
 14 H      0.6785     1.0000     0.3215     0.9152     0.9152    -0.0000
 15 O      8.4692     8.0000    -0.4692     2.0457     2.0457     0.0000
 16 H      0.8611     1.0000     0.1389     0.9434     0.9434    -0.0000
 17 O      8.4402     8.0000    -0.4402     2.0749     2.0749    -0.0000
 18 H      0.6793     1.0000     0.3207     0.9170     0.9170     0.0000

  Mayer bond orders larger than 0.100000
B(  0-C ,  1-C ) :   0.9642 B(  0-C ,  4-O ) :   1.1094 B(  0-C , 17-O ) :   1.8282 
B(  1-C ,  5-C ) :   0.9952 B(  1-C ,  6-H ) :   0.9322 B(  1-C ,  7-H ) :   0.9291 
B(  2-H , 13-N ) :   0.8756 B(  3-H , 13-N ) :   0.9004 B(  4-O , 14-H ) :   0.8529 
B(  5-C ,  8-C ) :   0.9773 B(  5-C ,  9-H ) :   0.9324 B(  5-C , 10-H ) :   0.9410 
B(  8-C , 11-C ) :   0.8981 B(  8-C , 13-N ) :   1.0344 B(  8-C , 16-H ) :   0.9250 
B( 11-C , 12-O ) :   1.8554 B( 11-C , 15-O ) :   1.0821 B( 15-O , 18-H ) :   0.8520 


-------
TIMINGS
-------

Total SCF time: 0 days 0 hours 0 min 3 sec 

Total time                  ....       3.246 sec
Sum of individual times     ....       2.791 sec  ( 86.0%)

SCF preparation             ....       0.031 sec  (  1.0%)
Fock matrix formation       ....       2.729 sec  ( 84.1%)
  Startup                   ....       0.001 sec  (  0.0% of F)
  Split-RI-J                ....       1.033 sec  ( 37.9% of F)
  XC integration            ....       2.088 sec  ( 76.5% of F)
    Basis function eval.    ....       0.766 sec  ( 36.7% of XC)
    Density eval.           ....       0.472 sec  ( 22.6% of XC)
    XC-Functional eval.     ....       0.380 sec  ( 18.2% of XC)
    XC-Potential eval.      ....       0.416 sec  ( 19.9% of XC)
Diagonalization             ....       0.000 sec  (  0.0%)
Density matrix formation    ....       0.002 sec  (  0.1%)
Total Energy calculation    ....       0.000 sec  (  0.0%)
Population analysis         ....       0.010 sec  (  0.3%)
Orbital Transformation      ....       0.003 sec  (  0.1%)
Orbital Orthonormalization  ....       0.000 sec  (  0.0%)
DIIS solution               ....       0.003 sec  (  0.1%)
SOSCF solution              ....       0.013 sec  (  0.4%)
Finished LeanSCF after   3.3 sec

Maximum memory used throughout the entire LEANSCF-calculation: 21.2 MB



-------------------------------------------------------------------------------
                          DFT DISPERSION CORRECTION                            
-------------------------------------------------------------------------------
Active option DFTDOPT                   ...         2   
Final C6-coefficient scaling factor     ...     1.250
Final VDW-radii scaling factor          ...     1.100
Damping factor alpha                    ...    20.000
-------------------------   ----------------
Dispersion correction           -0.028716865
-------------------------   ----------------


-------------------------   --------------------
FINAL SINGLE POINT ENERGY      -551.290149420748
-------------------------   --------------------

                                *** OPTIMIZATION RUN DONE ***


------------------------------------------------------------------------------
                              ORCA PROPERTY CALCULATIONS
------------------------------------------------------------------------------

GBWName                                 ... 1.gbw
Number of atoms                         ...     19
Number of basis functions               ...    185
Max core memory                         ...   4096 MB

Electric properties:
Dipole moment                           ... YES
Quadrupole moment                       ...  NO
Static polarizability (Dipole/Dipole)   ...  NO
Static polarizability (Dipole/Quad.)    ...  NO
Static polarizability (Quad./Quad.)     ...  NO
Static polarizability (Velocity)        ...  NO
Static hyperpolarizability              ...  NO

Atomic electric properties:
Dipole moment                           ...  NO
Quadrupole moment                       ...  NO
Static polarizability                   ...  NO

Choice of electric origin               ... Center of mass
Position of electric origin             ...    -2.435822     0.803632     0.722106

General magnetic properties:
Magnetizability                         ...  NO

EPR properties:
g-Tensor (aka g-matrix)                 ...  NO
Zero-Field splitting spin-orbit         ...  NO
Zero-field splitting spin-spin          ...  NO
Hyperfine couplings                     ...  NO (   0 nuclei)
Quadrupole couplings                    ...  NO (   0 nuclei)
Contact density                         ...  NO (   0 nuclei)

NMR properties:
Chemical shifts                         ...  NO (   0 nuclei)
Spin-rotation constants                 ...  NO (   0 nuclei)
Spin-spin couplings                     ...  NO (   0 nuclei,    0 pairs)

Choice of magnetic origin               ... GIAO
Position of magnetic origin             ...     0.000000     0.000000     0.000000

Properties with geometric perturbations:
SCF Hessian                             ...  NO
IR spectrum                             ...  NO
VCD spectrum                            ...  NO
X-ray spectroscopy properties:
SCF XES/XAS/RIXS spectra                ...  NO

SCF SOC stabilization energy            ...  NO
Diagonal Born-Oppenheimer correction    ...  NO

-------------
DIPOLE MOMENT
-------------

Method             : SCF
Type of density    : Electron Density
Multiplicity       :   1
Irrep              :   0
Energy             :  -551.2614325553594199 Eh
Basis              : AO
                                X                 Y                 Z
Electronic contribution:     -0.262386457      -5.338746738       3.409078826
Nuclear contribution   :      0.424913312       5.239326401      -3.329629113
                        -----------------------------------------
Total Dipole Moment    :      0.162526856      -0.099420338       0.079449713
                        -----------------------------------------
Magnitude (a.u.)       :      0.206425868
Magnitude (Debye)      :      0.524692860



--------------------
Rotational spectrum 
--------------------
 
Rotational constants in cm-1:             0.059921             0.036764             0.031566 
Rotational constants in MHz :          1796.384322          1102.170254           946.325948 

Dipole components along the rotational axes: 
x,y,z [a.u.] :    -0.141898     0.141846     0.048543 
x,y,z [Debye]:    -0.360675     0.360544     0.123386 

 

Dipole moment calculation done in   0.0 sec 

Maximum memory used throughout the entire PROP-calculation: 12.2 MB

--------------------------------
SUGGESTED CITATIONS FOR THIS RUN
--------------------------------

Below you find a list of papers that are relevant to this ORCA run
We neither can nor want to force you to cite these papers, but we appreciate if you do
You receive ORCA, which is the product of decades of hard work by many enthusiastic individuals, for free
The only thing we kindly ask in return is that you cite our papers,
We deeply appreciate it, if you show your appreciation for ORCA by not just citing the generic ORCA reference.

Please note that relegating all ORCA citations to the supporting information does *not* help us.
SI sections are not indexed - citations you put there will not count into any citation statistics
But we need these citations in order to attract the funding resources that allow us to do what we are doing

Therefore, if you are a happy ORCA user, please consider citing a few of the papers listed below in the main body of your paper

In addition to the list printed below, the program has created the file 1.bibtex that contains the list in bibtex format
You can import this file easily into all common literature databanks and citation aid programs


List of essential papers. We consider these as the minimum necessary citations

  1. Neese, F.
     Software update: the ORCA program system, version 6.0
     WIRES Comput. Molec. Sci. 2025 15(1), e70019
     doi.org/10.1002/wcms.7019

List of papers to cite with high priority. The work reported in these papers was absolutely
necessary for this run to complete.
Our perspective: the developers of density functionals and basis sets usually get cited in chemistry papers
Good! But without the algorithms to do something with them, the functionals or basis sets would not do anything.
Hence, in our opinion, the algorithm design and method developments papers are equally worthy of getting cited

  1. Neese, F.
     An improvement of the resolution of the identity approximation for the formation of the Coulomb matrix
     J. Comp. Chem. 2003 24(14), 1740-1747
     doi.org/10.1002/jcc.10318
  2. Grimme, S.
     Semiempirical GGA-type density functional constructed with a long-range dispersion correction
     J.Comput.Chem. 2006 27(15), 1787-1799
     doi.org/10.1002/jcc.20495
  3. Neese, F.
     The SHARK Integral Generation and Digestion System
     J. Comp. Chem. 2022 44(3), 381
     doi.org/10.1002/jcc.26942

List of suggested additional citations. These are papers that are important in the 'surrounding' of 
of this run, or papers that preceded the highly important papers. If you like your results we are grateful for a citation.

  1. Neese, F.
     The ORCA program system
     WIRES Comput. Molec. Sci. 2012 2(1), 73-78
     doi.org/10.1002/wcms.81
  2. Neese, F.
     Software update: the ORCA program system, version 4.0
     WIRES Comput. Molec. Sci. 2018 8(1), 1-6
     doi.org/10.1002/wcms.1327
  3. Neese, F.; Wennmohs, F.; Becker, U.; Riplinger, C.
     The ORCA quantum chemistry program package
     J. Chem. Phys. 2020 152(22), 224108
     doi.org/10.1063/5.0004608
  4. Neese, F.
     Software update: The ORCA program system—Version 5.0
     WIRES Comput. Molec. Sci. 2022 12(1), e1606
     doi.org/10.1002/wcms.1606

List of optional additional citations

  1. Neese, F.
     Approximate second-order SCF convergence for spin unrestricted wavefunctions
     Chem. Phys. Lett. 2000 325(1-3), 93-98
     doi.org/10.1016/s0009-2614(00)00662-x

Timings for individual modules:

Sum of individual times          ...       96.522 sec (=   1.609 min)
Startup calculation              ...        5.067 sec (=   0.084 min)   5.2 %
SCF iterations                   ...       58.201 sec (=   0.970 min)  60.3 %
Property calculations            ...        0.041 sec (=   0.001 min)   0.0 %
SCF Gradient evaluation          ...       33.198 sec (=   0.553 min)  34.4 %
Geometry relaxation              ...        0.016 sec (=   0.000 min)   0.0 %
                             ****ORCA TERMINATED NORMALLY****
TOTAL RUN TIME: 0 days 0 hours 1 minutes 36 seconds 794 msec
