
                                 *****************
                                 * O   R   C   A *
                                 *****************

                                            #,                                       
                                            ###                                      
                                            ####                                     
                                            #####                                    
                                            ######                                   
                                           ########,                                 
                                     ,,################,,,,,                         
                               ,,#################################,,                 
                          ,,##########################################,,             
                       ,#########################################, ''#####,          
                    ,#############################################,,   '####,        
                  ,##################################################,,,,####,       
                ,###########''''           ''''###############################       
              ,#####''   ,,,,##########,,,,          '''####'''          '####       
            ,##' ,,,,###########################,,,                        '##       
           ' ,,###''''                  '''############,,,                           
         ,,##''                                '''############,,,,        ,,,,,,###''
      ,#''                                            '''#######################'''  
     '                                                          ''''####''''         
             ,#######,   #######,   ,#######,      ##                                
            ,#'     '#,  ##    ##  ,#'     '#,    #''#        ,####,    ,#,          
            ##       ##  ##   ,#'  ##            #'  '#       #'       ,# #          
            ##       ##  #######   ##           ,######,      #####,      #          
            '#,     ,#'  ##    ##  '#,     ,#' ,#      #,     #,   #      #          
             '#######'   ##     ##  '#######'  #'      '#     '####' #    #          



                #########################################################
                #                        -***-                          #
                #          Department of theory and spectroscopy        #
                #                                                       #
                #                      Frank Neese                      #
                #                                                       #
                #     Directorship, Architecture, Infrastructure        #
                #                    SHARK, DRIVERS                     #
                #        Core code/Algorithms in most modules           #
                #                                                       #
                #        Max Planck Institute fuer Kohlenforschung      #
                #                Kaiser Wilhelm Platz 1                 #
                #                 D-45470 Muelheim/Ruhr                 #
                #                      Germany                          #
                #                                                       #
                #                  All rights reserved                  #
                #                        -***-                          #
                #########################################################


                         Program Version 6.1.0  -  RELEASE   -
                                (GIT: $679e74b$)
                          ($2025-06-10 18:02:51 +0200$)


 With contributions from (in alphabetic order):
[Max-Planck-Institut fuer Kohlenforschung]                               
  Daniel Aravena         : Magnetic Suceptibility                        
  Michael Atanasov       : Ab Initio Ligand Field Theory (pilot matlab implementation)
  Alexander A. Auer      : GIAO ZORA, VPT2 properties, NMR spectrum      
  Ute Becker             : All parallelization in ORCA, NUMFREQ, NUMCALC 
  Giovanni Bistoni       : ED, misc. LED, open-shell LED, HFLD           
  Dmytro Bykov           : pre 5.0 version of the SCF Hessian            
  Marcos Casanova-Páez   : Triplet and SCS-CIS(D). UHF-(DLPNO)-IP/EA/STEOM-CCSD. UHF-CVS-IP/STEOM-CCSD   
  Vijay G. Chilkuri      : MRCI spin determinant printing, contributions to CSF-ICE 
  Pauline Colinet        : FMM embedding                                 
  Dipayan Datta          : RHF DLPNO-CCSD density                        
  Achintya Kumar Dutta   : EOM-CC, STEOM-CC                              
  Nicolas Foglia         : Exact transition moments, OPA infrastructure, MCD improvements    
  Dmitry Ganyushin       : Spin-Orbit,Spin-Spin,Magnetic field MRCI      
  Miquel Garcia-Rates    : C-PCM and meta-GGA Hessian, CCSD/C-PCM, Gaussian charge scheme 
  Tiago L. C. Gouveia    : GS-ROHF, GS-ROCIS                             
  Yang Guo               : DLPNO-NEVPT2, F12-NEVPT2, CIM, IAO-localization        
  Andreas Hansen         : Spin unrestricted coupled pair/coupled cluster methods 
  Ingolf Harden          : AUTO-CI MPn and infrastructure                
  Benjamin Helmich-Paris : MC-RPA, TRAH-(SCF,CASSCF), AVAS, COSX integrals, SCF dyn. polar., MC-PDFT, srDFT 
  Lee Huntington         : MR-EOM, pCC                                   
  Robert Izsak           : Overlap fitted RIJCOSX, COSX-SCS-MP3, EOM     
  Riya Kayal             : Wick's Theorem for AUTO-CI, AUTO-CI UHF-CCSDT 
  Emily Kempfer          : AUTO-CI RHF CISDT and CCSDT, approximate NEVPT4
  Christian Kollmar      : KDIIS, OOCD, Brueckner-CCSD(T), CCSD density, CASPT2, CASPT2-K, improved NEVPT2 
  Axel Koslowski         : Symmetry handling                             
  Simone Kossmann        : meta-GGA functionals, TD-DFT gradient, OOMP2, (MP2 Hessian; deprecated post 5.0) 
  Lucas Lang             : DCDCAS, Hyperfine gauge corrections, ICE-SOC+SSC
  Marvin Lechner         : AUTO-CI (C++ implementation), FIC-MRCC        
  Spencer Leger          : CASSCF response                               
  Dagmar Lenk            : GEPOL surface, SMD, ORCA-2-JSON               
  Dimitrios Liakos       : Extrapolation schemes; Compound Job, Property file
  Dimitrios Manganas     : Further ROCIS development; embedding schemes. LFT, Crystal Embedding 
  Dimitrios Pantazis     : SARC Basis sets                               
  Anastasios Papadopoulos: AUTO-CI, single reference methods and gradients 
  Taras Petrenko         : pre 6.0 DFT Hessian and TD-DFT gradient,  ECA, NRVS 
  Petra Pikulova         : Analytic Raman intensities                    
  Peter Pinski           : DLPNO-MP2, DLPNO-MP2 Gradient                 
  Shashank Vittal Rao    : ES-AILFT, MagRelax                            
  Christoph Reimann      : Effective Core Potentials                     
  Marius Retegan         : Local ZFS, SOC                                
  Christoph Riplinger    : Optimizer, TS searches, QM/MM, DLPNO-CCSD(T), (RO)-DLPNO pert. Triples 
  Michael Roemelt        : Original ROCIS implementation, recursive CI coupling coefficients
  Masaaki Saitow         : Open-shell DLPNO-CCSD energy and density      
  Barbara Sandhoefer     : DKH picture change effects                    
  Yorick L. A. Schmerwitz: GMF and freeze-and-release deltaSCF, NEB S-IDPP initial path                    
  Kantharuban Sivalingam : CASSCF convergence/infrastructure, NEVPT2, NEVPT3, NEVPT4(SD), FIC-MRCI and CEPA variants
  Bernardo de Souza      : ESD, SOC TD-DFT                               
  Georgi L. Stoychev     : AutoAux, RI-MP2 NMR, DLPNO-MP2 response, X2C  
  Van Anh Tran           : RI-MP2 g-tensors                              
  Willem Van den Heuvel  : Paramagnetic NMR                              
  Zikuan Wang            : NOTCH, Electric field optimization            
  Frank Wennmohs         : Technical directorship and infrastructure     
  Hang Xu                : AUTO-CI-Response properties                   
                                                                         
[FACCTs GmbH]                                                            
  Markus Bursch, Nicolas Foglia, Miquel Garcia-Rates, Ingolf Harden, Hagen Neugebauer, Anastasios Papadopoulos, 
  Christoph Riplinger, Bernardo de Souza, Georgi L. Stoychev                                                    
                                                                 
  APM, various basis sets, CI-OPT, improved COSX, DLPNO-Multilevel,           
  DOCKER, DRACO, updates on ESD, Fragmentator, GOAT, IRC, LR-CPCM, L-BFGS, MBIS, meta-GGA TD-DFT gradient, ML-optimized integration grids, 
  MM, NACMEs, nearIR, NEB, NEB-TS, NL-DFT gradient (VV10), 2- and 3-layer-ONIOM, interface openCOSMO-RS, QMMM,   
  Crystal-QMMM, RESP, rigid body optimization, SF, symmetry and pop. for TD-DFT, various functionals, SOLVATOR                                   
                                                                         
[Other institutions]                                                     
  V. Asgeirsson          : NEB                                           
  Christoph Bannwarth    : sTDA-DFT, sTD-DFT, PBEh-3c, B97-3c, D3        
  Giovanni Bistoni       : ETS/NOCV, ADLD/ADEX, COVALED                  
  Martin Brehm           : Molecular dynamics                            
  Ronald Cardenas        : ETS/NOCV                                      
  Martina Colucci        : COVALED                                       
  Sebastian Ehlert       : rSCAN, r2SCAN, r2SCAN-3c, D4, dhf basis sets  
  Marvin Friede          : D4 for Fr, Ra, Ac-Lr                          
  Lars Goerigk           : TD-DFT with DH, B97 family of functionals     
  Stefan Grimme          : VdW corrections, initial TS optimization, DFT functionals, gCP, sTDA/sTD-DF 
  Waldemar Hujo          : DFT-NL                                        
  H. Jonsson             : NEB                                           
  Holger Kruse           : gCP                                           
  Marcel Mueller         : wB97X-3c, vDZP basis set                      
  Hagen Neugebauer       : wr2SCAN, Native XTB                           
  Gianluca Regni         : ADLD/ADEX                                     
  Tobias Risthaus        : pre 6.0 range-separated hybrid DFT and stability analysis
  Lukas Wittmann         : regularized MP2, r2SCAN double-hybrids, wr2SCAN        
                                                                         
We gratefully acknowledge several colleagues who have allowed us to      
interface, adapt or use parts of their codes:                            
  Ed Valeev, F. Pavosevic, A. Kumar             : LibInt (2-el integral package), F12 methods 
  Garnet Chan, S. Sharma, J. Yang, R. Olivares  : DMRG                   
  Ulf Ekstrom                                   : XCFun DFT Library      
  Mihaly Kallay                                 : mrcc  (arbitrary order and MRCC methods)
  Frank Weinhold                                : gennbo (NPA and NBO analysis)           
  Simon Mueller                                 : openCOSMO-RS                            
  Christopher J. Cramer and Donald G. Truhlar   : smd solvation model                     
  S Lehtola, MJT Oliveira, MAL Marques          : LibXC Library                           
  Liviu Ungur et al                             : ANISO software                          


 Your calculation uses the libint2 library for the computation of 2-el integrals
 For citations please refer to: http://libint.valeyev.net

 Your ORCA version has been built with support for libXC version: 7.0.0
 For citations please refer to: https://libxc.gitlab.io

 This ORCA versions uses:
   CBLAS   interface :  Fast vector & matrix operations
   LAPACKE interface :  Fast linear algebra routines
   SCALAPACK package :  Parallel linear algebra routines
   Shared memory     :  Shared parallel matrices
   BLAS/LAPACK       :  OpenBLAS 0.3.29  USE64BITINT DYNAMIC_ARCH NO_AFFINITY Haswell SINGLE_THREADED
        Core in use  :  Haswell
   Copyright (c) 2011-2014, The OpenBLAS Project


  ***********************************
  * Starting time: Sat Aug 30 15:50:59 2025
  * Host name:     chemlab03
  * Process ID:    80622
  * Working dir.:  /home/vivek/mm-project/vivek/xtb-goat/B97-D-opt/g/5
  ***********************************



***************************************
The coordinates will be read from file: /home/vivek/mm-project/vivek/xtb-goat/xtb-goat/g/G_CONF/5.xyz
***************************************


Your calculation utilizes empirical dispersion correction


Warning: RI is on but no J-basis has been assigned. Assigning Def2/J (nothing to worry about!)
================================================================================

----- Orbital basis set information -----
Your calculation utilizes the basis: 6-31G**
   H-He, Li-Ne : W. J. Hehre, R. Ditchfield and J.A. Pople, J. Chem. Phys. 56, 2257 (1972).
                 Note: He and Ne are unpublished basis sets taken from the Gaussian program.
                 Note: Li and B from J. D. Dill and J. A. Pople, J. Chem. Phys. 62, 2921 (1975).
   Na - Ar     : M. M. Francl, W. J. Pietro, W. J. Hehre, J. S. Binkley, M. S. Gordon, 
                 D. J. DeFrees and J. A. Pople, J. Chem. Phys. 77, 3654 (1982).
   K - Zn      : V. A. Rassolov, J. A. Pople, M. A. Ratner, and T. L. Windus, J. Chem. Phys. 109, 1223 (1998).

----- AuxJ basis set information -----
Your calculation utilizes the auxiliary basis: def2/J
   H-Rn: F. Weigend, Phys. Chem. Chem. Phys. 8, 1057 (2006).
   Fr-Lr: K. Eichkorn, F. Weigend, O. Treutler, R. Ahlrichs; Theor. Chem. Acc. 97, 119 (1997).

================================================================================
                                        WARNINGS
                       Please study these warnings very carefully!
================================================================================


WARNING: Geometry Optimization
  ===> : Switching off AutoStart
         For restart on a previous wavefunction, please use MOREAD

INFO   : The exchange functional is Grimme's B97(-D)
         As described in S. Grimme, J. Comput. Chem. 27, 1787 (2006).
         Note that this functional defaults to a pure GGA. 

INFO   : The correlation functional is Grimme's B97(-D)
         As described in S. Grimme, J. Comput. Chem. 27, 1787 (2006).

================================================================================
                                       INPUT FILE
================================================================================
NAME = 5.inp
|  1> ! B97-D 6-31G** opt
|  2> 
|  3> * xyzfile 0 1 /home/vivek/mm-project/vivek/xtb-goat/xtb-goat/g/G_CONF/5.xyz
|  4> 
|  5>                          ****END OF INPUT****
================================================================================

                       *****************************
                       * Geometry Optimization Run *
                       *****************************

Geometry optimization settings:
Update method            Update   .... BFGS
Choice of coordinates    CoordSys .... (2022) Redundant Internals
Initial Hessian          InHess   .... Almloef's Model
Max. no of cycles        MaxIter  .... 50

Convergence Tolerances:
Energy Change            TolE     ....  5.0000e-06 Eh
Max. Gradient            TolMAXG  ....  3.0000e-04 Eh/bohr
RMS Gradient             TolRMSG  ....  1.0000e-04 Eh/bohr
Max. Displacement        TolMAXD  ....  4.0000e-03 bohr
RMS Displacement         TolRMSD  ....  2.0000e-03 bohr
Strict Convergence                .... False

------------------------------------------------------------------------------
                        ORCA OPTIMIZATION COORDINATE SETUP
------------------------------------------------------------------------------

The optimization will be done in redundant internal coordinates (2022)
Making redundant internal coordinates   ...  (2022 redundants) done
Evaluating the initial hessian          ...  (Almloef) done
Evaluating the coordinates              ...  done
Calculating the B-matrix                .... done
Calculating the G-matrix                .... done
The number of degrees of freedom        ....   36

    -----------------------------------------------------------------
                    Redundant Internal Coordinates


    -----------------------------------------------------------------
         Definition                    Initial Value    Approx d2E/dq
    -----------------------------------------------------------------
      1. B(C   1,C   0)                  1.5358         0.365761   
      2. B(N   4,H   2)                  1.0152         0.424516   
      3. B(N   4,C   0)                  1.4582         0.435532   
      4. B(N   4,H   3)                  1.0126         0.428552   
      5. B(O   5,C   1)                  1.3283         0.701958   
      6. B(H   6,C   0)                  1.0967         0.351367   
      7. B(H   7,C   0)                  1.0937         0.355211   
      8. B(H   8,N   4)                  1.9072         0.016025   
      9. B(H   8,O   5)                  0.9827         0.478315   
     10. B(O   9,C   1)                  1.1967         1.138419   
     11. A(N   4,C   0,H   7)          109.1823         0.329884   
     12. A(C   1,C   0,H   7)          106.5578         0.322472   
     13. A(C   1,C   0,N   4)          109.1245         0.369366   
     14. A(H   6,C   0,H   7)          107.7559         0.289101   
     15. A(C   1,C   0,H   6)          108.7331         0.321898   
     16. A(N   4,C   0,H   6)          115.1441         0.329292   
     17. A(C   0,C   1,O   9)          123.2650         0.437475   
     18. A(C   0,C   1,O   5)          113.0129         0.401351   
     19. A(O   5,C   1,O   9)          123.7157         0.489555   
     20. A(C   0,N   4,H   3)          111.4781         0.337409   
     21. A(C   0,N   4,H   2)          110.4938         0.336878   
     22. A(H   2,N   4,H   3)          107.6959         0.301867   
     23. A(C   1,O   5,H   8)          107.6903         0.372716   
     24. D(O   5,C   1,C   0,H   6)    143.5076         0.010035   
     25. D(O   9,C   1,C   0,N   4)   -163.7150         0.010035   
     26. D(O   5,C   1,C   0,N   4)     17.1752         0.010035   
     27. D(O   9,C   1,C   0,H   6)    -37.3826         0.010035   
     28. D(O   5,C   1,C   0,H   7)   -100.5938         0.010035   
     29. D(H   2,N   4,C   0,H   6)    -40.0470         0.017334   
     30. D(H   2,N   4,C   0,C   1)     82.5185         0.017334   
     31. D(H   3,N   4,C   0,H   6)     79.6743         0.017334   
     32. D(H   3,N   4,C   0,C   1)   -157.7603         0.017334   
     33. D(H   3,N   4,C   0,H   7)    -41.6566         0.017334   
     34. D(H   2,N   4,C   0,H   7)   -161.3778         0.017334   
     35. D(H   8,O   5,C   1,O   9)    178.9059         0.036920   
     36. D(H   8,O   5,C   1,C   0)     -1.9889         0.036920   
    -----------------------------------------------------------------

Number of atoms                         .... 10
Number of degrees of freedom            .... 36


         *************************************************************
         *                GEOMETRY OPTIMIZATION CYCLE   1            *
         *************************************************************
---------------------------------
CARTESIAN COORDINATES (ANGSTROEM)
---------------------------------
  C     -4.684757   -1.322630   -0.021595
  C     -4.205294   -2.541391    0.780450
  H     -5.644497   -0.177343    1.378717
  H     -6.433352   -0.238892   -0.054787
  N     -5.887869   -0.783726    0.601731
  O     -5.140105   -3.033678    1.585539
  H     -3.852683   -0.614727   -0.117715
  H     -4.930963   -1.685986   -1.023384
  H     -5.937189   -2.465228    1.500304
  O     -3.107578   -3.006084    0.674967

----------------------------
CARTESIAN COORDINATES (A.U.)
----------------------------
  NO LB      ZA    FRAG     MASS         X           Y           Z
   0 C     6.0000    0    12.011   -8.852907   -2.499408   -0.040809
   1 C     6.0000    0    12.011   -7.946855   -4.802533    1.474837
   2 H     1.0000    0     1.008  -10.666554   -0.335129    2.605398
   3 H     1.0000    0     1.008  -12.157274   -0.451440   -0.103532
   4 N     7.0000    0    14.007  -11.126459   -1.481028    1.137108
   5 O     8.0000    0    15.999   -9.713391   -5.732821    2.996235
   6 H     1.0000    0     1.008   -7.280515   -1.161666   -0.222449
   7 H     1.0000    0     1.008   -9.318170   -3.186053   -1.933915
   8 H     1.0000    0     1.008  -11.219662   -4.658606    2.835163
   9 O     8.0000    0    15.999   -5.872472   -5.680675    1.275502

--------------------------------
INTERNAL COORDINATES (ANGSTROEM)
--------------------------------
 C      0   0   0     0.000000000000     0.00000000     0.00000000
 C      1   0   0     1.535753819388     0.00000000     0.00000000
 H      1   2   0     2.047842842123   103.47553991     0.00000000
 H      3   1   2     1.637380288777    66.80328792   221.48706260
 N      4   3   1     1.012626936124    36.20525171    37.99389650
 O      2   1   3     1.328301846034   113.01288989    45.43358815
 H      1   2   3     1.096682524361   108.73309429    98.07401849
 H      1   2   3     1.093720981080   106.55784031   213.97256401
 H      6   2   1     0.982722733623   107.69031850   358.01106100
 O      2   1   3     1.196681910631   123.26499926   224.54339443

---------------------------
INTERNAL COORDINATES (A.U.)
---------------------------
 C      0   0   0     0.000000000000     0.00000000     0.00000000
 C      1   0   0     2.902154127768     0.00000000     0.00000000
 H      1   2   0     3.869862136923   103.47553991     0.00000000
 H      3   1   2     3.094200322869    66.80328792   221.48706260
 N      4   3   1     1.913587585106    36.20525171    37.99389650
 O      2   1   3     2.510126712186   113.01288989    45.43358815
 H      1   2   3     2.072429626901   108.73309429    98.07401849
 H      1   2   3     2.066833121165   106.55784031   213.97256401
 H      6   2   1     1.857076832126   107.69031850   358.01106100
 O      2   1   3     2.261401080510   123.26499926   224.54339443

---------------------
BASIS SET INFORMATION
---------------------
There are 4 groups of distinct atoms

 Group   1 Type C   : 10s4p1d contracted to 3s2p1d pattern {631/31/1}
 Group   2 Type H   : 4s1p contracted to 2s1p pattern {31/1}
 Group   3 Type N   : 10s4p1d contracted to 3s2p1d pattern {631/31/1}
 Group   4 Type O   : 10s4p1d contracted to 3s2p1d pattern {631/31/1}

Atom   0C    basis set group =>   1
Atom   1C    basis set group =>   1
Atom   2H    basis set group =>   2
Atom   3H    basis set group =>   2
Atom   4N    basis set group =>   3
Atom   5O    basis set group =>   4
Atom   6H    basis set group =>   2
Atom   7H    basis set group =>   2
Atom   8H    basis set group =>   2
Atom   9O    basis set group =>   4
---------------------------------
AUXILIARY/J BASIS SET INFORMATION
---------------------------------
There are 4 groups of distinct atoms

 Group   1 Type C   : 12s5p4d2f1g contracted to 6s4p3d1f1g pattern {711111/2111/211/2/1}
 Group   2 Type H   : 5s2p1d contracted to 3s1p1d pattern {311/2/1}
 Group   3 Type N   : 12s5p4d2f1g contracted to 6s4p3d1f1g pattern {711111/2111/211/2/1}
 Group   4 Type O   : 12s5p4d2f1g contracted to 6s4p3d1f1g pattern {711111/2111/211/2/1}

Atom   0C    basis set group =>   1
Atom   1C    basis set group =>   1
Atom   2H    basis set group =>   2
Atom   3H    basis set group =>   2
Atom   4N    basis set group =>   3
Atom   5O    basis set group =>   4
Atom   6H    basis set group =>   2
Atom   7H    basis set group =>   2
Atom   8H    basis set group =>   2
Atom   9O    basis set group =>   4
------------------------------------------------------------------------------
                             ORCA STARTUP CALCULATIONS
                           -- RI-GTO INTEGRALS CHOSEN --
------------------------------------------------------------------------------
------------------------------------------------------------------------------
                   ___                                                        
                  /   \      - P O W E R E D   B Y -                         
                 /     \                                                     
                 |  |  |   _    _      __       _____    __    __             
                 |  |  |  | |  | |    /  \     |  _  \  |  |  /  |          
                  \  \/   | |  | |   /    \    | | | |  |  | /  /          
                 / \  \   | |__| |  /  /\  \   | |_| |  |  |/  /          
                |  |  |   |  __  | /  /__\  \  |    /   |      \           
                |  |  |   | |  | | |   __   |  |    \   |  |\   \          
                \     /   | |  | | |  |  |  |  | |\  \  |  | \   \       
                 \___/    |_|  |_| |__|  |__|  |_| \__\ |__|  \__/        
                                                                              
                      - O R C A' S   B I G   F R I E N D -                    
                                      &                                       
                       - I N T E G R A L  F E E D E R -                       
                                                                              
 v1 FN, 2020, v2 2021, v3 2022-2024                                           
------------------------------------------------------------------------------


----------------------
SHARK INTEGRAL PACKAGE
----------------------

Number of atoms                             ...     10
Number of basis functions                   ...     95
Number of shells                            ...     45
Maximum angular momentum                    ...      2
Integral batch strategy                     ... SHARK/LIBINT Hybrid
RI-J (if used) integral strategy            ... SPLIT-RIJ (Revised 2003 algorithm where possible)
Printlevel                                  ...      1
Contraction scheme used                     ... SEGMENTED contraction
Prescreening option                         ... SCHWARTZ
   Thresh                                   ... 2.500e-11
   Tcut                                     ... 2.500e-12
   Tpresel                                  ... 2.500e-12 
Coulomb Range Separation                    ... NOT USED
Exchange Range Separation                   ... NOT USED
Multipole approximations                    ... NOT USED
Finite Nucleus Model                        ... NOT USED
CABS basis                                  ... NOT available
Auxiliary Coulomb fitting basis             ... AVAILABLE
   # of basis functions in Aux-J            ...    300
   # of shells in Aux-J                     ...    100
   Maximum angular momentum in Aux-J        ...      4
Auxiliary J/K fitting basis                 ... NOT available
Auxiliary Correlation fitting basis         ... NOT available
Auxiliary 'external' fitting basis          ... NOT available

Checking pre-screening integrals            ... done (  0.0 sec) Dimension = 45
   => SHARK Basis and OBASIS are compatible. Storing Pre-screening
Shell pair information
Shell pair cut-off parameter TPreSel        ...   2.5e-12
Total number of shell pairs                 ...      1035
Shell pairs after pre-screening             ...      1010
Total number of primitive shell pairs       ...      5170
Primitive shell pairs kept                  ...      3773
          la=0 lb=0:    314 shell pairs
          la=1 lb=0:    364 shell pairs
          la=1 lb=1:    119 shell pairs
          la=2 lb=0:    123 shell pairs
          la=2 lb=1:     75 shell pairs
          la=2 lb=2:     15 shell pairs

Checking whether 4 symmetric matrices of dimension 95 fit in memory
:Max Core in MB      =   4096.00
 MB in use           =      4.71
 MB left             =   4091.29
 MB needed           =      0.14
 Data fit in memory  = YES
Calculating RI/J V-Matrix + Cholesky decomp.... done (  0.0 sec)
Calculating Nuclear repulsion               ... done (  0.0 sec) ENN=    181.641904075899 Eh

Diagonalization of the overlap matrix:
Smallest eigenvalue                        ... 4.478e-03
Time for diagonalization                   ...    0.001 sec
Threshold for overlap eigenvalues          ... 1.000e-07
Number of eigenvalues below threshold      ... 0
Time for construction of square roots      ...    0.000 sec
Total time needed                          ...    0.001 sec

-------------------
DFT GRID GENERATION
-------------------

General Integration Accuracy     IntAcc      ... 4.388
Radial Grid Type                 RadialGrid  ... OptM3 with GC (2021)
Angular Grid (max. ang.)         AngularGrid ... 4 (Lebedev-302)
Angular grid pruning method      GridPruning ... 4 (adaptive)
Weight generation scheme         WeightScheme... mBecke (2022)
Basis function cutoff            BFCut       ... 1.0000e-11
Integration weight cutoff        WCut        ... 1.0000e-14
Partially contracted basis set               ... off
Rotationally invariant grid construction     ... off
Angular grids for H and He will be reduced by one unit

Total number of grid points                  ...    46595
Total number of batches                      ...      733
Average number of points per batch           ...       63
Average number of grid points per atom       ...     4660
Grids setup in   0.1 sec
Initializing property integral containers    ... done (  0.0 sec)

SHARK setup successfully completed in   0.2 seconds

Maximum memory used throughout the entire STARTUP-calculation: 19.9 MB
-------------------------------------------------------------------------------
                                 ORCA GUESS
                   Start orbitals & Density for SCF / CASSCF
-------------------------------------------------------------------------------

------------
SCF SETTINGS
------------
Hamiltonian:
 Density Functional     Method          .... DFT(GTOs)
 Exchange Functional    Exchange        .... B97(D)
 Correlation Functional Correlation     .... B97(D)
 Gradients option       PostSCFGGA      .... off
 RI-approximation to the Coulomb term is turned on
   Number of AuxJ basis functions       .... 300


General Settings:
 Integral files         IntName         .... 5
 Hartree-Fock type      HFTyp           .... RHF
 Total Charge           Charge          ....    0
 Multiplicity           Mult            ....    1
 Number of Electrons    NEL             ....   40
 Basis Dimension        Dim             ....   95
 Nuclear Repulsion      ENuc            ....    181.6419040759 Eh

Convergence Acceleration:
 AO-DIIS                CNVDIIS         .... on
   Start iteration      DIISMaxIt       ....    12
   Startup error        DIISStart       ....  0.200000
   # of expansion vecs  DIISMaxEq       ....     5
   Bias factor          DIISBfac        ....   1.050
   Max. coefficient     DIISMaxC        ....  10.000
 MO-DIIS                CNVKDIIS        .... off
 Trust-Rad. Augm. Hess. CNVTRAH         .... auto
   Auto Start mean grad. ratio tolernc. ....  1.125000
   Auto Start start iteration           ....    50
   Auto Start num. interpolation iter.  ....    10
   Max. Number of Micro iterations      ....    24
   Max. Number of Macro iterations      .... Maxiter - #DIIS iter
   Number of Davidson start vectors     ....     2
   Converg. threshold    (grad. norm)   ....   1.000e-05
   Grad. Scal. Fac. for Micro threshold ....   0.100
   Minimum threshold for Micro iter.    ....   1.000e-02
   NR start threshold (gradient norm)   ....   1.000e-04
   Initial trust radius                 ....   0.400
   Minimum AH scaling param. (alpha)    ....   1.000
   Maximum AH scaling param. (alpha)    .... 1000.000
   Quad. conv. algorithm                .... NR
   White noise on init. David. guess    .... on
   Maximum white noise                  ....   0.010
   Pseudo random numbers                .... off
   Inactive MOs                         .... canonical
   Orbital update algorithm             .... Taylor
   Preconditioner                       .... Diag
   Full preconditioner red. dimension   ....   250
 SOSCF                 CNVSOSCF           .... on
   Start iteration     SOSCFMaxIt         ....   150
   Startup grad/error  SOSCFStart         ....  0.003300
   Hessian update      SOSCFHessUp        .... L-BFGS
   Autom. constraints  SOSCFAutoConstrain .... off
 Level Shifting         CNVShift        .... on
   Level shift para.    LevelShift      ....    0.2500
   Turn off err/grad.   ShiftErr        ....    0.0010
 Zerner damping         CNVZerner       .... off
 Static damping         CNVDamp         .... on
   Fraction old density DampFac         ....    0.7000
   Max. Damping (<1)    DampMax         ....    0.9800
   Min. Damping (>=0)   DampMin         ....    0.0000
   Turn off err/grad.   DampErr         ....    0.1000

SCF Procedure:
 Maximum # iterations   MaxIter         ....   125
 SCF integral mode      SCFMode         .... Direct
   Integral package                     .... SHARK and LIBINT hybrid scheme
 Reset frequency        DirectResetFreq ....    20
 Integral Threshold     Thresh          ....  2.500e-11 Eh
 Primitive CutOff       TCut            ....  2.500e-12 Eh

Convergence Tolerance:
 Convergence Check Mode ConvCheckMode   .... Total+1el-Energy
 Convergence forced     ConvForced      .... 0
 Energy Change          TolE            ....  1.000e-08 Eh
 1-El. energy change                    ....  1.000e-05 Eh
 Orbital Gradient       TolG            ....  1.000e-05
 Orbital Rotation angle TolX            ....  1.000e-05
 DIIS Error             TolErr          ....  5.000e-07

------------------------------
INITIAL GUESS: MODEL POTENTIAL
------------------------------
Loading Hartree-Fock densities                     ... done
Calculating cut-offs                               ... done
Initializing the effective Hamiltonian             ... done
Setting up the integral package (SHARK)            ... done
Starting the Coulomb interaction                   ... done (   0.0 sec)
Making the grid                                    ... done (   0.0 sec)
Mapping shells                                     ... done
Starting the XC term evaluation                    ... done (   0.0 sec)
  promolecular density results
     # of electrons  =     39.998328026
     EX              =    -34.208307151
     EC              =     -1.792616434
     EX+EC           =    -36.000923585
Transforming the Hamiltonian                       ... done (   0.0 sec)
Diagonalizing the Hamiltonian                      ... done (   0.0 sec)
Back transforming the eigenvectors                 ... done (   0.0 sec)
Now organizing SCF variables                       ... done
                      ------------------
                      INITIAL GUESS DONE (   0.1 sec)
                      ------------------
             **** ENERGY FILE WAS UPDATED (5.en.tmp) ****
Finished Guess after   0.1 sec
Maximum memory used throughout the entire GUESS-calculation: 8.2 MB

-------------------------------------------------------------------------------------------
                                      ORCA LEAN-SCF
                              memory conserving SCF solver
-------------------------------------------------------------------------------------------

----------------------------------------D-I-I-S--------------------------------------------
Iteration    Energy (Eh)           Delta-E    RMSDP     MaxDP     DIISErr   Damp  Time(sec)
-------------------------------------------------------------------------------------------
               ***  Starting incremental Fock matrix formation  ***
    1    -284.0293956501428738     0.00e+00  5.92e-03  1.07e-01  2.66e-01  0.700   0.2
    2    -284.1398772072874408    -1.10e-01  3.52e-03  5.43e-02  9.19e-02  0.700   0.1
                               ***Turning on AO-DIIS***
    3    -284.1712965289148087    -3.14e-02  1.23e-03  1.51e-02  2.40e-02  0.700   0.1
    4    -284.1930758992999699    -2.18e-02  1.61e-03  1.99e-02  1.62e-02  0.000   0.1
    5    -284.2444108809560248    -5.13e-02  5.88e-04  7.77e-03  9.05e-03  0.000   0.1
                              *** Initializing SOSCF ***
---------------------------------------S-O-S-C-F--------------------------------------
Iteration    Energy (Eh)           Delta-E    RMSDP     MaxDP     MaxGrad    Time(sec)
--------------------------------------------------------------------------------------
    6    -284.2449057010425122    -4.95e-04  2.08e-04  2.92e-03  2.91e-03     0.1
               *** Restarting incremental Fock matrix formation ***
    7    -284.2449473417668742    -4.16e-05  1.67e-04  2.36e-03  5.33e-04     0.2
    8    -284.2449385235478303     8.82e-06  8.90e-05  1.72e-03  1.58e-03     0.1
    9    -284.2449519393336459    -1.34e-05  6.42e-05  9.64e-04  2.73e-04     0.1
   10    -284.2449508776106768     1.06e-06  3.34e-05  5.80e-04  2.98e-04     0.1
   11    -284.2449530203670065    -2.14e-06  1.60e-05  2.29e-04  5.88e-05     0.1
   12    -284.2449529441688583     7.62e-08  9.23e-06  1.49e-04  9.09e-05     0.1
   13    -284.2449530741683930    -1.30e-07  2.02e-06  3.43e-05  6.56e-06     0.1
   14    -284.2449530725954219     1.57e-09  1.15e-06  2.26e-05  9.90e-06     0.1
                 **** Energy Check signals convergence ****

               *****************************************************
               *                     SUCCESS                       *
               *           SCF CONVERGED AFTER  14 CYCLES          *
               *****************************************************

             **** ENERGY FILE WAS UPDATED (5.en.tmp) ****

----------------
TOTAL SCF ENERGY
----------------

Total Energy       :       -284.24495307613154 Eh           -7734.69840 eV

Components:
Nuclear Repulsion  :        181.64190407589948 Eh            4942.72749 eV
Electronic Energy  :       -465.88685715203098 Eh          -12677.42589 eV
One Electron Energy:       -747.81832766574780 Eh          -20349.17123 eV
Two Electron Energy:        281.93147051371682 Eh            7671.74534 eV

Virial components:
Potential Energy   :       -567.04417339993438 Eh          -15430.05641 eV
Kinetic Energy     :        282.79922032380290 Eh            7695.35801 eV
Virial Ratio       :          2.00511222326099

DFT components:
N(Alpha)           :       19.999991736351 electrons
N(Beta)            :       19.999991736351 electrons
N(Total)           :       39.999983472703 electrons
E(X)               :      -34.936146159057 Eh       
E(C)               :       -1.783927367936 Eh       
E(XC)              :      -36.720073526993 Eh       

---------------
SCF CONVERGENCE
---------------

  Last Energy change         ...   -1.5730e-09  Tolerance :   1.0000e-08
  Last MAX-Density change    ...    2.2577e-05  Tolerance :   1.0000e-07
  Last RMS-Density change    ...    1.1504e-06  Tolerance :   5.0000e-09
  Last DIIS Error            ...    2.9055e-03  Tolerance :   5.0000e-07
  Last Orbital Gradient      ...    9.9050e-06  Tolerance :   1.0000e-05
  Last Orbital Rotation      ...    7.9803e-06  Tolerance :   1.0000e-05


----------------
ORBITAL ENERGIES
----------------

  NO   OCC          E(Eh)            E(eV) 
   0   2.0000     -18.792100      -511.3590 
   1   2.0000     -18.735223      -509.8113 
   2   2.0000     -14.029263      -381.7557 
   3   2.0000     -10.018329      -272.6126 
   4   2.0000      -9.955589      -270.9054 
   5   2.0000      -1.002458       -27.2783 
   6   2.0000      -0.922488       -25.1022 
   7   2.0000      -0.839668       -22.8485 
   8   2.0000      -0.647184       -17.6108 
   9   2.0000      -0.537090       -14.6150 
  10   2.0000      -0.490524       -13.3478 
  11   2.0000      -0.447474       -12.1764 
  12   2.0000      -0.434522       -11.8239 
  13   2.0000      -0.394059       -10.7229 
  14   2.0000      -0.364955        -9.9309 
  15   2.0000      -0.342625        -9.3233 
  16   2.0000      -0.311488        -8.4760 
  17   2.0000      -0.255790        -6.9604 
  18   2.0000      -0.245313        -6.6753 
  19   2.0000      -0.204417        -5.5625 
  20   0.0000      -0.005790        -0.1576 
  21   0.0000       0.038575         1.0497 
  22   0.0000       0.090919         2.4740 
  23   0.0000       0.107350         2.9211 
  24   0.0000       0.115695         3.1482 
  25   0.0000       0.157911         4.2970 
  26   0.0000       0.159962         4.3528 
  27   0.0000       0.208542         5.6747 
  28   0.0000       0.300263         8.1706 
  29   0.0000       0.350325         9.5328 
  30   0.0000       0.494011        13.4427 
*Only the first 10 virtual orbitals were printed.

                    ********************************
                    * MULLIKEN POPULATION ANALYSIS *
                    ********************************

-----------------------
MULLIKEN ATOMIC CHARGES
-----------------------
   0 C :   -0.187473
   1 C :    0.517631
   2 H :    0.265714
   3 H :    0.262355
   4 N :   -0.621581
   5 O :   -0.448557
   6 H :    0.135963
   7 H :    0.153775
   8 H :    0.327678
   9 O :   -0.405504
Sum of atomic charges:    0.0000000

--------------------------------
MULLIKEN REDUCED ORBITAL CHARGES
--------------------------------
  0 C s       :     3.222149  s :     3.222149
      pz      :     1.024439  p :     2.917410
      px      :     0.891375
      py      :     1.001596
      dz2     :     0.008166  d :     0.047914
      dxz     :     0.008239
      dyz     :     0.007794
      dx2y2   :     0.009701
      dxy     :     0.014014

  1 C s       :     2.972753  s :     2.972753
      pz      :     0.792698  p :     2.381916
      px      :     0.749209
      py      :     0.840009
      dz2     :     0.015423  d :     0.127700
      dxz     :     0.036704
      dyz     :     0.010931
      dx2y2   :     0.030404
      dxy     :     0.034237

  2 H s       :     0.710840  s :     0.710840
      pz      :     0.009835  p :     0.023445
      px      :     0.005479
      py      :     0.008131

  3 H s       :     0.713768  s :     0.713768
      pz      :     0.007672  p :     0.023877
      px      :     0.008336
      py      :     0.007869

  4 N s       :     3.609632  s :     3.609632
      pz      :     1.221139  p :     3.984661
      px      :     1.294535
      py      :     1.468987
      dz2     :     0.002059  d :     0.027288
      dxz     :     0.005806
      dyz     :     0.009544
      dx2y2   :     0.005001
      dxy     :     0.004878

  5 O s       :     3.825443  s :     3.825443
      pz      :     1.638492  p :     4.598802
      px      :     1.315016
      py      :     1.645294
      dz2     :     0.005735  d :     0.024312
      dxz     :     0.003803
      dyz     :     0.004634
      dx2y2   :     0.002265
      dxy     :     0.007875

  6 H s       :     0.853036  s :     0.853036
      pz      :     0.002399  p :     0.011001
      px      :     0.004878
      py      :     0.003724

  7 H s       :     0.834934  s :     0.834934
      pz      :     0.006038  p :     0.011291
      px      :     0.002146
      py      :     0.003107

  8 H s       :     0.631802  s :     0.631802
      pz      :     0.008469  p :     0.040520
      px      :     0.017048
      py      :     0.015003

  9 O s       :     3.857635  s :     3.857635
      pz      :     1.560652  p :     4.519421
      px      :     1.378719
      py      :     1.580049
      dz2     :     0.002612  d :     0.028449
      dxz     :     0.007634
      dyz     :     0.001792
      dx2y2   :     0.008550
      dxy     :     0.007861



                     *******************************
                     * LOEWDIN POPULATION ANALYSIS *
                     *******************************

----------------------
LOEWDIN ATOMIC CHARGES
----------------------
   0 C :   -0.110383
   1 C :    0.098786
   2 H :    0.135715
   3 H :    0.134993
   4 N :   -0.256665
   5 O :   -0.137116
   6 H :    0.076522
   7 H :    0.094431
   8 H :    0.166944
   9 O :   -0.203227

-------------------------------
LOEWDIN REDUCED ORBITAL CHARGES
-------------------------------
  0 C s       :     2.909638  s :     2.909638
      pz      :     1.064278  p :     3.093285
      px      :     0.982439
      py      :     1.046568
      dz2     :     0.017168  d :     0.107460
      dxz     :     0.018976
      dyz     :     0.017313
      dx2y2   :     0.022073
      dxy     :     0.031930

  1 C s       :     2.851523  s :     2.851523
      pz      :     0.862045  p :     2.742621
      px      :     0.954973
      py      :     0.925604
      dz2     :     0.034698  d :     0.307070
      dxz     :     0.090507
      dyz     :     0.025422
      dx2y2   :     0.075541
      dxy     :     0.080901

  2 H s       :     0.785372  s :     0.785372
      pz      :     0.033351  p :     0.078913
      px      :     0.016333
      py      :     0.029229

  3 H s       :     0.785258  s :     0.785258
      pz      :     0.026254  p :     0.079749
      px      :     0.026427
      py      :     0.027069

  4 N s       :     3.196049  s :     3.196049
      pz      :     1.230350  p :     4.004114
      px      :     1.324052
      py      :     1.449712
      dz2     :     0.005772  d :     0.056503
      dxz     :     0.013634
      dyz     :     0.017478
      dx2y2   :     0.009031
      dxy     :     0.010588

  5 O s       :     3.473009  s :     3.473009
      pz      :     1.636091  p :     4.611300
      px      :     1.333597
      py      :     1.641611
      dz2     :     0.009703  d :     0.052807
      dxz     :     0.011655
      dyz     :     0.007849
      dx2y2   :     0.005936
      dxy     :     0.017664

  6 H s       :     0.883070  s :     0.883070
      pz      :     0.007401  p :     0.040408
      px      :     0.018725
      py      :     0.014282

  7 H s       :     0.865743  s :     0.865743
      pz      :     0.023464  p :     0.039825
      px      :     0.006480
      py      :     0.009882

  8 H s       :     0.705357  s :     0.705357
      pz      :     0.024315  p :     0.127699
      px      :     0.054736
      py      :     0.048648

  9 O s       :     3.548693  s :     3.548693
      pz      :     1.544110  p :     4.596272
      px      :     1.466718
      py      :     1.585445
      dz2     :     0.007306  d :     0.058262
      dxz     :     0.012435
      dyz     :     0.002626
      dx2y2   :     0.017413
      dxy     :     0.018482



                      *****************************
                      * MAYER POPULATION ANALYSIS *
                      *****************************

  NA   - Mulliken gross atomic population
  ZA   - Total nuclear charge
  QA   - Mulliken gross atomic charge
  VA   - Mayer's total valence
  BVA  - Mayer's bonded valence
  FA   - Mayer's free valence

  ATOM       NA         ZA         QA         VA         BVA        FA
  0 C      6.1875     6.0000    -0.1875     3.7847     3.7847     0.0000
  1 C      5.4824     6.0000     0.5176     4.0036     4.0036    -0.0000
  2 H      0.7343     1.0000     0.2657     0.9056     0.9056     0.0000
  3 H      0.7376     1.0000     0.2624     0.9124     0.9124     0.0000
  4 N      7.6216     7.0000    -0.6216     2.9106     2.9106     0.0000
  5 O      8.4486     8.0000    -0.4486     2.0668     2.0668    -0.0000
  6 H      0.8640     1.0000     0.1360     0.9488     0.9488    -0.0000
  7 H      0.8462     1.0000     0.1538     0.9441     0.9441     0.0000
  8 H      0.6723     1.0000     0.3277     0.9308     0.9308     0.0000
  9 O      8.4055     8.0000    -0.4055     2.1289     2.1289     0.0000

  Mayer bond orders larger than 0.100000
B(  0-C ,  1-C ) :   0.9174 B(  0-C ,  4-N ) :   0.9661 B(  0-C ,  6-H ) :   0.9360 
B(  0-C ,  7-H ) :   0.9387 B(  1-C ,  5-O ) :   1.1372 B(  1-C ,  9-O ) :   1.9469 
B(  2-H ,  4-N ) :   0.9031 B(  3-H ,  4-N ) :   0.9017 B(  4-N ,  8-H ) :   0.1232 
B(  5-O ,  8-H ) :   0.7863 B(  5-O ,  9-O ) :   0.1018 

-------
TIMINGS
-------

Total SCF time: 0 days 0 hours 0 min 2 sec 

Total time                  ....       2.154 sec
Sum of individual times     ....       1.995 sec  ( 92.6%)

SCF preparation             ....       0.025 sec  (  1.2%)
Fock matrix formation       ....       1.955 sec  ( 90.7%)
  Startup                   ....       0.000 sec  (  0.0% of F)
  Split-RI-J                ....       0.433 sec  ( 22.2% of F)
  XC integration            ....       1.643 sec  ( 84.1% of F)
    Basis function eval.    ....       0.559 sec  ( 34.0% of XC)
    Density eval.           ....       0.287 sec  ( 17.5% of XC)
    XC-Functional eval.     ....       0.425 sec  ( 25.9% of XC)
    XC-Potential eval.      ....       0.323 sec  ( 19.7% of XC)
Diagonalization             ....       0.000 sec  (  0.0%)
Density matrix formation    ....       0.002 sec  (  0.1%)
Total Energy calculation    ....       0.000 sec  (  0.0%)
Population analysis         ....       0.001 sec  (  0.0%)
Orbital Transformation      ....       0.001 sec  (  0.1%)
Orbital Orthonormalization  ....       0.000 sec  (  0.0%)
DIIS solution               ....       0.006 sec  (  0.3%)
SOSCF solution              ....       0.004 sec  (  0.2%)
Finished LeanSCF after   2.2 sec

Maximum memory used throughout the entire LEANSCF-calculation: 10.3 MB



-------------------------------------------------------------------------------
                          DFT DISPERSION CORRECTION                            
-------------------------------------------------------------------------------
Active option DFTDOPT                   ...         2   
Final C6-coefficient scaling factor     ...     1.250
Final VDW-radii scaling factor          ...     1.100
Damping factor alpha                    ...    20.000
-------------------------   ----------------
Dispersion correction           -0.007029451
-------------------------   ----------------


-------------------------   --------------------
FINAL SINGLE POINT ENERGY      -284.251982527451
-------------------------   --------------------

------------------------------------------------------------------------------
                         ORCA SCF GRADIENT CALCULATION
------------------------------------------------------------------------------

Nuc. rep. gradient        (SHARK) ... done (  0.0 sec)
HCore & Overlap gradient  (SHARK) ... done (  0.0 sec)
Split-RIJ-J gradient      (SHARK) ... done (  0.1 sec)
XC gradient                       ... done (  0.7 sec)
Dispersion correction             ... done (  0.0 sec)

-------------------
DISPERSION GRADIENT
-------------------

   1   C   :   -0.000604399   -0.000510837    0.000987825
   2   C   :   -0.000133223    0.000425222   -0.000578521
   3   H   :   -0.000573943    0.001058424   -0.000031089
   4   H   :   -0.000350372    0.000513706    0.000285504
   5   N   :    0.001039064   -0.000996861   -0.000191081
   6   O   :    0.000084478    0.000257123   -0.000213085
   7   H   :   -0.000404192   -0.000492709   -0.000396909
   8   H   :    0.000514357    0.000305783    0.000171410
   9   H   :    0.000175381   -0.000154738   -0.000246380
  10   O   :    0.000252849   -0.000405115    0.000212324

Difference to translation invariance:
           :   -0.0000000000   -0.0000000000    0.0000000000

Difference to rotation invariance:
           :    0.0000000000    0.0000000000   -0.0000000000

Norm of the Dispersion gradient    ...    0.0027608532
RMS gradient                       ...    0.0005040605
MAX gradient                       ...    0.0010584236

------------------
CARTESIAN GRADIENT
------------------

   1   C   :   -0.002981190   -0.000348847   -0.000071502
   2   C   :    0.013284531   -0.016371018    0.006131613
   3   H   :   -0.000890029   -0.003086254   -0.001500052
   4   H   :    0.003155655   -0.002526700    0.002006649
   5   N   :    0.008854508   -0.002132005   -0.001729618
   6   O   :    0.008732046    0.018409956   -0.017639135
   7   H   :   -0.003723221   -0.001243615    0.000809569
   8   H   :    0.001295077    0.000216839    0.004398141
   9   H   :    0.002162599   -0.006022494    0.004322521
  10   O   :   -0.029889976    0.013104138    0.003271814

Difference to translation invariance:
           :   -0.0000000000    0.0000000000   -0.0000000000

Difference to rotation invariance:
           :    0.0000122328    0.0001268904    0.0001007617

Norm of the Cartesian gradient     ...    0.0500887946
RMS gradient                       ...    0.0091449209
MAX gradient                       ...    0.0298899765

-------
TIMINGS
-------

Total SCF gradient time     ....        0.840 sec

Densities                   ....       0.000 sec  (  0.0%)
One electron gradient       ....       0.022 sec  (  2.6%)
RI-J Coulomb gradient       ....       0.150 sec  ( 17.8%)
XC gradient                 ....       0.668 sec  ( 79.5%)

Maximum memory used throughout the entire SCFGRAD-calculation: 13.5 MB
------------------------------------------------------------------------------
                         ORCA GEOMETRY RELAXATION STEP
------------------------------------------------------------------------------

Reading the OPT-File                    .... done
Getting information on internals        .... done
Copying old internal coords+grads       .... done
Making the new internal coordinates     .... (2022 redundants) done
Validating the new internal coordinates .... (2022 redundants) done
Calculating the B-matrix                .... done
Calculating the G,G- and P matrices     .... done
Transforming gradient to internals      .... done
Projecting the internal gradient        .... done
Number of atoms                         ....  10
Number of internal coordinates          ....  36
Current Energy                          ....  -284.251982527 Eh
Current gradient norm                   ....     0.050088795 Eh/bohr
Maximum allowed component of the step   ....  0.300
Current trust radius                    ....  0.300
Evaluating the initial hessian          ....  (Almloef) done
Projecting the Hessian                  .... done
Forming the augmented Hessian           .... done
Diagonalizing the augmented Hessian     .... done
Last element of RFO vector              ....  0.992039021
Lowest eigenvalues of augmented Hessian:
 -0.003190865  0.010499922  0.017391905  0.018040487  0.033519407
Length of the computed step             ....  0.126941439
The final length of the internal step   ....  0.126941439
Converting the step to Cartesian space:
 Initial RMS(Int)=    0.0211569065
Transforming coordinates:
 Iter   0:  RMS(Cart)=    0.0311917954 RMS(Int)=    1.0436445890
done
Storing new coordinates                 .... done

                                .--------------------.
          ----------------------|Geometry convergence|-------------------------
          Item                value                   Tolerance       Converged
          ---------------------------------------------------------------------
          RMS gradient        0.0074738748            0.0001000000      NO
          MAX gradient        0.0327972512            0.0003000000      NO
          RMS step            0.0211569065            0.0020000000      NO
          MAX step            0.0660601599            0.0040000000      NO
          -------------------------------------------------------------------------
          ........................................................
          Max(Bonds)      0.0350      Max(Angles)    1.79
          Max(Dihed)        1.97      Max(Improp)    0.00
          ---------------------------------------------------------------------

The optimization has not yet converged - more geometry cycles are needed


    ---------------------------------------------------------------------------
                         Redundant Internal Coordinates
                            (Angstroem and degrees)

        Definition                    Value    dE/dq     Step     New-Value
    ----------------------------------------------------------------------------
     1. B(C   1,C   0)                1.5358 -0.008826  0.0142    1.5499   
     2. B(N   4,H   2)                1.0152 -0.003206  0.0040    1.0192   
     3. B(N   4,C   0)                1.4582 -0.012320  0.0150    1.4732   
     4. B(N   4,H   3)                1.0126 -0.004358  0.0053    1.0180   
     5. B(O   5,C   1)                1.3283 -0.018819  0.0147    1.3430   
     6. B(H   6,C   0)                1.0967 -0.003697  0.0055    1.1022   
     7. B(H   7,C   0)                1.0937 -0.004394  0.0065    1.1002   
     8. B(H   8,N   4)                1.9072 -0.002388  0.0350    1.9421   
     9. B(H   8,O   5)                0.9827 -0.006872  0.0069    0.9896   
    10. B(O   9,C   1)                1.1967 -0.032797  0.0152    1.2119   
    11. A(N   4,C   0,H   7)          109.18  0.001886   -0.45    108.74   
    12. A(C   1,C   0,H   7)          106.56  0.000622   -0.11    106.45   
    13. A(C   1,C   0,N   4)          109.12 -0.004955    1.32    110.45   
    14. A(H   6,C   0,H   7)          107.76  0.000116   -0.45    107.31   
    15. A(C   1,C   0,H   6)          108.73  0.002520   -0.41    108.33   
    16. A(N   4,C   0,H   6)          115.14 -0.000053    0.05    115.20   
    17. A(C   0,C   1,O   9)          123.26 -0.001096   -0.03    123.23   
    18. A(C   0,C   1,O   5)          113.01  0.002122    0.05    113.06   
    19. A(O   5,C   1,O   9)          123.72 -0.001014   -0.04    123.67   
    20. A(C   0,N   4,H   3)          111.48 -0.001769    0.25    111.73   
    21. A(C   0,N   4,H   2)          110.49  0.000632   -0.16    110.34   
    22. A(H   2,N   4,H   3)          107.70  0.000903   -0.27    107.42   
    23. A(C   1,O   5,H   8)          107.69  0.013498   -1.79    105.90   
    24. D(O   5,C   1,C   0,H   6)    143.51 -0.001372    1.97    145.48   
    25. D(O   9,C   1,C   0,N   4)   -163.71  0.001168   -0.70   -164.41   
    26. D(O   5,C   1,C   0,N   4)     17.18  0.000331    1.29     18.46   
    27. D(O   9,C   1,C   0,H   6)    -37.38 -0.000535   -0.01    -37.40   
    28. D(O   5,C   1,C   0,H   7)   -100.59  0.000336    1.19    -99.40   
    29. D(H   2,N   4,C   0,H   6)    -40.05  0.000045    0.97    -39.07   
    30. D(H   2,N   4,C   0,C   1)     82.52 -0.000539    1.51     84.02   
    31. D(H   3,N   4,C   0,H   6)     79.67  0.000444    0.69     80.36   
    32. D(H   3,N   4,C   0,C   1)   -157.76 -0.000139    1.22   -156.54   
    33. D(H   3,N   4,C   0,H   7)    -41.66 -0.001106    1.57    -40.08   
    34. D(H   2,N   4,C   0,H   7)   -161.38 -0.001506    1.86   -159.52   
    35. D(H   8,O   5,C   1,O   9)    178.91 -0.000446    1.28    180.18   
    36. D(H   8,O   5,C   1,C   0)     -1.99  0.000394   -0.72     -2.71   
    ----------------------------------------------------------------------------

Geometry step timings:
Preparation and reading OPT file:      0.000 s ( 2.529 %)
Internal coordinates            :      0.000 s ( 2.069 %)
B/P matrices and projection     :      0.000 s (29.195 %)
Hessian update/contruction      :      0.000 s (12.184 %)
Making the step                 :      0.000 s (23.678 %)
Converting the step to Cartesian:      0.000 s ( 5.057 %)
Storing new data                :      0.000 s ( 2.759 %)
Checking convergence            :      0.000 s ( 2.299 %)
Final printing                  :      0.000 s (20.230 %)
Total time                      :      0.000 s

Time for energy+gradient        :      3.333 s
Time for complete geometry iter :      3.345 s

         *************************************************************
         *                GEOMETRY OPTIMIZATION CYCLE   2            *
         *************************************************************
---------------------------------
CARTESIAN COORDINATES (ANGSTROEM)
---------------------------------
  C     -4.686867   -1.320843   -0.010020
  C     -4.193235   -2.551574    0.792379
  H     -5.652419   -0.125182    1.365073
  H     -6.452890   -0.227624   -0.064946
  N     -5.901087   -0.758230    0.606046
  O     -5.138898   -3.072135    1.591282
  H     -3.845614   -0.616788   -0.116992
  H     -4.938181   -1.685868   -1.017024
  H     -5.930367   -2.486462    1.491635
  O     -3.084731   -3.024980    0.666795

----------------------------
CARTESIAN COORDINATES (A.U.)
----------------------------
  NO LB      ZA    FRAG     MASS         X           Y           Z
   0 C     6.0000    0    12.011   -8.856896   -2.496031   -0.018935
   1 C     6.0000    0    12.011   -7.924065   -4.821777    1.497380
   2 H     1.0000    0     1.008  -10.681524   -0.236560    2.579614
   3 H     1.0000    0     1.008  -12.194194   -0.430146   -0.122730
   4 N     7.0000    0    14.007  -11.151438   -1.432847    1.145262
   5 O     8.0000    0    15.999   -9.711111   -5.805494    3.007088
   6 H     1.0000    0     1.008   -7.267156   -1.165560   -0.221083
   7 H     1.0000    0     1.008   -9.331809   -3.185828   -1.921897
   8 H     1.0000    0     1.008  -11.206769   -4.698732    2.818781
   9 O     8.0000    0    15.999   -5.829297   -5.716384    1.260059

--------------------------------
INTERNAL COORDINATES (ANGSTROEM)
--------------------------------
 C      0   0   0     0.000000000000     0.00000000     0.00000000
 C      1   0   0     1.549909238296     0.00000000     0.00000000
 H      1   2   0     2.062225112635   105.32573723     0.00000000
 H      3   1   2     1.642011423838    67.13035520   222.10277498
 N      4   3   1     1.017968662722    36.31414778    38.05812880
 O      2   1   3     1.342948264595   113.04822578    47.01201890
 H      1   2   3     1.102199800346   108.32367008    98.46768044
 H      1   2   3     1.100208587903   106.44807578   213.58500069
 H      6   2   1     0.989628685609   105.89454860   357.29003994
 O      2   1   3     1.211884615256   123.22065096   224.13543723

---------------------------
INTERNAL COORDINATES (A.U.)
---------------------------
 C      0   0   0     0.000000000000     0.00000000     0.00000000
 C      1   0   0     2.928903992813     0.00000000     0.00000000
 H      1   2   0     3.897040689374   105.32573723     0.00000000
 H      3   1   2     3.102951899824    67.13035520   222.10277498
 N      4   3   1     1.923681985459    36.31414778    38.05812880
 O      2   1   3     2.537804432109   113.04822578    47.01201890
 H      1   2   3     2.082855767517   108.32367008    98.46768044
 H      1   2   3     2.079092921325   106.44807578   213.58500069
 H      6   2   1     1.870127190073   105.89454860   357.29003994
 O      2   1   3     2.290130028747   123.22065096   224.13543723

------------------------------------------------------------------------------
                   ___                                                        
                  /   \      - P O W E R E D   B Y -                         
                 /     \                                                     
                 |  |  |   _    _      __       _____    __    __             
                 |  |  |  | |  | |    /  \     |  _  \  |  |  /  |          
                  \  \/   | |  | |   /    \    | | | |  |  | /  /          
                 / \  \   | |__| |  /  /\  \   | |_| |  |  |/  /          
                |  |  |   |  __  | /  /__\  \  |    /   |      \           
                |  |  |   | |  | | |   __   |  |    \   |  |\   \          
                \     /   | |  | | |  |  |  |  | |\  \  |  | \   \       
                 \___/    |_|  |_| |__|  |__|  |_| \__\ |__|  \__/        
                                                                              
                      - O R C A' S   B I G   F R I E N D -                    
                                      &                                       
                       - I N T E G R A L  F E E D E R -                       
                                                                              
 v1 FN, 2020, v2 2021, v3 2022-2024                                           
------------------------------------------------------------------------------


----------------------
SHARK INTEGRAL PACKAGE
----------------------

Number of atoms                             ...     10
Number of basis functions                   ...     95
Number of shells                            ...     45
Maximum angular momentum                    ...      2
Integral batch strategy                     ... SHARK/LIBINT Hybrid
RI-J (if used) integral strategy            ... SPLIT-RIJ (Revised 2003 algorithm where possible)
Printlevel                                  ...      1
Contraction scheme used                     ... SEGMENTED contraction
Prescreening option                         ... SCHWARTZ
   Thresh                                   ... 2.500e-11
   Tcut                                     ... 2.500e-12
   Tpresel                                  ... 2.500e-12 
Coulomb Range Separation                    ... NOT USED
Exchange Range Separation                   ... NOT USED
Multipole approximations                    ... NOT USED
Finite Nucleus Model                        ... NOT USED
CABS basis                                  ... NOT available
Auxiliary Coulomb fitting basis             ... AVAILABLE
   # of basis functions in Aux-J            ...    300
   # of shells in Aux-J                     ...    100
   Maximum angular momentum in Aux-J        ...      4
Auxiliary J/K fitting basis                 ... NOT available
Auxiliary Correlation fitting basis         ... NOT available
Auxiliary 'external' fitting basis          ... NOT available

Checking pre-screening integrals            ... done (  0.0 sec) Dimension = 45
   => SHARK Basis and OBASIS are compatible. Storing Pre-screening
Shell pair information
Shell pair cut-off parameter TPreSel        ...   2.5e-12
Total number of shell pairs                 ...      1035
Shell pairs after pre-screening             ...      1007
Total number of primitive shell pairs       ...      5170
Primitive shell pairs kept                  ...      3749
          la=0 lb=0:    313 shell pairs
          la=1 lb=0:    363 shell pairs
          la=1 lb=1:    119 shell pairs
          la=2 lb=0:    123 shell pairs
          la=2 lb=1:     74 shell pairs
          la=2 lb=2:     15 shell pairs

Checking whether 4 symmetric matrices of dimension 95 fit in memory
:Max Core in MB      =   4096.00
 MB in use           =      4.77
 MB left             =   4091.23
 MB needed           =      0.14
 Data fit in memory  = YES
Calculating RI/J V-Matrix + Cholesky decomp.... done (  0.0 sec)
Calculating Nuclear repulsion               ... done (  0.0 sec) ENN=    179.567288104601 Eh

Diagonalization of the overlap matrix:
Smallest eigenvalue                        ... 4.806e-03
Time for diagonalization                   ...    0.001 sec
Threshold for overlap eigenvalues          ... 1.000e-07
Number of eigenvalues below threshold      ... 0
Time for construction of square roots      ...    0.000 sec
Total time needed                          ...    0.001 sec

-------------------
DFT GRID GENERATION
-------------------

General Integration Accuracy     IntAcc      ... 4.388
Radial Grid Type                 RadialGrid  ... OptM3 with GC (2021)
Angular Grid (max. ang.)         AngularGrid ... 4 (Lebedev-302)
Angular grid pruning method      GridPruning ... 4 (adaptive)
Weight generation scheme         WeightScheme... mBecke (2022)
Basis function cutoff            BFCut       ... 1.0000e-11
Integration weight cutoff        WCut        ... 1.0000e-14
Partially contracted basis set               ... off
Rotationally invariant grid construction     ... off
Angular grids for H and He will be reduced by one unit

Total number of grid points                  ...    46614
Total number of batches                      ...      733
Average number of points per batch           ...       63
Average number of grid points per atom       ...     4661
Grids setup in   0.1 sec
Initializing property integral containers    ... done (  0.0 sec)

SHARK setup successfully completed in   0.2 seconds

Maximum memory used throughout the entire STARTUP-calculation: 20.0 MB
Occupation numbers will be reassigned to an Aufbau configuration
             **** ENERGY FILE WAS UPDATED (5.en.tmp) ****
Finished Guess after   0.0 sec
Maximum memory used throughout the entire GUESS-calculation: 7.9 MB
----------------------------------------D-I-I-S--------------------------------------------
Iteration    Energy (Eh)           Delta-E    RMSDP     MaxDP     DIISErr   Damp  Time(sec)
-------------------------------------------------------------------------------------------
               ***  Starting incremental Fock matrix formation  ***
    1    -284.2458283865353224     0.00e+00  2.34e-04  2.60e-03  8.32e-03  0.700   0.2
    2    -284.2461072609128223    -2.79e-04  2.18e-04  2.38e-03  6.46e-03  0.700   0.1
                               ***Turning on AO-DIIS***
    3    -284.2463114471178187    -2.04e-04  1.70e-04  1.82e-03  4.71e-03  0.700   0.1
    4    -284.2464533367302693    -1.42e-04  4.17e-04  4.52e-03  3.35e-03  0.000   0.1
                              *** Initializing SOSCF ***
---------------------------------------S-O-S-C-F--------------------------------------
Iteration    Energy (Eh)           Delta-E    RMSDP     MaxDP     MaxGrad    Time(sec)
--------------------------------------------------------------------------------------
    5    -284.2467857329409071    -3.32e-04  2.93e-05  5.76e-04  4.67e-04     0.1
               *** Restarting incremental Fock matrix formation ***
    6    -284.2467864213859912    -6.88e-07  3.26e-05  7.48e-04  1.47e-04     0.2
    7    -284.2467855348993453     8.86e-07  2.33e-05  5.24e-04  4.66e-04     0.1
    8    -284.2467866469391993    -1.11e-06  1.07e-05  1.68e-04  4.05e-05     0.1
    9    -284.2467866098523928     3.71e-08  6.22e-06  1.10e-04  5.94e-05     0.1
   10    -284.2467866894548933    -7.96e-08  1.63e-06  2.76e-05  6.06e-06     0.1
   11    -284.2467866885979220     8.57e-10  1.03e-06  1.91e-05  1.19e-05     0.1
                 **** Energy Check signals convergence ****

               *****************************************************
               *                     SUCCESS                       *
               *           SCF CONVERGED AFTER  11 CYCLES          *
               *****************************************************

             **** ENERGY FILE WAS UPDATED (5.en.tmp) ****

----------------
TOTAL SCF ENERGY
----------------

Total Energy       :       -284.24678668987758 Eh           -7734.74829 eV

Components:
Nuclear Repulsion  :        179.56728810460086 Eh            4886.27432 eV
Electronic Energy  :       -463.81407479447842 Eh          -12621.02262 eV
One Electron Energy:       -743.71403030378917 Eh          -20237.48762 eV
Two Electron Energy:        279.89995550931076 Eh            7616.46500 eV

Virial components:
Potential Energy   :       -566.85238542387310 Eh          -15424.83759 eV
Kinetic Energy     :        282.60559873399546 Eh            7690.08930 eV
Virial Ratio       :          2.00580734409804

DFT components:
N(Alpha)           :       19.999993891110 electrons
N(Beta)            :       19.999993891110 electrons
N(Total)           :       39.999987782220 electrons
E(X)               :      -34.888141636852 Eh       
E(C)               :       -1.783108169583 Eh       
E(XC)              :      -36.671249806435 Eh       

---------------
SCF CONVERGENCE
---------------

  Last Energy change         ...   -8.5697e-10  Tolerance :   1.0000e-08
  Last MAX-Density change    ...    1.9128e-05  Tolerance :   1.0000e-07
  Last RMS-Density change    ...    1.0338e-06  Tolerance :   5.0000e-09
  Last DIIS Error            ...    4.6651e-04  Tolerance :   5.0000e-07
  Last Orbital Gradient      ...    1.1898e-05  Tolerance :   1.0000e-05
  Last Orbital Rotation      ...    1.1026e-05  Tolerance :   1.0000e-05


Total SCF time: 0 days 0 hours 0 min 1 sec 
Finished LeanSCF after   1.7 sec

Maximum memory used throughout the entire LEANSCF-calculation: 10.3 MB



-------------------------------------------------------------------------------
                          DFT DISPERSION CORRECTION                            
-------------------------------------------------------------------------------
-------------------------   ----------------
Dispersion correction           -0.006991566
-------------------------   ----------------


-------------------------   --------------------
FINAL SINGLE POINT ENERGY      -284.253778255475
-------------------------   --------------------

------------------------------------------------------------------------------
                         ORCA SCF GRADIENT CALCULATION
------------------------------------------------------------------------------

Nuc. rep. gradient        (SHARK) ... done (  0.0 sec)
HCore & Overlap gradient  (SHARK) ... done (  0.0 sec)
Split-RIJ-J gradient      (SHARK) ... done (  0.2 sec)
XC gradient                       ... done (  0.7 sec)
Dispersion correction             ... done (  0.0 sec)

-------------------
DISPERSION GRADIENT
-------------------

   1   C   :   -0.000614861   -0.000533503    0.001007874
   2   C   :   -0.000210879    0.000531810   -0.000612416
   3   H   :   -0.000548332    0.000933052   -0.000065876
   4   H   :   -0.000286793    0.000476017    0.000304143
   5   N   :    0.001142681   -0.001113346   -0.000201204
   6   O   :    0.000106951    0.000347528   -0.000257271
   7   H   :   -0.000480045   -0.000517581   -0.000362741
   8   H   :    0.000531843    0.000310809    0.000235186
   9   H   :    0.000181138   -0.000067925   -0.000257281
  10   O   :    0.000178297   -0.000366862    0.000209586

Difference to translation invariance:
           :   -0.0000000000    0.0000000000    0.0000000000

Difference to rotation invariance:
           :   -0.0000000000    0.0000000000   -0.0000000000

Norm of the Dispersion gradient    ...    0.0028496538
RMS gradient                       ...    0.0005202732
MAX gradient                       ...    0.0011426809

------------------
CARTESIAN GRADIENT
------------------

   1   C   :   -0.002202530   -0.001239058   -0.000141277
   2   C   :    0.001493225   -0.004054963    0.006317887
   3   H   :   -0.000236244   -0.000572565    0.000677059
   4   H   :   -0.000168407    0.000543083    0.000115738
   5   N   :    0.001785174    0.000808887   -0.001315650
   6   O   :    0.004365818    0.005921787   -0.006949471
   7   H   :   -0.000643463    0.000475986   -0.000102411
   8   H   :    0.000308052   -0.000286646    0.000299305
   9   H   :   -0.000797435   -0.002196213    0.001330563
  10   O   :   -0.003904190    0.000599702   -0.000231744

Difference to translation invariance:
           :    0.0000000000    0.0000000000   -0.0000000000

Difference to rotation invariance:
           :   -0.0000043221    0.0001508697    0.0000488240

Norm of the Cartesian gradient     ...    0.0140702472
RMS gradient                       ...    0.0025688639
MAX gradient                       ...    0.0069494708

-------
TIMINGS
-------

Total SCF gradient time     ....        0.836 sec

Densities                   ....       0.000 sec  (  0.0%)
One electron gradient       ....       0.022 sec  (  2.7%)
RI-J Coulomb gradient       ....       0.150 sec  ( 18.0%)
XC gradient                 ....       0.663 sec  ( 79.3%)

Maximum memory used throughout the entire SCFGRAD-calculation: 13.4 MB
------------------------------------------------------------------------------
                         ORCA GEOMETRY RELAXATION STEP
------------------------------------------------------------------------------

Reading the OPT-File                    .... done
Getting information on internals        .... done
Copying old internal coords+grads       .... done
Making the new internal coordinates     .... (2022 redundants) done
Validating the new internal coordinates .... (2022 redundants) done
Calculating the B-matrix                .... done
Calculating the G,G- and P matrices     .... done
Transforming gradient to internals      .... done
Projecting the internal gradient        .... done
Number of atoms                         ....  10
Number of internal coordinates          ....  36
Current Energy                          ....  -284.253778255 Eh
Current gradient norm                   ....     0.014070247 Eh/bohr
Maximum allowed component of the step   ....  0.300
Current trust radius                    ....  0.300
Updating the Hessian (BFGS)             .... done
Forming the augmented Hessian           .... done
Diagonalizing the augmented Hessian     .... done
Last element of RFO vector              ....  0.992905151
Lowest eigenvalues of augmented Hessian:
 -0.000472643  0.010594615  0.016854508  0.019230585  0.034430002
Length of the computed step             ....  0.119758716
The final length of the internal step   ....  0.119758716
Converting the step to Cartesian space:
 Initial RMS(Int)=    0.0199597861
Transforming coordinates:
 Iter   0:  RMS(Cart)=    0.0153230959 RMS(Int)=    1.0395418705
done
Storing new coordinates                 .... done
The predicted energy change is          ....    -0.000239711
Previously predicted energy change      ....    -0.001621142
Actually observed energy change         ....    -0.001795728
Ratio of predicted to observed change   ....     1.107693489
New trust radius                        ....     0.450000000

                                .--------------------.
          ----------------------|Geometry convergence|-------------------------
          Item                value                   Tolerance       Converged
          ---------------------------------------------------------------------
          Energy change      -0.0017957280            0.0000050000      NO
          RMS gradient        0.0016597157            0.0001000000      NO
          MAX gradient        0.0074526888            0.0003000000      NO
          RMS step            0.0199597861            0.0020000000      NO
          MAX step            0.0467312234            0.0040000000      NO
          -------------------------------------------------------------------------
          ........................................................
          Max(Bonds)      0.0090      Max(Angles)    0.98
          Max(Dihed)        2.68      Max(Improp)    0.00
          ---------------------------------------------------------------------

The optimization has not yet converged - more geometry cycles are needed


    ---------------------------------------------------------------------------
                         Redundant Internal Coordinates
                            (Angstroem and degrees)

        Definition                    Value    dE/dq     Step     New-Value
    ----------------------------------------------------------------------------
     1. B(C   1,C   0)                1.5499  0.000160  0.0017    1.5516   
     2. B(N   4,H   2)                1.0192  0.000089  0.0004    1.0196   
     3. B(N   4,C   0)                1.4732 -0.001097  0.0035    1.4767   
     4. B(N   4,H   3)                1.0180  0.000301  0.0003    1.0182   
     5. B(O   5,C   1)                1.3429 -0.007453  0.0085    1.3514   
     6. B(H   6,C   0)                1.1022 -0.000175  0.0010    1.1032   
[...]

Components:
Nuclear Repulsion  :        179.24496401997308 Eh            4877.50344 eV
Electronic Energy  :       -463.49228316545742 Eh          -12612.26622 eV
One Electron Energy:       -743.11712445106923 Eh          -20221.24498 eV
Two Electron Energy:        279.62484128561181 Eh            7608.97876 eV

Virial components:
Potential Energy   :       -566.82575069990139 Eh          -15424.11282 eV
Kinetic Energy     :        282.57843155441714 Eh            7689.35004 eV
Virial Ratio       :          2.00590592700896

DFT components:
N(Alpha)           :       20.000005369525 electrons
N(Beta)            :       20.000005369525 electrons
N(Total)           :       40.000010739049 electrons
E(X)               :      -34.881476624098 Eh       
E(C)               :       -1.783034657511 Eh       
E(XC)              :      -36.664511281609 Eh       

---------------
SCF CONVERGENCE
---------------

  Last Energy change         ...   -2.2343e-09  Tolerance :   1.0000e-08
  Last MAX-Density change    ...    1.3058e-05  Tolerance :   1.0000e-07
  Last RMS-Density change    ...    9.5737e-07  Tolerance :   5.0000e-09
  Last DIIS Error            ...    8.6263e-04  Tolerance :   5.0000e-07
  Last Orbital Gradient      ...    1.1348e-05  Tolerance :   1.0000e-05
  Last Orbital Rotation      ...    1.0968e-05  Tolerance :   1.0000e-05


----------------
ORBITAL ENERGIES
----------------

  NO   OCC          E(Eh)            E(eV) 
   0   2.0000     -18.791544      -511.3439 
   1   2.0000     -18.737609      -509.8763 
   2   2.0000     -14.034434      -381.8964 
   3   2.0000     -10.021645      -272.7028 
   4   2.0000      -9.962404      -271.0908 
   5   2.0000      -0.990839       -26.9621 
   6   2.0000      -0.914483       -24.8843 
   7   2.0000      -0.836903       -22.7733 
   8   2.0000      -0.647377       -17.6160 
   9   2.0000      -0.522926       -14.2295 
  10   2.0000      -0.485342       -13.2068 
  11   2.0000      -0.453401       -12.3377 
  12   2.0000      -0.433797       -11.8042 
  13   2.0000      -0.390100       -10.6151 
  14   2.0000      -0.363199        -9.8831 
  15   2.0000      -0.336039        -9.1441 
  16   2.0000      -0.313357        -8.5269 
  17   2.0000      -0.253352        -6.8940 
  18   2.0000      -0.251640        -6.8475 
  19   2.0000      -0.203430        -5.5356 
  20   0.0000      -0.011211        -0.3051 
  21   0.0000       0.032045         0.8720 
  22   0.0000       0.082898         2.2558 
  23   0.0000       0.102690         2.7943 
  24   0.0000       0.118610         3.2275 
  25   0.0000       0.147291         4.0080 
  26   0.0000       0.163907         4.4601 
  27   0.0000       0.200515         5.4563 
  28   0.0000       0.287320         7.8184 
  29   0.0000       0.343309         9.3419 
  30   0.0000       0.489251        13.3132 
*Only the first 10 virtual orbitals were printed.

                    ********************************
                    * MULLIKEN POPULATION ANALYSIS *
                    ********************************

-----------------------
MULLIKEN ATOMIC CHARGES
-----------------------
   0 C :   -0.191101
   1 C :    0.527157
   2 H :    0.268098
   3 H :    0.265472
   4 N :   -0.622762
   5 O :   -0.461029
   6 H :    0.143263
   7 H :    0.154613
   8 H :    0.331931
   9 O :   -0.415643
Sum of atomic charges:    0.0000000

--------------------------------
MULLIKEN REDUCED ORBITAL CHARGES
--------------------------------
  0 C s       :     3.233713  s :     3.233713
      pz      :     1.025880  p :     2.911344
      px      :     0.885364
      py      :     1.000100
      dz2     :     0.008848  d :     0.046044
      dxz     :     0.007585
      dyz     :     0.006547
      dx2y2   :     0.009335
      dxy     :     0.013728

  1 C s       :     2.989571  s :     2.989571
      pz      :     0.783461  p :     2.362223
      px      :     0.741488
      py      :     0.837274
      dz2     :     0.015990  d :     0.121049
      dxz     :     0.033172
      dyz     :     0.011348
      dx2y2   :     0.029347
      dxy     :     0.031190

  2 H s       :     0.708529  s :     0.708529
      pz      :     0.009091  p :     0.023373
      px      :     0.005106
      py      :     0.009175

  3 H s       :     0.710865  s :     0.710865
      pz      :     0.008201  p :     0.023663
      px      :     0.008566
      py      :     0.006896

  4 N s       :     3.615058  s :     3.615058
      pz      :     1.283541  p :     3.981763
      px      :     1.242971
      py      :     1.455250
      dz2     :     0.001959  d :     0.025942
      dxz     :     0.006451
      dyz     :     0.007743
      dx2y2   :     0.005424
      dxy     :     0.004365

  5 O s       :     3.845727  s :     3.845727
      pz      :     1.622605  p :     4.590718
      px      :     1.347552
      py      :     1.620562
      dz2     :     0.005761  d :     0.024584
      dxz     :     0.003854
      dyz     :     0.004636
      dx2y2   :     0.002231
      dxy     :     0.008102

  6 H s       :     0.845727  s :     0.845727
      pz      :     0.002409  p :     0.011010
      px      :     0.004923
      py      :     0.003678

  7 H s       :     0.834204  s :     0.834204
      pz      :     0.006232  p :     0.011184
      px      :     0.002058
      py      :     0.002893

  8 H s       :     0.628017  s :     0.628017
      pz      :     0.008203  p :     0.040052
      px      :     0.015335
      py      :     0.016514

  9 O s       :     3.871522  s :     3.871522
      pz      :     1.558113  p :     4.516546
      px      :     1.374360
      py      :     1.584074
      dz2     :     0.002716  d :     0.027574
      dxz     :     0.006946
      dyz     :     0.002187
      dx2y2   :     0.008380
      dxy     :     0.007344



                     *******************************
                     * LOEWDIN POPULATION ANALYSIS *
                     *******************************

----------------------
LOEWDIN ATOMIC CHARGES
----------------------
   0 C :   -0.109154
   1 C :    0.117794
   2 H :    0.138297
   3 H :    0.138000
   4 N :   -0.258886
   5 O :   -0.157771
   6 H :    0.082645
   7 H :    0.095257
   8 H :    0.170455
   9 O :   -0.216636

-------------------------------
LOEWDIN REDUCED ORBITAL CHARGES
-------------------------------
  0 C s       :     2.919235  s :     2.919235
      pz      :     1.065104  p :     3.087623
      px      :     0.975451
      py      :     1.047068
      dz2     :     0.018400  d :     0.102296
      dxz     :     0.017221
      dyz     :     0.014540
      dx2y2   :     0.021320
      dxy     :     0.030815

  1 C s       :     2.866025  s :     2.866025
      pz      :     0.856617  p :     2.728206
      px      :     0.938239
      py      :     0.933349
      dz2     :     0.035266  d :     0.287975
      dxz     :     0.081964
      dyz     :     0.025953
      dx2y2   :     0.071608
      dxy     :     0.073185

  2 H s       :     0.783430  s :     0.783430
      pz      :     0.029490  p :     0.078274
      px      :     0.014766
      py      :     0.034017

  3 H s       :     0.783183  s :     0.783183
      pz      :     0.028746  p :     0.078817
      px      :     0.027926
      py      :     0.022145

  4 N s       :     3.203528  s :     3.203528
      pz      :     1.290091  p :     4.002033
      px      :     1.275355
      py      :     1.436588
      dz2     :     0.004392  d :     0.053325
      dxz     :     0.014584
      dyz     :     0.014488
      dx2y2   :     0.010446
      dxy     :     0.009415

  5 O s       :     3.498368  s :     3.498368
      pz      :     1.624871  p :     4.608527
      px      :     1.363290
      py      :     1.620366
      dz2     :     0.009535  d :     0.050876
      dxz     :     0.011367
      dyz     :     0.007670
      dx2y2   :     0.004849
      dxy     :     0.017456

  6 H s       :     0.877349  s :     0.877349
      pz      :     0.007094  p :     0.040006
      px      :     0.018866
      py      :     0.014046

  7 H s       :     0.865363  s :     0.865363
      pz      :     0.024444  p :     0.039380
      px      :     0.006048
      py      :     0.008888

  8 H s       :     0.703942  s :     0.703942
      pz      :     0.022961  p :     0.125603
      px      :     0.048524
      py      :     0.054118

  9 O s       :     3.563691  s :     3.563691
      pz      :     1.545104  p :     4.597182
      px      :     1.457524
      py      :     1.594553
      dz2     :     0.007147  d :     0.055763
      dxz     :     0.011510
      dyz     :     0.003241
      dx2y2   :     0.015866
      dxy     :     0.018000



                      *****************************
                      * MAYER POPULATION ANALYSIS *
                      *****************************

  NA   - Mulliken gross atomic population
  ZA   - Total nuclear charge
  QA   - Mulliken gross atomic charge
  VA   - Mayer's total valence
  BVA  - Mayer's bonded valence
  FA   - Mayer's free valence

  ATOM       NA         ZA         QA         VA         BVA        FA
  0 C      6.1911     6.0000    -0.1911     3.7789     3.7789     0.0000
  1 C      5.4728     6.0000     0.5272     3.9600     3.9600     0.0000
  2 H      0.7319     1.0000     0.2681     0.9055     0.9055     0.0000
  3 H      0.7345     1.0000     0.2655     0.9102     0.9102     0.0000
  4 N      7.6228     7.0000    -0.6228     2.9118     2.9118     0.0000
  5 O      8.4610     8.0000    -0.4610     2.0607     2.0607    -0.0000
  6 H      0.8567     1.0000     0.1433     0.9487     0.9487     0.0000
  7 H      0.8454     1.0000     0.1546     0.9452     0.9452     0.0000
  8 H      0.6681     1.0000     0.3319     0.9259     0.9259     0.0000
  9 O      8.4156     8.0000    -0.4156     2.1142     2.1142    -0.0000

  Mayer bond orders larger than 0.100000
B(  0-C ,  1-C ) :   0.9068 B(  0-C ,  4-N ) :   0.9580 B(  0-C ,  6-H ) :   0.9376 
B(  0-C ,  7-H ) :   0.9413 B(  1-C ,  5-O ) :   1.1297 B(  1-C ,  9-O ) :   1.9242 
B(  2-H ,  4-N ) :   0.9031 B(  3-H ,  4-N ) :   0.9012 B(  4-N ,  8-H ) :   0.1319 
B(  5-O ,  8-H ) :   0.7766 B(  5-O ,  9-O ) :   0.1082 

-------
TIMINGS
-------

Total SCF time: 0 days 0 hours 0 min 1 sec 

Total time                  ....       1.006 sec
Sum of individual times     ....       0.852 sec  ( 84.6%)

SCF preparation             ....       0.024 sec  (  2.4%)
Fock matrix formation       ....       0.814 sec  ( 80.9%)
  Startup                   ....       0.000 sec  (  0.0% of F)
  Split-RI-J                ....       0.196 sec  ( 24.0% of F)
  XC integration            ....       0.741 sec  ( 91.0% of F)
    Basis function eval.    ....       0.257 sec  ( 34.7% of XC)
    Density eval.           ....       0.131 sec  ( 17.7% of XC)
    XC-Functional eval.     ....       0.199 sec  ( 26.8% of XC)
    XC-Potential eval.      ....       0.129 sec  ( 17.4% of XC)
Diagonalization             ....       0.000 sec  (  0.0%)
Density matrix formation    ....       0.001 sec  (  0.1%)
Total Energy calculation    ....       0.000 sec  (  0.0%)
Population analysis         ....       0.008 sec  (  0.7%)
Orbital Transformation      ....       0.001 sec  (  0.1%)
Orbital Orthonormalization  ....       0.000 sec  (  0.0%)
DIIS solution               ....       0.001 sec  (  0.1%)
SOSCF solution              ....       0.003 sec  (  0.3%)
Finished LeanSCF after   1.0 sec

Maximum memory used throughout the entire LEANSCF-calculation: 10.7 MB



-------------------------------------------------------------------------------
                          DFT DISPERSION CORRECTION                            
-------------------------------------------------------------------------------
Active option DFTDOPT                   ...         2   
Final C6-coefficient scaling factor     ...     1.250
Final VDW-radii scaling factor          ...     1.100
Damping factor alpha                    ...    20.000
-------------------------   ----------------
Dispersion correction           -0.006902911
-------------------------   ----------------


-------------------------   --------------------
FINAL SINGLE POINT ENERGY      -284.254222056638
-------------------------   --------------------

                                *** OPTIMIZATION RUN DONE ***


------------------------------------------------------------------------------
                              ORCA PROPERTY CALCULATIONS
------------------------------------------------------------------------------

GBWName                                 ... 5.gbw
Number of atoms                         ...     10
Number of basis functions               ...     95
Max core memory                         ...   4096 MB

Electric properties:
Dipole moment                           ... YES
Quadrupole moment                       ...  NO
Static polarizability (Dipole/Dipole)   ...  NO
Static polarizability (Dipole/Quad.)    ...  NO
Static polarizability (Quad./Quad.)     ...  NO
Static polarizability (Velocity)        ...  NO
Static hyperpolarizability              ...  NO

Atomic electric properties:
Dipole moment                           ...  NO
Quadrupole moment                       ...  NO
Static polarizability                   ...  NO

Choice of electric origin               ... Center of mass
Position of electric origin             ...    -8.772318    -4.063189     1.380158

General magnetic properties:
Magnetizability                         ...  NO

EPR properties:
g-Tensor (aka g-matrix)                 ...  NO
Zero-Field splitting spin-orbit         ...  NO
Zero-field splitting spin-spin          ...  NO
Hyperfine couplings                     ...  NO (   0 nuclei)
Quadrupole couplings                    ...  NO (   0 nuclei)
Contact density                         ...  NO (   0 nuclei)

NMR properties:
Chemical shifts                         ...  NO (   0 nuclei)
Spin-rotation constants                 ...  NO (   0 nuclei)
Spin-spin couplings                     ...  NO (   0 nuclei,    0 pairs)

Choice of magnetic origin               ... GIAO
Position of magnetic origin             ...     0.000000     0.000000     0.000000

Properties with geometric perturbations:
SCF Hessian                             ...  NO
IR spectrum                             ...  NO
VCD spectrum                            ...  NO
X-ray spectroscopy properties:
SCF XES/XAS/RIXS spectra                ...  NO

SCF SOC stabilization energy            ...  NO
Diagonal Born-Oppenheimer correction    ...  NO

-------------
DIPOLE MOMENT
-------------

Method             : SCF
Type of density    : Electron Density
Multiplicity       :   1
Irrep              :   0
Energy             :  -284.2473191454843118 Eh
Basis              : AO
                                X                 Y                 Z
Electronic contribution:      2.152737005      -3.605597849       1.349223298
Nuclear contribution   :     -3.344997507       5.345654830      -1.807704914
                        -----------------------------------------
Total Dipole Moment    :     -1.192260502       1.740056981      -0.458481616
                        -----------------------------------------
Magnitude (a.u.)       :      2.158584906
Magnitude (Debye)      :      5.486686796



--------------------
Rotational spectrum 
--------------------
 
Rotational constants in cm-1:             0.333240             0.134411             0.099535 
Rotational constants in MHz :          9990.278724          4029.534795          2983.981660 

Dipole components along the rotational axes: 
x,y,z [a.u.] :    -2.126974     0.367020     0.027672 
x,y,z [Debye]:    -5.406339     0.932890     0.070336 

 

Dipole moment calculation done in   0.0 sec 

Maximum memory used throughout the entire PROP-calculation: 6.2 MB

--------------------------------
SUGGESTED CITATIONS FOR THIS RUN
--------------------------------

Below you find a list of papers that are relevant to this ORCA run
We neither can nor want to force you to cite these papers, but we appreciate if you do
You receive ORCA, which is the product of decades of hard work by many enthusiastic individuals, for free
The only thing we kindly ask in return is that you cite our papers,
We deeply appreciate it, if you show your appreciation for ORCA by not just citing the generic ORCA reference.

Please note that relegating all ORCA citations to the supporting information does *not* help us.
SI sections are not indexed - citations you put there will not count into any citation statistics
But we need these citations in order to attract the funding resources that allow us to do what we are doing

Therefore, if you are a happy ORCA user, please consider citing a few of the papers listed below in the main body of your paper

In addition to the list printed below, the program has created the file 5.bibtex that contains the list in bibtex format
You can import this file easily into all common literature databanks and citation aid programs


List of essential papers. We consider these as the minimum necessary citations

  1. Neese, F.
     Software update: the ORCA program system, version 6.0
     WIRES Comput. Molec. Sci. 2025 15(1), e70019
     doi.org/10.1002/wcms.7019

List of papers to cite with high priority. The work reported in these papers was absolutely
necessary for this run to complete.
Our perspective: the developers of density functionals and basis sets usually get cited in chemistry papers
Good! But without the algorithms to do something with them, the functionals or basis sets would not do anything.
Hence, in our opinion, the algorithm design and method developments papers are equally worthy of getting cited

  1. Neese, F.
     An improvement of the resolution of the identity approximation for the formation of the Coulomb matrix
     J. Comp. Chem. 2003 24(14), 1740-1747
     doi.org/10.1002/jcc.10318
  2. Grimme, S.
     Semiempirical GGA-type density functional constructed with a long-range dispersion correction
     J.Comput.Chem. 2006 27(15), 1787-1799
     doi.org/10.1002/jcc.20495
  3. Neese, F.
     The SHARK Integral Generation and Digestion System
     J. Comp. Chem. 2022 44(3), 381
     doi.org/10.1002/jcc.26942

List of suggested additional citations. These are papers that are important in the 'surrounding' of 
of this run, or papers that preceded the highly important papers. If you like your results we are grateful for a citation.

  1. Neese, F.
     The ORCA program system
     WIRES Comput. Molec. Sci. 2012 2(1), 73-78
     doi.org/10.1002/wcms.81
  2. Neese, F.
     Software update: the ORCA program system, version 4.0
     WIRES Comput. Molec. Sci. 2018 8(1), 1-6
     doi.org/10.1002/wcms.1327
  3. Neese, F.; Wennmohs, F.; Becker, U.; Riplinger, C.
     The ORCA quantum chemistry program package
     J. Chem. Phys. 2020 152(22), 224108
     doi.org/10.1063/5.0004608
  4. Neese, F.
     Software update: The ORCA program system—Version 5.0
     WIRES Comput. Molec. Sci. 2022 12(1), e1606
     doi.org/10.1002/wcms.1606

List of optional additional citations

  1. Neese, F.
     Approximate second-order SCF convergence for spin unrestricted wavefunctions
     Chem. Phys. Lett. 2000 325(1-3), 93-98
     doi.org/10.1016/s0009-2614(00)00662-x

Timings for individual modules:

Sum of individual times          ...       29.636 sec (=   0.494 min)
Startup calculation              ...        2.200 sec (=   0.037 min)   7.4 %
SCF iterations                   ...       17.770 sec (=   0.296 min)  60.0 %
Property calculations            ...        0.041 sec (=   0.001 min)   0.1 %
SCF Gradient evaluation          ...        9.617 sec (=   0.160 min)  32.4 %
Geometry relaxation              ...        0.009 sec (=   0.000 min)   0.0 %
                             ****ORCA TERMINATED NORMALLY****
TOTAL RUN TIME: 0 days 0 hours 0 minutes 29 seconds 878 msec
