
                                 *****************
                                 * O   R   C   A *
                                 *****************

                                            #,                                       
                                            ###                                      
                                            ####                                     
                                            #####                                    
                                            ######                                   
                                           ########,                                 
                                     ,,################,,,,,                         
                               ,,#################################,,                 
                          ,,##########################################,,             
                       ,#########################################, ''#####,          
                    ,#############################################,,   '####,        
                  ,##################################################,,,,####,       
                ,###########''''           ''''###############################       
              ,#####''   ,,,,##########,,,,          '''####'''          '####       
            ,##' ,,,,###########################,,,                        '##       
           ' ,,###''''                  '''############,,,                           
         ,,##''                                '''############,,,,        ,,,,,,###''
      ,#''                                            '''#######################'''  
     '                                                          ''''####''''         
             ,#######,   #######,   ,#######,      ##                                
            ,#'     '#,  ##    ##  ,#'     '#,    #''#        ,####,    ,#,          
            ##       ##  ##   ,#'  ##            #'  '#       #'       ,# #          
            ##       ##  #######   ##           ,######,      #####,      #          
            '#,     ,#'  ##    ##  '#,     ,#' ,#      #,     #,   #      #          
             '#######'   ##     ##  '#######'  #'      '#     '####' #    #          



                #########################################################
                #                        -***-                          #
                #          Department of theory and spectroscopy        #
                #                                                       #
                #                      Frank Neese                      #
                #                                                       #
                #     Directorship, Architecture, Infrastructure        #
                #                    SHARK, DRIVERS                     #
                #        Core code/Algorithms in most modules           #
                #                                                       #
                #        Max Planck Institute fuer Kohlenforschung      #
                #                Kaiser Wilhelm Platz 1                 #
                #                 D-45470 Muelheim/Ruhr                 #
                #                      Germany                          #
                #                                                       #
                #                  All rights reserved                  #
                #                        -***-                          #
                #########################################################


                         Program Version 6.1.0  -  RELEASE   -
                                (GIT: $679e74b$)
                          ($2025-06-10 18:02:51 +0200$)


 With contributions from (in alphabetic order):
[Max-Planck-Institut fuer Kohlenforschung]                               
  Daniel Aravena         : Magnetic Suceptibility                        
  Michael Atanasov       : Ab Initio Ligand Field Theory (pilot matlab implementation)
  Alexander A. Auer      : GIAO ZORA, VPT2 properties, NMR spectrum      
  Ute Becker             : All parallelization in ORCA, NUMFREQ, NUMCALC 
  Giovanni Bistoni       : ED, misc. LED, open-shell LED, HFLD           
  Dmytro Bykov           : pre 5.0 version of the SCF Hessian            
  Marcos Casanova-Páez   : Triplet and SCS-CIS(D). UHF-(DLPNO)-IP/EA/STEOM-CCSD. UHF-CVS-IP/STEOM-CCSD   
  Vijay G. Chilkuri      : MRCI spin determinant printing, contributions to CSF-ICE 
  Pauline Colinet        : FMM embedding                                 
  Dipayan Datta          : RHF DLPNO-CCSD density                        
  Achintya Kumar Dutta   : EOM-CC, STEOM-CC                              
  Nicolas Foglia         : Exact transition moments, OPA infrastructure, MCD improvements    
  Dmitry Ganyushin       : Spin-Orbit,Spin-Spin,Magnetic field MRCI      
  Miquel Garcia-Rates    : C-PCM and meta-GGA Hessian, CCSD/C-PCM, Gaussian charge scheme 
  Tiago L. C. Gouveia    : GS-ROHF, GS-ROCIS                             
  Yang Guo               : DLPNO-NEVPT2, F12-NEVPT2, CIM, IAO-localization        
  Andreas Hansen         : Spin unrestricted coupled pair/coupled cluster methods 
  Ingolf Harden          : AUTO-CI MPn and infrastructure                
  Benjamin Helmich-Paris : MC-RPA, TRAH-(SCF,CASSCF), AVAS, COSX integrals, SCF dyn. polar., MC-PDFT, srDFT 
  Lee Huntington         : MR-EOM, pCC                                   
  Robert Izsak           : Overlap fitted RIJCOSX, COSX-SCS-MP3, EOM     
  Riya Kayal             : Wick's Theorem for AUTO-CI, AUTO-CI UHF-CCSDT 
  Emily Kempfer          : AUTO-CI RHF CISDT and CCSDT, approximate NEVPT4
  Christian Kollmar      : KDIIS, OOCD, Brueckner-CCSD(T), CCSD density, CASPT2, CASPT2-K, improved NEVPT2 
  Axel Koslowski         : Symmetry handling                             
  Simone Kossmann        : meta-GGA functionals, TD-DFT gradient, OOMP2, (MP2 Hessian; deprecated post 5.0) 
  Lucas Lang             : DCDCAS, Hyperfine gauge corrections, ICE-SOC+SSC
  Marvin Lechner         : AUTO-CI (C++ implementation), FIC-MRCC        
  Spencer Leger          : CASSCF response                               
  Dagmar Lenk            : GEPOL surface, SMD, ORCA-2-JSON               
  Dimitrios Liakos       : Extrapolation schemes; Compound Job, Property file
  Dimitrios Manganas     : Further ROCIS development; embedding schemes. LFT, Crystal Embedding 
  Dimitrios Pantazis     : SARC Basis sets                               
  Anastasios Papadopoulos: AUTO-CI, single reference methods and gradients 
  Taras Petrenko         : pre 6.0 DFT Hessian and TD-DFT gradient,  ECA, NRVS 
  Petra Pikulova         : Analytic Raman intensities                    
  Peter Pinski           : DLPNO-MP2, DLPNO-MP2 Gradient                 
  Shashank Vittal Rao    : ES-AILFT, MagRelax                            
  Christoph Reimann      : Effective Core Potentials                     
  Marius Retegan         : Local ZFS, SOC                                
  Christoph Riplinger    : Optimizer, TS searches, QM/MM, DLPNO-CCSD(T), (RO)-DLPNO pert. Triples 
  Michael Roemelt        : Original ROCIS implementation, recursive CI coupling coefficients
  Masaaki Saitow         : Open-shell DLPNO-CCSD energy and density      
  Barbara Sandhoefer     : DKH picture change effects                    
  Yorick L. A. Schmerwitz: GMF and freeze-and-release deltaSCF, NEB S-IDPP initial path                    
  Kantharuban Sivalingam : CASSCF convergence/infrastructure, NEVPT2, NEVPT3, NEVPT4(SD), FIC-MRCI and CEPA variants
  Bernardo de Souza      : ESD, SOC TD-DFT                               
  Georgi L. Stoychev     : AutoAux, RI-MP2 NMR, DLPNO-MP2 response, X2C  
  Van Anh Tran           : RI-MP2 g-tensors                              
  Willem Van den Heuvel  : Paramagnetic NMR                              
  Zikuan Wang            : NOTCH, Electric field optimization            
  Frank Wennmohs         : Technical directorship and infrastructure     
  Hang Xu                : AUTO-CI-Response properties                   
                                                                         
[FACCTs GmbH]                                                            
  Markus Bursch, Nicolas Foglia, Miquel Garcia-Rates, Ingolf Harden, Hagen Neugebauer, Anastasios Papadopoulos, 
  Christoph Riplinger, Bernardo de Souza, Georgi L. Stoychev                                                    
                                                                 
  APM, various basis sets, CI-OPT, improved COSX, DLPNO-Multilevel,           
  DOCKER, DRACO, updates on ESD, Fragmentator, GOAT, IRC, LR-CPCM, L-BFGS, MBIS, meta-GGA TD-DFT gradient, ML-optimized integration grids, 
  MM, NACMEs, nearIR, NEB, NEB-TS, NL-DFT gradient (VV10), 2- and 3-layer-ONIOM, interface openCOSMO-RS, QMMM,   
  Crystal-QMMM, RESP, rigid body optimization, SF, symmetry and pop. for TD-DFT, various functionals, SOLVATOR                                   
                                                                         
[Other institutions]                                                     
  V. Asgeirsson          : NEB                                           
  Christoph Bannwarth    : sTDA-DFT, sTD-DFT, PBEh-3c, B97-3c, D3        
  Giovanni Bistoni       : ETS/NOCV, ADLD/ADEX, COVALED                  
  Martin Brehm           : Molecular dynamics                            
  Ronald Cardenas        : ETS/NOCV                                      
  Martina Colucci        : COVALED                                       
  Sebastian Ehlert       : rSCAN, r2SCAN, r2SCAN-3c, D4, dhf basis sets  
  Marvin Friede          : D4 for Fr, Ra, Ac-Lr                          
  Lars Goerigk           : TD-DFT with DH, B97 family of functionals     
  Stefan Grimme          : VdW corrections, initial TS optimization, DFT functionals, gCP, sTDA/sTD-DF 
  Waldemar Hujo          : DFT-NL                                        
  H. Jonsson             : NEB                                           
  Holger Kruse           : gCP                                           
  Marcel Mueller         : wB97X-3c, vDZP basis set                      
  Hagen Neugebauer       : wr2SCAN, Native XTB                           
  Gianluca Regni         : ADLD/ADEX                                     
  Tobias Risthaus        : pre 6.0 range-separated hybrid DFT and stability analysis
  Lukas Wittmann         : regularized MP2, r2SCAN double-hybrids, wr2SCAN        
                                                                         
We gratefully acknowledge several colleagues who have allowed us to      
interface, adapt or use parts of their codes:                            
  Ed Valeev, F. Pavosevic, A. Kumar             : LibInt (2-el integral package), F12 methods 
  Garnet Chan, S. Sharma, J. Yang, R. Olivares  : DMRG                   
  Ulf Ekstrom                                   : XCFun DFT Library      
  Mihaly Kallay                                 : mrcc  (arbitrary order and MRCC methods)
  Frank Weinhold                                : gennbo (NPA and NBO analysis)           
  Simon Mueller                                 : openCOSMO-RS                            
  Christopher J. Cramer and Donald G. Truhlar   : smd solvation model                     
  S Lehtola, MJT Oliveira, MAL Marques          : LibXC Library                           
  Liviu Ungur et al                             : ANISO software                          


 Your calculation uses the libint2 library for the computation of 2-el integrals
 For citations please refer to: http://libint.valeyev.net

 Your ORCA version has been built with support for libXC version: 7.0.0
 For citations please refer to: https://libxc.gitlab.io

 This ORCA versions uses:
   CBLAS   interface :  Fast vector & matrix operations
   LAPACKE interface :  Fast linear algebra routines
   SCALAPACK package :  Parallel linear algebra routines
   Shared memory     :  Shared parallel matrices
   BLAS/LAPACK       :  OpenBLAS 0.3.29  USE64BITINT DYNAMIC_ARCH NO_AFFINITY Haswell SINGLE_THREADED
        Core in use  :  Haswell
   Copyright (c) 2011-2014, The OpenBLAS Project


  ***********************************
  * Starting time: Wed Aug  6 21:19:45 2025
  * Host name:     debian
  * Process ID:    162739
  * Working dir.:  /home/uni/mm-project/g
  ***********************************



***************************************
The coordinates will be read from file: g-input-coordinates.xyz
***************************************


Your calculation utilizes the semiempirical GFN2-xTB method
Please cite in your paper:
Bannwarth, C.; Ehlert S.; Grimme, S. J. Chem. Theory Comput. 2019, 15, 1652.
   

================================================================================

================================================================================
                                        WARNINGS
                       Please study these warnings very carefully!
================================================================================


================================================================================
 STARTING AUTOMATIC FRAGMENTATION: 
================================================================================

WARNING: Geometry Optimization
  ===> : Switching off AutoStart
         For restart on a previous wavefunction, please use MOREAD

WARNING: Found dipole moment calculation with XTB calculation
  ===> : Switching off dipole moment calculation


================================================================================
                                       INPUT FILE
================================================================================
NAME = g.inp
|  1> ! xtb goat
|  2> 
|  3> %pal
|  4>   nprocs=9
|  5> end
|  6> 
|  7> * xyzfile 0 1 g-input-coordinates.xyz
|  8> 
|  9>                          ****END OF INPUT****
================================================================================

                       *****************************
                       * Geometry Optimization Run *
                       *****************************


                       *********************************
                       *              GOAT             *
                       * Global Optimization Algorithm *
                       *********************************

Geometry optimization settings:
Update method            Update   .... BFGS
Choice of coordinates    CoordSys .... (2022) Redundant Internals
Initial Hessian          InHess   .... Almloef's Model
Max. no of cycles        MaxIter  .... 50

Convergence Tolerances:
Energy Change            TolE     ....  5.0000e-06 Eh
Max. Gradient            TolMAXG  ....  3.0000e-04 Eh/bohr
RMS Gradient             TolRMSG  ....  1.0000e-04 Eh/bohr
Max. Displacement        TolMAXD  ....  4.0000e-03 bohr
RMS Displacement         TolRMSD  ....  2.0000e-03 bohr
Strict Convergence                .... True

------------------------------------------------------------------------------
                        ORCA OPTIMIZATION COORDINATE SETUP
------------------------------------------------------------------------------

The optimization will be done in redundant internal coordinates (2022)
Making redundant internal coordinates   ...  (2022 redundants) done
Evaluating the initial hessian          ...  (Almloef) done
Evaluating the coordinates              ...  done
Calculating the B-matrix                .... done
Calculating the G-matrix                .... done
The number of degrees of freedom        ....   62

    -----------------------------------------------------------------
                    Redundant Internal Coordinates


    -----------------------------------------------------------------
         Definition                    Initial Value    Approx d2E/dq
    -----------------------------------------------------------------
      1. B(C   1,C   0)                  1.4891         0.434063   
      2. B(C   4,C   0)                  1.5062         0.407742   
      3. B(O   5,C   1)                  1.3534         0.640177   
      4. B(H   6,C   4)                  1.0936         0.355338   
      5. B(N   7,H   2)                  1.0185         0.419377   
      6. B(N   7,H   3)                  1.0185         0.419357   
      7. B(N   7,C   0)                  1.4472         0.453505   
      8. B(H   8,C   4)                  1.0934         0.355584   
      9. B(H   9,C   4)                  1.0928         0.356409   
     10. B(H  10,C   0)                  1.0922         0.357243   
     11. B(H  11,C   1)                  1.2972         0.168188   
     12. B(O  12,H  11)                  0.8063         0.914617   
     13. B(O  12,C   1)                  1.2211         1.040842   
     14. B(H  13,O   5)                  0.9811         0.481161   
     15. A(C   1,C   0,C   4)          108.5613         0.378509   
     16. A(N   7,C   0,H  10)          111.3234         0.332413   
     17. A(C   4,C   0,H  10)          111.3636         0.328594   
     18. A(C   1,C   0,N   7)          106.5610         0.383123   
     19. A(C   1,C   0,H  10)          109.4759         0.332011   
     20. A(C   4,C   0,N   7)          109.4030         0.378988   
     21. A(H  11,C   1,O  12)           37.1900         0.336718   
     22. A(O   5,C   1,O  12)          124.8279         0.473413   
     23. A(C   0,C   1,O   5)          110.2259         0.406992   
     24. A(O   5,C   1,H  11)          116.2368         0.310912   
     25. A(C   0,C   1,H  11)          119.1697         0.293916   
     26. A(C   0,C   1,O  12)          124.9173         0.443971   
     27. A(H   8,C   4,H   9)          109.2277         0.289795   
     28. A(C   0,C   4,H   6)          110.1020         0.328305   
     29. A(C   0,C   4,H   9)          110.6966         0.328468   
     30. A(H   6,C   4,H   8)          107.7361         0.289658   
     31. A(C   0,C   4,H   8)          110.2881         0.328342   
     32. A(H   6,C   4,H   9)          108.7229         0.289764   
     33. A(C   1,O   5,H  13)          111.9726         0.367235   
     34. A(C   0,N   7,H   3)          109.3408         0.338466   
     35. A(C   0,N   7,H   2)          109.3604         0.338468   
     36. A(H   2,N   7,H   3)          106.5365         0.300241   
     37. A(C   1,H  11,O  12)           66.2686         0.296351   
     38. A(C   1,O  12,H  11)           76.5414         0.448190   
     39. D(O   5,C   1,C   0,N   7)   -153.6102         0.014891   
     40. D(O   5,C   1,C   0,C   4)    -35.8703         0.014891   
     41. D(O   5,C   1,C   0,H  10)     85.8885         0.014891   
     42. D(H  11,C   1,C   0,H  10)   -135.9335         0.014891   
     43. D(H  11,C   1,C   0,N   7)    -15.4322         0.014891   
     44. D(H  11,C   1,C   0,C   4)    102.3077         0.014891   
     45. D(H   6,C   4,C   0,C   1)    -56.9968         0.013174   
     46. D(H   8,C   4,C   0,H  10)    -58.8339         0.013174   
     47. D(H   8,C   4,C   0,N   7)    177.6793         0.013174   
     48. D(H   8,C   4,C   0,C   1)     61.7635         0.013174   
     49. D(H   6,C   4,C   0,H  10)   -177.5942         0.013174   
     50. D(H   6,C   4,C   0,N   7)     58.9190         0.013174   
     51. D(H  13,O   5,C   1,O  12)    179.2012         0.033359   
     52. D(H  13,O   5,C   1,H  11)   -138.4487         0.033359   
     53. D(H  13,O   5,C   1,C   0)      1.0753         0.033359   
     54. D(H   3,N   7,C   0,C   4)     60.6910         0.017548   
     55. D(H   3,N   7,C   0,C   1)    177.8739         0.017548   
     56. D(H   2,N   7,C   0,H  10)     53.4799         0.017548   
     57. D(H   2,N   7,C   0,C   4)    176.9904         0.017548   
     58. D(H   2,N   7,C   0,C   1)    -65.8267         0.017548   
     59. D(O  12,H  11,C   1,O   5)   -113.8161         0.021088   
     60. D(O  12,H  11,C   1,C   0)    110.4160         0.021088   
     61. D(H  11,O  12,C   1,O   5)     88.5116         0.099539   
     62. D(H  11,O  12,C   1,C   0)    -93.6332         0.099539   
    -----------------------------------------------------------------

Number of atoms                         .... 14
Number of degrees of freedom            .... 62


         *************************************************************
         *                GEOMETRY OPTIMIZATION CYCLE   1            *
         *************************************************************
---------------------------------
CARTESIAN COORDINATES (ANGSTROEM)
---------------------------------
  C    -7.119975    3.000065    0.168663
  C    -5.827129    3.731205    0.061201
  H    -8.236139    4.651571   -0.199903
  H    -8.974476    3.254091   -0.608844
  C    -6.942297    1.623433   -0.416045
  O    -4.791472    2.880540    0.249407
  H    -6.596592    1.696405   -1.451021
  N    -8.078958    3.739083   -0.624214
  H    -6.189442    1.066169    0.148106
  H    -7.885641    1.072030   -0.399361
  H    -7.424608    2.951058    1.216341
  H    -5.678150    4.618140   -0.873660
  O    -5.717137    4.931877   -0.131963
  H    -5.095325    1.959948    0.400259

----------------------------
CARTESIAN COORDINATES (A.U.)
----------------------------
  NO LB    ZA    FRAG    MASS        X           Y           Z
   0 C   6.0000    1    12.011  -13.454803    5.669301    0.318727
   1 C   6.0000    1    12.011  -11.011678    7.050956    0.115653
   2 H   1.0000    1     1.008  -15.564047    8.790195   -0.377762
   3 H   1.0000    1     1.008  -16.959302    6.149341   -1.150548
   4 C   6.0000    1    12.011  -13.119040    3.067844   -0.786211
   5 O   8.0000    1    15.999   -9.054570    5.443432    0.471311
   6 H   1.0000    1     1.008  -12.465752    3.205741   -2.742032
   7 N   7.0000    1    14.007  -15.267018    7.065843   -1.179594
   8 H   1.0000    1     1.008  -11.696350    2.014767    0.279880
   9 H   1.0000    1     1.008  -14.901702    2.025843   -0.754683
  10 H   1.0000    1     1.008  -14.030476    5.576691    2.298551
  11 H   1.0000    1     1.008  -10.730148    8.727020   -1.650978
  12 O   8.0000    1    15.999  -10.803823    9.319897   -0.249374
  13 H   1.0000    1     1.008   -9.628769    3.703765    0.756380

      -----------------------------------------------------------      
     |                   =====================                   |     
     |                           x T B                           |     
     |                   =====================                   |     
     |                         S. Grimme                         |     
     |          Mulliken Center for Theoretical Chemistry        |     
     |                    University of Bonn                     |     
      -----------------------------------------------------------      

   * xtb version 6.7.1 (edcfbbe) compiled by 'albert@albert-system' on 2024-07-22

   xtb is free software: you can redistribute it and/or modify it under
   the terms of the GNU Lesser General Public License as published by
   the Free Software Foundation, either version 3 of the License, or
   (at your option) any later version.
   
   xtb is distributed in the hope that it will be useful,
   but WITHOUT ANY WARRANTY; without even the implied warranty of
   MERCHANTABILITY or FITNESS FOR A PARTICULAR PURPOSE.  See the
   GNU Lesser General Public License for more details.
   
   Cite this work as:
   * C. Bannwarth, E. Caldeweyher, S. Ehlert, A. Hansen, P. Pracht,
     J. Seibert, S. Spicher, S. Grimme, WIREs Comput. Mol. Sci., 2020, 11,
     e01493. DOI: 10.1002/wcms.1493
   
   for GFN2-xTB:
   * C. Bannwarth, S. Ehlert and S. Grimme., J. Chem. Theory Comput., 2019,
     15, 1652-1671. DOI: 10.1021/acs.jctc.8b01176
   for GFN1-xTB:
   * S. Grimme, C. Bannwarth, P. Shushkov, J. Chem. Theory Comput., 2017,
     13, 1989-2009. DOI: 10.1021/acs.jctc.7b00118
   for GFN0-xTB:
   * P. Pracht, E. Caldeweyher, S. Ehlert, S. Grimme, ChemRxiv, 2019, preprint.
     DOI: 10.26434/chemrxiv.8326202.v1
   for GFN-FF:
   * S. Spicher and S. Grimme, Angew. Chem. Int. Ed., 2020, 59, 15665-15673.
     DOI: 10.1002/anie.202004239
   
   for ALPB and GBSA implicit solvation:
   * S. Ehlert, M. Stahn, S. Spicher, S. Grimme, J. Chem. Theory Comput.,
     2021, 17, 4250-4261. DOI: 10.1021/acs.jctc.1c00471
   
   for ddCOSMO and CPCM-X implicit solvation:
   * M. Stahn, S. Ehlert, S. Grimme, J. Phys. Chem. A,
     2023, XX, XXXX-XXXX. DOI: 10.1021/acs.jpca.3c04382
   
   for DFT-D4:
   * E. Caldeweyher, C. Bannwarth and S. Grimme, J. Chem. Phys., 2017,
     147, 034112. DOI: 10.1063/1.4993215
   * E. Caldeweyher, S. Ehlert, A. Hansen, H. Neugebauer, S. Spicher,
     C. Bannwarth and S. Grimme, J. Chem. Phys., 2019, 150, 154122.
     DOI: 10.1063/1.5090222
   * E. Caldeweyher, J.-M. Mewes, S. Ehlert and S. Grimme, Phys. Chem. Chem. Phys.
     2020, 22, 8499-8512. DOI: 10.1039/D0CP00502A
   
   for sTDA-xTB:
   * S. Grimme and C. Bannwarth, J. Chem. Phys., 2016, 145, 054103.
     DOI: 10.1063/1.4959605
   
   in the mass-spec context:
   * V. Asgeirsson, C. Bauer and S. Grimme, Chem. Sci., 2017, 8, 4879.
     DOI: 10.1039/c7sc00601b
   * J. Koopman and S. Grimme, ACS Omega 2019, 4, 12, 15120-15133.
     DOI: 10.1021/acsomega.9b02011
   
   for metadynamics refer to:
   * S. Grimme, J. Chem. Theory Comput., 2019, 155, 2847-2862
     DOI: 10.1021/acs.jctc.9b00143
   
   for SPH calculations refer to:
   * S. Spicher and S. Grimme, J. Chem. Theory Comput., 2021, 17, 1701-1714
     DOI: 10.1021/acs.jctc.0c01306
   
   for ONIOM refer to:
   * C. Plett, A. Katbashev, S. Ehlert, S. Grimme, M. Bursch,
     Phys. Chem. Chem. Phys., 2023, 25, 17860-17868. DOI: 10.1039/D3CP02178E
   
   for DIPRO refer to:
   * J. Kohn, N. Gildemeister, S. Grimme, D. Fazzi, A. Hansen,
     J. Chem. Phys., 2023, just accepted.
   
   for PTB refer to:
   * S. Grimme, M. Mueller, A. Hansen, J. Chem. Phys., 2023, 158, 124111.
     DOI: 10.1063/5.0137838
   
   with help from (in alphabetical order)
   P. Atkinson, C. Bannwarth, F. Bohle, G. Brandenburg, E. Caldeweyher
   M. Checinski, S. Dohm, S. Ehlert, S. Ehrlich, I. Gerasimov, C. Hölzer
   A. Katbashev, J. Kohn, J. Koopman, C. Lavigne, S. Lehtola, F. März, M. Müller,
   F. Musil, H. Neugebauer, J. Pisarek, C. Plett, P. Pracht, F. Pultar,
   J. Seibert, P. Shushkov, S. Spicher, M. Stahn, M. Steiner, T. Strunk,
   J. Stückrath, T. Rose, and J. Unsleber
   
 * started run on 2025/08/06 at 21:19:46.950     
   ID    Z sym.   atoms
    1    6 C      1, 2, 5
    2    1 H      3, 4, 7, 9-12, 14
    3    8 O      6, 13
    4    7 N      8

           -------------------------------------------------
          |                Calculation Setup                |
           -------------------------------------------------

          program call               : /home/uni/orca_6_1_0/otool_xtb g_XTB.xyz --grad -c 0 -u 0 -P 9 --namespace g --input g_XTB.input.tmp --acc 0.200000
          calculation namespace      : g
          coordinate file            : g_XTB.xyz
          omp threads                :                     9


           -------------------------------------------------
          |                 G F N 2 - x T B                 |
           -------------------------------------------------

        Reference                      10.1021/acs.jctc.8b01176
      * Hamiltonian:
        H0-scaling (s, p, d)           1.850000    2.230000    2.230000
        zeta-weighting                 0.500000
      * Dispersion:
        s8                             2.700000
        a1                             0.520000
        a2                             5.000000
        s9                             5.000000
      * Repulsion:
        kExp                           1.500000    1.000000
        rExp                           1.000000
      * Coulomb:
        alpha                          2.000000
        third order                    shell-resolved
        anisotropic                    true
        a3                             3.000000
        a5                             4.000000
        cn-shift                       1.200000
        cn-exp                         4.000000
        max-rad                        5.000000


          ...................................................
          :                      SETUP                      :
          :.................................................:
          :  # basis functions                  32          :
          :  # atomic orbitals                  32          :
          :  # shells                           20          :
          :  # electrons                        37          :
          :  max. iterations                   250          :
          :  Hamiltonian                  GFN2-xTB          :
          :  restarted?                      false          :
          :  GBSA solvation                  false          :
          :  PC potential                    false          :
          :  electronic temp.          300.0000000     K    :
          :  accuracy                    0.2000000          :
          :  -> integral cutoff          0.3198970E+02      :
          :  -> integral neglect         0.2000000E-08      :
          :  -> SCF convergence          0.2000000E-06 Eh   :
          :  -> wf. convergence          0.2000000E-04 e    :
          :  Broyden damping             0.4000000          :
          :  net charge                          0          :
          :  unpaired electrons                  0          :
          ...................................................

 iter      E             dE          RMSdq      gap      omega  full diag
   1    -21.6070100 -0.216070E+02  0.387E+00    6.74       0.0  T
   2    -21.6195029 -0.124929E-01  0.222E+00    6.53       1.0  T
   3    -21.6204466 -0.943646E-03  0.516E-01    6.53       1.0  T
   4    -21.6207519 -0.305367E-03  0.135E-01    6.51       1.0  T
   5    -21.6207902 -0.383260E-04  0.647E-02    6.52       1.0  T
   6    -21.6207931 -0.284874E-05  0.148E-02    6.53       1.8  T
   7    -21.6207933 -0.238031E-06  0.615E-03    6.53       4.3  T
   8    -21.6207934 -0.381658E-07  0.130E-03    6.53      20.6  T
   9    -21.6207934 -0.975781E-09  0.476E-04    6.53      56.2  T
  10    -21.6207934 -0.186912E-09  0.793E-05    6.53     337.0  T
  11    -21.6207934 -0.237854E-10  0.412E-05    6.53     648.4  T

   *** convergence criteria satisfied after 11 iterations ***

         #    Occupation            Energy/Eh            Energy/eV
      -------------------------------------------------------------
         1        2.0000           -0.7342436             -19.9798
       ...           ...                  ...                  ...
        13        2.0000           -0.4874755             -13.2649
        14        2.0000           -0.4772146             -12.9857
        15        2.0000           -0.4724922             -12.8572
        16        2.0000           -0.4655147             -12.6673
        17        2.0000           -0.4205123             -11.4427
        18        2.0000           -0.3766021             -10.2479
        19        1.0000           -0.2236295              -6.0853 (HOMO)
        20                          0.0163241               0.4442 (LUMO)
        21                          0.0566999               1.5429
        22                          0.1083677               2.9488
        23                          0.1177130               3.2031
        24                          0.1376255               3.7450
       ...                                ...                  ...
        32                          0.6201830              16.8760
      -------------------------------------------------------------
                  HL-Gap            0.2399536 Eh            6.5295 eV
             Fermi-level           -0.2018842 Eh           -5.4935 eV

 SCC (total)                   0 d,  0 h,  0 min,  0.008 sec
 SCC setup                      ...        0 min,  0.000 sec (  1.077%)
 Dispersion                     ...        0 min,  0.000 sec (  0.957%)
 classical contributions        ...        0 min,  0.000 sec (  0.430%)
 integral evaluation            ...        0 min,  0.000 sec (  5.199%)
 iterations                     ...        0 min,  0.006 sec ( 76.548%)
 molecular gradient             ...        0 min,  0.001 sec ( 13.607%)
 printout                       ...        0 min,  0.000 sec (  1.948%)

         :::::::::::::::::::::::::::::::::::::::::::::::::::::
         ::                     SUMMARY                     ::
         :::::::::::::::::::::::::::::::::::::::::::::::::::::
         :: total energy             -21.343395804907 Eh    ::
         :: gradient norm              0.488061351170 Eh/a0 ::
         :: HOMO-LUMO gap              6.529469735035 eV    ::
         ::.................................................::
         :: SCC energy               -21.620783367314 Eh    ::
         :: -> isotropic ES            0.058088816680 Eh    ::
         :: -> anisotropic ES          0.002414950197 Eh    ::
         :: -> anisotropic XC          0.003534421778 Eh    ::
         :: -> dispersion             -0.007584793415 Eh    ::
         :: repulsion energy           0.277387562408 Eh    ::
         :: add. restraining           0.000000000000 Eh    ::
         :: total charge              -0.000000000000 e     ::
         :::::::::::::::::::::::::::::::::::::::::::::::::::::


Property printout bound to 'properties.out'

           -------------------------------------------------
          | TOTAL ENERGY              -21.343395804907 Eh   |
          | GRADIENT NORM               0.488061351170 Eh/α |
          | HOMO-LUMO GAP               6.529469735035 eV   |
           -------------------------------------------------

------------------------------------------------------------------------
 * finished run on 2025/08/06 at 21:19:46.966     
------------------------------------------------------------------------
 total:
 * wall-time:     0 d,  0 h,  0 min,  0.016 sec
 *  cpu-time:     0 d,  0 h,  0 min,  0.022 sec
 * ratio c/w:     1.378 speedup
 SCF:
 * wall-time:     0 d,  0 h,  0 min,  0.009 sec
 *  cpu-time:     0 d,  0 h,  0 min,  0.013 sec
 * ratio c/w:     1.570 speedup


-------------------------   --------------------
FINAL SINGLE POINT ENERGY       -21.343395804910
-------------------------   --------------------


-------------
DIPOLE MOMENT
-------------
                                X             Y             Z
Total Dipole Moment    :     -0.83900      -0.97800      -0.15900
                        -----------------------------------------
Magnitude (a.u.)       :      1.29834
Magnitude (Debye)      :      3.30012


------------------
CARTESIAN GRADIENT
------------------

   1   C   :    0.007057186   -0.011634640    0.006097886
   2   C   :    0.055880840    0.209803782   -0.091846268
   3   H   :   -0.001499972    0.000932229    0.002966729
   4   H   :   -0.000596971   -0.002080017    0.001809172
   5   C   :    0.008163355    0.020060637    0.006604216
   6   O   :   -0.060031171    0.018449229   -0.007525212
   7   H   :    0.003159918   -0.000223820   -0.002270641
   8   N   :    0.016577939   -0.004968632    0.002840810
   9   H   :    0.013599988    0.010687598    0.001910479
  10   H   :   -0.002703106   -0.000084906    0.000044245
  11   H   :    0.007381767    0.007195569   -0.013765159
  12   H   :   -0.023636133    0.023782344    0.279583882
  13   O   :   -0.011766018   -0.249473222   -0.186114378
  14   H   :   -0.011587621   -0.022446150   -0.000335761

Difference to translation invariance:
           :    0.0000000000    0.0000000000    0.0000000000

Difference to rotation invariance:
           :   -0.0000002317    0.0000000296    0.0000004410

Norm of the Cartesian gradient     ...    0.4880613512
RMS gradient                       ...    0.0753095015
MAX gradient                       ...    0.2795838815
------------------------------------------------------------------------------
                         ORCA GEOMETRY RELAXATION STEP
------------------------------------------------------------------------------

Reading the OPT-File                    .... done
Getting information on internals        .... done
Copying old internal coords+grads       .... done
Making the new internal coordinates     .... (2022 redundants) done
Validating the new internal coordinates .... (2022 redundants) done
Calculating the B-matrix                .... done
Calculating the G,G- and P matrices     .... done
Transforming gradient to internals      .... done
Projecting the internal gradient        .... done
Number of atoms                         ....  14
Number of internal coordinates          ....  62
Current Energy                          ....   -21.343395805 Eh
Current gradient norm                   ....     0.488061351 Eh/bohr
Maximum allowed component of the step   ....  0.300
Current trust radius                    ....  0.300
Evaluating the initial hessian          ....  (Almloef) done
Projecting the Hessian                  .... done
Forming the augmented Hessian           .... done
Diagonalizing the augmented Hessian     .... done
Last element of RFO vector              ....  0.902285764
Lowest eigenvalues of augmented Hessian:
 -0.137871307  0.013400617  0.015264590  0.017561504  0.033420803
Length of the computed step             ....  0.477829210
Warning: the length of the step is outside the trust region - taking restricted step instead
The input lambda is                     ....     0.012174
   iter:   5  x=    0.002895  g=  737.218556 f(x)=     2.972529
   iter:  10  x=   -0.334715  g=    0.671286 f(x)=     0.099554
   iter:  15  x=   -0.465592  g=    0.189540 f(x)=     0.000000
The output lambda is                    ....    -0.465592 (16 iterations)
The final length of the internal step   ....  0.300000000
Converting the step to Cartesian space:
 Initial RMS(Int)=    0.0381000381
Transforming coordinates:
 Iter   0:  RMS(Cart)=    0.1038868523 RMS(Int)=    0.0382800428
 Iter   5:  RMS(Cart)=    0.0000001704 RMS(Int)=    0.0000001049
done
Storing new coordinates                 .... done

                                .--------------------.
          ----------------------|Geometry convergence|-------------------------
          Item                value                   Tolerance       Converged
          ---------------------------------------------------------------------
          RMS gradient        0.0399566635            0.0001000000      NO
          MAX gradient        0.1797806104            0.0003000000      NO
          RMS step            0.0381000381            0.0020000000      NO
          MAX step            0.1502501554            0.0040000000      NO
          -------------------------------------------------------------------------
          ........................................................
          Max(Bonds)      0.0795      Max(Angles)    4.12
          Max(Dihed)        1.50      Max(Improp)    0.00
          ---------------------------------------------------------------------

    ---------------------------------------------------------------------------
                         Redundant Internal Coordinates
                            (Angstroem and degrees)

        Definition                    Value    dE/dq     Step     New-Value
    ----------------------------------------------------------------------------
     1. B(C   1,C   0)                1.4891 -0.053711  0.0316    1.5207   
     2. B(C   4,C   0)                1.5062 -0.027641  0.0167    1.5229   
     3. B(O   5,C   1)                1.3534 -0.053386  0.0255    1.3789   
     4. B(H   6,C   4)                1.0936  0.003133 -0.0020    1.0916   
     5. B(N   7,H   2)                1.0185  0.002303 -0.0014    1.0171   
     6. B(N   7,H   3)                1.0185  0.001543 -0.0009    1.0176   
     7. B(N   7,C   0)                1.4472 -0.016892  0.0097    1.4569   
     8. B(H   8,C   4)                1.0934  0.004903 -0.0032    1.0903   
     9. B(H   9,C   4)                1.0928  0.002377 -0.0015    1.0913   
    10. B(H  10,C   0)                1.0922 -0.015586  0.0100    1.1022   
    11. B(H  11,C   1)                1.2972 -0.138396  0.0795    1.3767   
    12. B(O  12,H  11)                0.8063 -0.179781  0.0794    0.8857   
    13. B(O  12,C   1)                1.2211 -0.150847  0.0627    1.2838   
    14. B(H  13,O   5)                0.9811  0.024599 -0.0137    0.9674   
    15. A(C   1,C   0,C   4)          108.56 -0.042322    3.41    111.98   
    16. A(N   7,C   0,H  10)          111.32 -0.007346    0.29    111.61   
    17. A(C   4,C   0,H  10)          111.36  0.010185   -0.78    110.59   
    18. A(C   1,C   0,N   7)          106.56  0.017081   -1.26    105.30   
    19. A(C   1,C   0,H  10)          109.48  0.004106   -0.21    109.27   
    20. A(C   4,C   0,N   7)          109.40  0.017439   -1.38    108.02   
    21. A(H  11,C   1,O  12)           37.19 -0.039648    1.58     38.77   
    22. A(O   5,C   1,O  12)          124.83  0.034756   -2.36    122.47   
    23. A(C   0,C   1,O   5)          110.23 -0.062127    4.12    114.35   
    24. A(O   5,C   1,H  11)          116.24  0.033963   -2.02    114.22   
    25. A(C   0,C   1,H  11)          119.17  0.026199   -1.52    117.65   
    26. A(C   0,C   1,O  12)          124.92  0.028158   -1.80    123.12   
    27. A(H   8,C   4,H   9)          109.23  0.006037   -0.51    108.72   
    28. A(C   0,C   4,H   6)          110.10  0.004119   -0.26    109.84   
    29. A(C   0,C   4,H   9)          110.70  0.003170   -0.28    110.42   
    30. A(H   6,C   4,H   8)          107.74  0.001630    0.01    107.74   
    31. A(C   0,C   4,H   8)          110.29 -0.019357    1.43    111.72   
    32. A(H   6,C   4,H   9)          108.72  0.004709   -0.41    108.31   
    33. A(C   1,O   5,H  13)          111.97 -0.008016    0.55    112.52   
    34. A(C   0,N   7,H   3)          109.34 -0.003823    0.29    109.63   
    35. A(C   0,N   7,H   2)          109.36 -0.001274    0.11    109.47   
    36. A(H   2,N   7,H   3)          106.54  0.001276   -0.06    106.47   
    37. A(C   1,H  11,O  12)           66.27  0.000842   -1.39     64.87   
    38. A(C   1,O  12,H  11)           76.54  0.038806   -0.19     76.35   
    39. D(O   5,C   1,C   0,N   7)   -153.61 -0.002628   -0.41   -154.02   
    40. D(O   5,C   1,C   0,C   4)    -35.87  0.005283   -0.95    -36.82   
    41. D(O   5,C   1,C   0,H  10)     85.89 -0.006114    0.10     85.99   
    42. D(H  11,C   1,C   0,H  10)   -135.93  0.002877    0.14   -135.79   
    43. D(H  11,C   1,C   0,N   7)    -15.43  0.006363   -0.37    -15.80   
    44. D(H  11,C   1,C   0,C   4)    102.31  0.014274   -0.91    101.40   
    45. D(H   6,C   4,C   0,C   1)    -57.00 -0.006870    0.62    -56.38   
    46. D(H   8,C   4,C   0,H  10)    -58.83  0.001909   -0.14    -58.98   
    47. D(H   8,C   4,C   0,N   7)    177.68 -0.007929    0.99    178.67   
    48. D(H   8,C   4,C   0,C   1)     61.76 -0.014304    1.35     63.11   
    49. D(H   6,C   4,C   0,H  10)   -177.59  0.009343   -0.88   -178.47   
    50. D(H   6,C   4,C   0,N   7)     58.92 -0.000495    0.26     59.17   
    51. D(H  13,O   5,C   1,O  12)    179.20  0.021722   -0.98    178.22   
    52. D(H  13,O   5,C   1,H  11)   -138.45 -0.010981    0.03   -138.42   
    53. D(H  13,O   5,C   1,C   0)      1.08 -0.004211    0.20      1.27   
    54. D(H   3,N   7,C   0,C   4)     60.69  0.016789   -1.41     59.28   
    55. D(H   3,N   7,C   0,C   1)    177.87 -0.014742    1.21    179.09   
    56. D(H   2,N   7,C   0,H  10)     53.48 -0.004736    0.50     53.98   
    57. D(H   2,N   7,C   0,C   4)    176.99  0.015441   -1.26    175.73   
    58. D(H   2,N   7,C   0,C   1)    -65.83 -0.016091    1.36    -64.47   
    59. D(O  12,H  11,C   1,O   5)   -113.82 -0.017685    1.50   -112.31   
    60. D(O  12,H  11,C   1,C   0)    110.42  0.011113   -0.99    109.42   
    61. D(H  11,O  12,C   1,O   5)     88.51 -0.013985    0.66     89.17   
    62. D(H  11,O  12,C   1,C   0)    -93.63  0.014103   -0.59    -94.22   
    ----------------------------------------------------------------------------

Geometry step timings:
Preparation and reading OPT file:      0.000 s ( 1.439 %)
Internal coordinates            :      0.000 s ( 1.364 %)
B/P matrices and projection     :      0.000 s (30.985 %)
Hessian update/contruction      :      0.000 s ( 9.167 %)
Making the step                 :      0.000 s (36.515 %)
Converting the step to Cartesian:      0.000 s ( 3.788 %)
Storing new data                :      0.000 s ( 1.061 %)
Checking convergence            :      0.000 s ( 1.212 %)
Final printing                  :      0.000 s (14.394 %)
Total time                      :      0.001 s

Time for energy+gradient        :      0.021 s
Time for complete geometry iter :      0.023 s

         *************************************************************
         *                GEOMETRY OPTIMIZATION CYCLE   2            *
         *************************************************************
---------------------------------
CARTESIAN COORDINATES (ANGSTROEM)
---------------------------------
  C    -7.119772    2.971041    0.173811
  C    -5.807500    3.734481    0.085734
  H    -8.208491    4.646405   -0.217087
  H    -8.967308    3.265569   -0.634970
  C    -7.007007    1.573541   -0.420816
  O    -4.684350    2.958355    0.279658
  H    -6.663187    1.637555   -1.454880
  N    -8.062483    3.731205   -0.636214
  H    -6.294640    0.957592    0.128584
  H    -7.978667    1.076861   -0.412680
  H    -7.440060    2.918878    1.227149
  H    -5.679998    4.673870   -0.912688
  O    -5.745251    5.003821   -0.092596
  H    -4.898628    2.026441    0.425962

----------------------------
CARTESIAN COORDINATES (A.U.)
----------------------------
  NO LB    ZA    FRAG    MASS        X           Y           Z
   0 C   6.0000    1    12.011  -13.454418    5.614453    0.328455
   1 C   6.0000    1    12.011  -10.974584    7.057146    0.162014
   2 H   1.0000    1     1.008  -15.511801    8.780433   -0.410235
   3 H   1.0000    1     1.008  -16.945756    6.171031   -1.199920
   4 C   6.0000    1    12.011  -13.241325    2.973561   -0.795227
   5 O   8.0000    1    15.999   -8.852138    5.590480    0.528477
   6 H   1.0000    1     1.008  -12.591599    3.094531   -2.749326
   7 N   7.0000    1    14.007  -15.235884    7.050956   -1.202271
   8 H   1.0000    1     1.008  -11.895145    1.809587    0.242989
   9 H   1.0000    1     1.008  -15.077495    2.034972   -0.779851
  10 H   1.0000    1     1.008  -14.059676    5.515880    2.318976
  11 H   1.0000    1     1.008  -10.733641    8.832335   -1.724730
  12 O   8.0000    1    15.999  -10.856950    9.455851   -0.174982
  13 H   1.0000    1     1.008   -9.257066    3.829419    0.804951

      -----------------------------------------------------------      
     |                   =====================                   |     
     |                           x T B                           |     
     |                   =====================                   |     
     |                         S. Grimme                         |     
     |          Mulliken Center for Theoretical Chemistry        |     
     |                    University of Bonn                     |     
      -----------------------------------------------------------      

   * xtb version 6.7.1 (edcfbbe) compiled by 'albert@albert-system' on 2024-07-22

   xtb is free software: you can redistribute it and/or modify it under
   the terms of the GNU Lesser General Public License as published by
   the Free Software Foundation, either version 3 of the License, or
   (at your option) any later version.
   
   xtb is distributed in the hope that it will be useful,
   but WITHOUT ANY WARRANTY; without even the implied warranty of
   MERCHANTABILITY or FITNESS FOR A PARTICULAR PURPOSE.  See the
   GNU Lesser General Public License for more details.
   
   Cite this work as:
   * C. Bannwarth, E. Caldeweyher, S. Ehlert, A. Hansen, P. Pracht,
     J. Seibert, S. Spicher, S. Grimme, WIREs Comput. Mol. Sci., 2020, 11,
     e01493. DOI: 10.1002/wcms.1493
   
   for GFN2-xTB:
   * C. Bannwarth, S. Ehlert and S. Grimme., J. Chem. Theory Comput., 2019,
     15, 1652-1671. DOI: 10.1021/acs.jctc.8b01176
   for GFN1-xTB:
   * S. Grimme, C. Bannwarth, P. Shushkov, J. Chem. Theory Comput., 2017,
     13, 1989-2009. DOI: 10.1021/acs.jctc.7b00118
   for GFN0-xTB:
   * P. Pracht, E. Caldeweyher, S. Ehlert, S. Grimme, ChemRxiv, 2019, preprint.
     DOI: 10.26434/chemrxiv.8326202.v1
   for GFN-FF:
   * S. Spicher and S. Grimme, Angew. Chem. Int. Ed., 2020, 59, 15665-15673.
     DOI: 10.1002/anie.202004239
   
   for ALPB and GBSA implicit solvation:
   * S. Ehlert, M. Stahn, S. Spicher, S. Grimme, J. Chem. Theory Comput.,
     2021, 17, 4250-4261. DOI: 10.1021/acs.jctc.1c00471
   
   for ddCOSMO and CPCM-X implicit solvation:
   * M. Stahn, S. Ehlert, S. Grimme, J. Phys. Chem. A,
     2023, XX, XXXX-XXXX. DOI: 10.1021/acs.jpca.3c04382
   
   for DFT-D4:
   * E. Caldeweyher, C. Bannwarth and S. Grimme, J. Chem. Phys., 2017,
     147, 034112. DOI: 10.1063/1.4993215
   * E. Caldeweyher, S. Ehlert, A. Hansen, H. Neugebauer, S. Spicher,
     C. Bannwarth and S. Grimme, J. Chem. Phys., 2019, 150, 154122.
     DOI: 10.1063/1.5090222
   * E. Caldeweyher, J.-M. Mewes, S. Ehlert and S. Grimme, Phys. Chem. Chem. Phys.
     2020, 22, 8499-8512. DOI: 10.1039/D0CP00502A
   
   for sTDA-xTB:
   * S. Grimme and C. Bannwarth, J. Chem. Phys., 2016, 145, 054103.
     DOI: 10.1063/1.4959605
   
   in the mass-spec context:
   * V. Asgeirsson, C. Bauer and S. Grimme, Chem. Sci., 2017, 8, 4879.
     DOI: 10.1039/c7sc00601b
   * J. Koopman and S. Grimme, ACS Omega 2019, 4, 12, 15120-15133.
     DOI: 10.1021/acsomega.9b02011
   
   for metadynamics refer to:
   * S. Grimme, J. Chem. Theory Comput., 2019, 155, 2847-2862
     DOI: 10.1021/acs.jctc.9b00143
   
   for SPH calculations refer to:
   * S. Spicher and S. Grimme, J. Chem. Theory Comput., 2021, 17, 1701-1714
     DOI: 10.1021/acs.jctc.0c01306
   
   for ONIOM refer to:
   * C. Plett, A. Katbashev, S. Ehlert, S. Grimme, M. Bursch,
     Phys. Chem. Chem. Phys., 2023, 25, 17860-17868. DOI: 10.1039/D3CP02178E
   
   for DIPRO refer to:
   * J. Kohn, N. Gildemeister, S. Grimme, D. Fazzi, A. Hansen,
     J. Chem. Phys., 2023, just accepted.
   
   for PTB refer to:
   * S. Grimme, M. Mueller, A. Hansen, J. Chem. Phys., 2023, 158, 124111.
     DOI: 10.1063/5.0137838
   
   with help from (in alphabetical order)
   P. Atkinson, C. Bannwarth, F. Bohle, G. Brandenburg, E. Caldeweyher
   M. Checinski, S. Dohm, S. Ehlert, S. Ehrlich, I. Gerasimov, C. Hölzer
   A. Katbashev, J. Kohn, J. Koopman, C. Lavigne, S. Lehtola, F. März, M. Müller,
   F. Musil, H. Neugebauer, J. Pisarek, C. Plett, P. Pracht, F. Pultar,
   J. Seibert, P. Shushkov, S. Spicher, M. Stahn, M. Steiner, T. Strunk,
   J. Stückrath, T. Rose, and J. Unsleber
   
 * started run on 2025/08/06 at 21:19:46.973     
   ID    Z sym.   atoms
    1    6 C      1, 2, 5
    2    1 H      3, 4, 7, 9-12, 14
    3    8 O      6, 13
    4    7 N      8

           -------------------------------------------------
          |                Calculation Setup                |
           -------------------------------------------------

          program call               : /home/uni/orca_6_1_0/otool_xtb g_XTB.xyz --grad -c 0 -u 0 -P 9 --namespace g --input g_XTB.input.tmp --acc 0.200000
          calculation namespace      : g
          coordinate file            : g_XTB.xyz
          omp threads                :                     9


           -------------------------------------------------
          |                 G F N 2 - x T B                 |
           -------------------------------------------------

        Reference                      10.1021/acs.jctc.8b01176
      * Hamiltonian:
        H0-scaling (s, p, d)           1.850000    2.230000    2.230000
        zeta-weighting                 0.500000
      * Dispersion:
        s8                             2.700000
        a1                             0.520000
        a2                             5.000000
        s9                             5.000000
      * Repulsion:
        kExp                           1.500000    1.000000
        rExp                           1.000000
      * Coulomb:
        alpha                          2.000000
        third order                    shell-resolved
        anisotropic                    true
        a3                             3.000000
        a5                             4.000000
        cn-shift                       1.200000
        cn-exp                         4.000000
        max-rad                        5.000000

q/qsh data taken from xtbrestart
CAMM data taken from xtbrestart

          ...................................................
          :                      SETUP                      :
          :.................................................:
          :  # basis functions                  32          :
          :  # atomic orbitals                  32          :
          :  # shells                           20          :
          :  # electrons                        37          :
          :  max. iterations                   250          :
          :  Hamiltonian                  GFN2-xTB          :
          :  restarted?                       true          :
          :  GBSA solvation                  false          :
          :  PC potential                    false          :
          :  electronic temp.          300.0000000     K    :
          :  accuracy                    0.2000000          :
          :  -> integral cutoff          0.3198970E+02      :
          :  -> integral neglect         0.2000000E-08      :
          :  -> SCF convergence          0.2000000E-06 Eh   :
          :  -> wf. convergence          0.2000000E-04 e    :
          :  Broyden damping             0.4000000          :
          :  net charge                          0          :
          :  unpaired electrons                  0          :
          ...................................................

 iter      E             dE          RMSdq      gap      omega  full diag
   1    -21.6247315 -0.216247E+02  0.447E-01    7.76       0.0  T
   2    -21.6250717 -0.340194E-03  0.277E-01    7.67       1.0  T
   3    -21.6250921 -0.204094E-04  0.993E-02    7.70       1.0  T
   4    -21.6251061 -0.139953E-04  0.211E-02    7.68       1.3  T
   5    -21.6251071 -0.984867E-06  0.952E-03    7.68       2.8  T
   6    -21.6251072 -0.120792E-06  0.384E-03    7.68       7.0  T
   7    -21.6251072 -0.197272E-07  0.108E-03    7.68      24.8  T
   8    -21.6251072 -0.123595E-08  0.289E-04    7.68      92.5  T
   9    -21.6251072 -0.948503E-10  0.992E-05    7.68     269.5  T
  10    -21.6251072 -0.890310E-11  0.306E-05    7.68     873.9  T

   *** convergence criteria satisfied after 10 iterations ***

         #    Occupation            Energy/Eh            Energy/eV
      -------------------------------------------------------------
         1        2.0000           -0.7223698             -19.6567
       ...           ...                  ...                  ...
        13        2.0000           -0.4878455             -13.2750
        14        2.0000           -0.4824658             -13.1286
        15        2.0000           -0.4716050             -12.8330
        16        2.0000           -0.4655386             -12.6679
        17        2.0000           -0.4265229             -11.6063
        18        2.0000           -0.3774885             -10.2720
        19        1.0000           -0.2444560              -6.6520 (HOMO)
        20                          0.0377991               1.0286 (LUMO)
        21                          0.0391572               1.0655
        22                          0.0699884               1.9045
        23                          0.1031585               2.8071
        24                          0.1228670               3.3434
       ...                                ...                  ...
        32                          0.4280633              11.6482
      -------------------------------------------------------------
                  HL-Gap            0.2822551 Eh            7.6806 eV
             Fermi-level           -0.2071504 Eh           -5.6368 eV

 SCC (total)                   0 d,  0 h,  0 min,  0.008 sec
 SCC setup                      ...        0 min,  0.000 sec (  2.806%)
 Dispersion                     ...        0 min,  0.000 sec (  1.330%)
 classical contributions        ...        0 min,  0.000 sec (  2.637%)
 integral evaluation            ...        0 min,  0.000 sec (  4.570%)
 iterations                     ...        0 min,  0.006 sec ( 74.088%)
 molecular gradient             ...        0 min,  0.001 sec ( 12.679%)
 printout                       ...        0 min,  0.000 sec (  1.607%)

         :::::::::::::::::::::::::::::::::::::::::::::::::::::
         ::                     SUMMARY                     ::
         :::::::::::::::::::::::::::::::::::::::::::::::::::::
         :: total energy             -21.404493910018 Eh    ::
         :: gradient norm              0.225118900508 Eh/a0 ::
         :: HOMO-LUMO gap              7.680553062748 eV    ::
         ::.................................................::
         :: SCC energy               -21.625095669800 Eh    ::
         :: -> isotropic ES            0.057104839143 Eh    ::
         :: -> anisotropic ES          0.002495585530 Eh    ::
         :: -> anisotropic XC          0.005133607936 Eh    ::
         :: -> dispersion             -0.007600073285 Eh    ::
         :: repulsion energy           0.220601759781 Eh    ::
         :: add. restraining           0.000000000000 Eh    ::
         :: total charge              -0.000000000000 e     ::
         :::::::::::::::::::::::::::::::::::::::::::::::::::::


Property printout bound to 'properties.out'

           -------------------------------------------------
          | TOTAL ENERGY              -21.404493910018 Eh   |
          | GRADIENT NORM               0.225118900508 Eh/α |
          | HOMO-LUMO GAP               7.680553062748 eV   |
           -------------------------------------------------

------------------------------------------------------------------------
 * finished run on 2025/08/06 at 21:19:46.988     
------------------------------------------------------------------------
 total:
 * wall-time:     0 d,  0 h,  0 min,  0.015 sec
 *  cpu-time:     0 d,  0 h,  0 min,  0.020 sec
 * ratio c/w:     1.338 speedup
 SCF:
 * wall-time:     0 d,  0 h,  0 min,  0.008 sec
 *  cpu-time:     0 d,  0 h,  0 min,  0.012 sec
 * ratio c/w:     1.454 speedup


-------------------------   --------------------
FINAL SINGLE POINT ENERGY       -21.404493910020
-------------------------   --------------------


-------------
DIPOLE MOMENT
-------------
                                X             Y             Z
Total Dipole Moment    :     -0.80300      -1.07300      -0.16900
                        -----------------------------------------
Magnitude (a.u.)       :      1.35081
Magnitude (Debye)      :      3.43350


------------------
CARTESIAN GRADIENT
------------------

   1   C   :   -0.004227149   -0.013606827    0.006403868
   2   C   :    0.035081334    0.137146429   -0.064027111
   3   H   :   -0.001805685    0.000031103    0.002192545
   4   H   :   -0.000953768   -0.000933694    0.001202301
   5   C   :   -0.001674674    0.006585145    0.002784660
   6   O   :   -0.027698361   -0.000454199   -0.001804394
   7   H   :    0.002146541   -0.000795917   -0.001457051
   8   N   :    0.010317131   -0.002188381   -0.000953951
   9   H   :    0.004761103    0.002692195   -0.001068224
  10   H   :   -0.002494842   -0.001142509   -0.000979050
  11   H   :    0.003491376    0.004841222   -0.006050328
  12   H   :   -0.012666433   -0.028942693    0.113007859
  13   O   :   -0.005077525   -0.094221524   -0.049735129
  14   H   :    0.000800952   -0.009010352    0.000484005

Difference to translation invariance:
           :    0.0000000000    0.0000000000   -0.0000000000

Difference to rotation invariance:
           :   -0.0000001051    0.0000001041    0.0000001625

Norm of the Cartesian gradient     ...    0.2251189005
RMS gradient                       ...    0.0347366005
MAX gradient                       ...    0.1371464287
------------------------------------------------------------------------------
                         ORCA GEOMETRY RELAXATION STEP
------------------------------------------------------------------------------

Reading the OPT-File                    .... done
Getting information on internals        .... done
Copying old internal coords+grads       .... done
Making the new internal coordinates     .... (2022 redundants) done
Validating the new internal coordinates .... (2022 redundants) done
Calculating the B-matrix                .... done
Calculating the G,G- and P matrices     .... done
Transforming gradient to internals      .... done
Projecting the internal gradient        .... done
Number of atoms                         ....  14
Number of internal coordinates          ....  62
Current Energy                          ....   -21.404493910 Eh
Current gradient norm                   ....     0.225118901 Eh/bohr
Maximum allowed component of the step   ....  0.300
Current trust radius                    ....  0.300
Updating the Hessian (BFGS)             .... done
Forming the augmented Hessian           .... done
Diagonalizing the augmented Hessian     .... done
Last element of RFO vector              ....  0.951815863
Lowest eigenvalues of augmented Hessian:
 -0.035810060  0.013246072  0.015144623  0.017588335  0.033379906
Length of the computed step             ....  0.322194800
Warning: the length of the step is outside the trust region - taking restricted step instead
The input lambda is                     ....     0.012202
   iter:   5  x=   -0.000769  g=   37.751954 f(x)=     0.218304
   iter:  10  x=   -0.054161  g=    0.636850 f(x)=     0.000198
The output lambda is                    ....    -0.054161 (13 iterations)
The final length of the internal step   ....  0.300000000
Converting the step to Cartesian space:
 Initial RMS(Int)=    0.0381000381
Transforming coordinates:
 Iter   0:  RMS(Cart)=    0.0384842405 RMS(Int)=    0.0380970031
 Iter   5:  RMS(Cart)=    0.0000000113 RMS(Int)=    0.0000000097
done
Storing new coordinates                 .... done
The predicted energy change is          ....    -0.019456919
Previously predicted energy change      ....    -0.066772523
Actually observed energy change         ....    -0.061098105
Ratio of predicted to observed change   ....     0.915018663
New trust radius                        ....     0.450000000

                                .--------------------.
          ----------------------|Geometry convergence|-------------------------
          Item                value                   Tolerance       Converged
          ---------------------------------------------------------------------
          Energy change      -0.0610981051            0.0000050000      NO
          RMS gradient        0.0164379791            0.0001000000      NO
          MAX gradient        0.0778462975            0.0003000000      NO
          RMS step            0.0381000381            0.0020000000      NO
          MAX step            0.2188574704            0.0040000000      NO
          -------------------------------------------------------------------------
          ........................................................
          Max(Bonds)      0.1158      Max(Angles)    3.69
          Max(Dihed)        2.17      Max(Improp)    0.00
          ---------------------------------------------------------------------

    ---------------------------------------------------------------------------
                         Redundant Internal Coordinates
                            (Angstroem and degrees)

        Definition                    Value    dE/dq     Step     New-Value
    ----------------------------------------------------------------------------
     1. B(C   1,C   0)                1.5207 -0.005861 -0.0038    1.5169   
     2. B(C   4,C   0)                1.5229 -0.006251  0.0034    1.5263   
     3. B(O   5,C   1)                1.3789 -0.016767  0.0133    1.3922   
     4. B(H   6,C   4)                1.0916  0.002010 -0.0030    1.0886   
     5. B(N   7,H   2)                1.0171  0.001191 -0.0015    1.0157   
     6. B(N   7,H   3)                1.0176  0.001277 -0.0018    1.0158   
     7. B(N   7,C   0)                1.4569 -0.007860  0.0089    1.4658   
     8. B(H   8,C   4)                1.0903  0.001052 -0.0004    1.0899   
     9. B(H   9,C   4)                1.0913  0.002734 -0.0047    1.0865   
    10. B(H  10,C   0)                1.1022 -0.007026  0.0088    1.1110   
    11. B(H  11,C   1)                1.3768 -0.077846  0.1158    1.4926   
    12. B(O  12,H  11)                0.8864 -0.059917  0.0443    0.9307   
    13. B(O  12,C   1)                1.2833 -0.071995  0.0631    1.3464   
    14. B(H  13,O   5)                0.9674  0.008576 -0.0080    0.9593   
    15. A(C   1,C   0,C   4)          111.97 -0.007022   -0.64    111.33   
    16. A(N   7,C   0,H  10)          111.59 -0.000891    0.44    112.03   
    17. A(C   4,C   0,H  10)          110.56  0.004360   -1.10    109.46   
    18. A(C   1,C   0,N   7)          105.32  0.002011    0.61    105.93   
    19. A(C   1,C   0,H  10)          109.26 -0.000486    0.13    109.39   
    20. A(C   4,C   0,N   7)          108.04  0.001788    0.60    108.63   
    21. A(H  11,C   1,O  12)           38.73 -0.004215   -0.88     37.85   
    22. A(O   5,C   1,O  12)          122.46  0.015321   -2.22    120.24   
    23. A(C   0,C   1,O   5)          114.34 -0.022642    2.79    117.13   
    24. A(O   5,C   1,H  11)          114.24  0.012541   -1.39    112.86   
    25. A(C   0,C   1,H  11)          117.67  0.005920   -0.24    117.43   
    26. A(C   0,C   1,O  12)          123.12  0.007426   -0.57    122.55   
    27. A(H   8,C   4,H   9)          108.72  0.002246   -0.34    108.38   
    28. A(C   0,C   4,H   6)          109.84  0.001100   -0.07    109.77   
    29. A(C   0,C   4,H   9)          110.41  0.001812   -0.35    110.07   
    30. A(H   6,C   4,H   8)          107.74 -0.001041    0.43    108.17   
    31. A(C   0,C   4,H   8)          111.72 -0.003974    0.12    111.84   
    32. A(H   6,C   4,H   9)          108.31 -0.000101    0.21    108.53   
    33. A(C   1,O   5,H  13)          112.52  0.004961   -1.36    111.17   
    34. A(C   0,N   7,H   3)          109.63 -0.001893    0.38    110.01   
    35. A(C   0,N   7,H   2)          109.47 -0.000797    0.24    109.70   
    36. A(H   2,N   7,H   3)          106.47  0.000172    0.26    106.74   
    37. A(C   1,H  11,O  12)           64.93  0.001769   -2.81     62.11   
    38. A(C   1,O  12,H  11)           76.35  0.002446    3.69     80.04   
    39. D(O   5,C   1,C   0,N   7)   -154.03  0.000752    0.60   -153.42   
    40. D(O   5,C   1,C   0,C   4)    -36.85  0.000466    1.26    -35.59   
    41. D(O   5,C   1,C   0,H  10)     85.98  0.000924   -0.36     85.62   
    42. D(H  11,C   1,C   0,H  10)   -135.77  0.000399    0.55   -135.22   
    43. D(H  11,C   1,C   0,N   7)    -15.77  0.000226    1.51    -14.27   
    44. D(H  11,C   1,C   0,C   4)    101.40 -0.000059    2.17    103.57   
    45. D(H   6,C   4,C   0,C   1)    -56.37  0.000124   -1.25    -57.62   
    46. D(H   8,C   4,C   0,H  10)    -58.97 -0.000588    0.24    -58.73   
    47. D(H   8,C   4,C   0,N   7)    178.65 -0.003368   -0.02    178.63   
    48. D(H   8,C   4,C   0,C   1)     63.12 -0.002995   -0.68     62.44   
    49. D(H   6,C   4,C   0,H  10)   -178.46  0.002531   -0.33   -178.79   
    50. D(H   6,C   4,C   0,N   7)     59.16 -0.000249   -0.59     58.57   
    51. D(H  13,O   5,C   1,O  12)    178.25  0.001246    0.81    179.06   
    52. D(H  13,O   5,C   1,H  11)   -138.44  0.001610   -0.87   -139.30   
    53. D(H  13,O   5,C   1,C   0)      1.27 -0.001045    0.45      1.72   
    54. D(H   3,N   7,C   0,C   4)     59.28  0.003846    0.05     59.32   
    55. D(H   3,N   7,C   0,C   1)    179.09 -0.002370   -0.08    179.02   
    56. D(H   2,N   7,C   0,H  10)     53.98 -0.003550    1.37     55.35   
    57. D(H   2,N   7,C   0,C   4)    175.72  0.002512    0.71    176.43   
    58. D(H   2,N   7,C   0,C   1)    -64.46 -0.003704    0.59    -63.87   
    59. D(O  12,H  11,C   1,O   5)   -112.30 -0.010010    1.92   -110.38   
    60. D(O  12,H  11,C   1,C   0)    109.41  0.004676   -0.74    108.67   
    61. D(H  11,O  12,C   1,O   5)     89.12 -0.000355   -0.23     88.88   
    62. D(H  11,O  12,C   1,C   0)    -94.17  0.001271    0.28    -93.90   
    ----------------------------------------------------------------------------

Geometry step timings:
Preparation and reading OPT file:      0.000 s ( 0.974 %)
Internal coordinates            :      0.000 s ( 1.380 %)
B/P matrices and projection     :      0.000 s (26.948 %)
Hessian update/contruction      :      0.000 s (12.013 %)
Making the step                 :      0.000 s (36.364 %)
Converting the step to Cartesian:      0.000 s ( 3.003 %)
Storing new data                :      0.000 s ( 0.974 %)
Checking convergence            :      0.000 s ( 1.623 %)
Final printing                  :      0.000 s (16.721 %)
Total time                      :      0.001 s

Time for energy+gradient        :      0.020 s
Time for complete geometry iter :      0.021 s

         *************************************************************
         *                GEOMETRY OPTIMIZATION CYCLE   3            *
         *************************************************************
---------------------------------
CARTESIAN COORDINATES (ANGSTROEM)
---------------------------------
  C    -7.132679    2.961307    0.175062
  C    -5.811335    3.702880    0.103292
  H    -8.208186    4.653530   -0.229380
  H    -8.980979    3.281243   -0.650054
  C    -7.015299    1.558666   -0.415325
  O    -4.651977    2.953782    0.284869
  H    -6.673811    1.620913   -1.447109
  N    -8.072336    3.735222   -0.641494
  H    -6.308160    0.942886    0.140159
  H    -7.983582    1.065914   -0.401223
  H    -7.460263    2.891572    1.234385
  H    -5.665773    4.748910   -0.954162
  O    -5.737028    5.033855   -0.071130
  H    -4.855932    2.024934    0.411076

----------------------------
CARTESIAN COORDINATES (A.U.)
----------------------------
  NO LB    ZA    FRAG    MASS        X           Y           Z
   0 C   6.0000    1    12.011  -13.478810    5.596059    0.330820
   1 C   6.0000    1    12.011  -10.981832    6.997430    0.195193
   2 H   1.0000    1     1.008  -15.511224    8.793897   -0.433465
   3 H   1.0000    1     1.008  -16.971590    6.200652   -1.228423
   4 C   6.0000    1    12.011  -13.256994    2.945453   -0.784851
   5 O   8.0000    1    15.999   -8.790962    5.581839    0.538324
   6 H   1.0000    1     1.008  -12.611675    3.063082   -2.734640
   7 N   7.0000    1    14.007  -15.254505    7.058547   -1.212248
   8 H   1.0000    1     1.008  -11.920695    1.781796    0.264861
   9 H   1.0000    1     1.008  -15.086784    2.014285   -0.758202
  10 H   1.0000    1     1.008  -14.097855    5.464279    2.332650
  11 H   1.0000    1     1.008  -10.706759    8.974139   -1.803104
  12 O   8.0000    1    15.999  -10.841412    9.512608   -0.134416
  13 H   1.0000    1     1.008   -9.176382    3.826571    0.776821

      -----------------------------------------------------------      
     |                   =====================                   |     
     |                           x T B                           |     
     |                   =====================                   |     
     |                         S. Grimme                         |     
     |          Mulliken Center for Theoretical Chemistry        |     
     |                    University of Bonn                     |     
      -----------------------------------------------------------      

   * xtb version 6.7.1 (edcfbbe) compiled by 'albert@albert-system' on 2024-07-22

   xtb is free software: you can redistribute it and/or modify it under
   the terms of the GNU Lesser General Public License as published by
   the Free Software Foundation, either version 3 of the License, or
   (at your option) any later version.
   
   xtb is distributed in the hope that it will be useful,
   but WITHOUT ANY WARRANTY; without even the implied warranty of
   MERCHANTABILITY or FITNESS FOR A PARTICULAR PURPOSE.  See the
   GNU Lesser General Public License for more details.
   
   Cite this work as:
   * C. Bannwarth, E. Caldeweyher, S. Ehlert, A. Hansen, P. Pracht,
     J. Seibert, S. Spicher, S. Grimme, WIREs Comput. Mol. Sci., 2020, 11,
     e01493. DOI: 10.1002/wcms.1493
   
   for GFN2-xTB:
   * C. Bannwarth, S. Ehlert and S. Grimme., J. Chem. Theory Comput., 2019,
     15, 1652-1671. DOI: 10.1021/acs.jctc.8b01176
   for GFN1-xTB:
   * S. Grimme, C. Bannwarth, P. Shushkov, J. Chem. Theory Comput., 2017,
     13, 1989-2009. DOI: 10.1021/acs.jctc.7b00118
   for GFN0-xTB:
   * P. Pracht, E. Caldeweyher, S. Ehlert, S. Grimme, ChemRxiv, 2019, preprint.
     DOI: 10.26434/chemrxiv.8326202.v1
   for GFN-FF:
   * S. Spicher and S. Grimme, Angew. Chem. Int. Ed., 2020, 59, 15665-15673.
     DOI: 10.1002/anie.202004239
   
   for ALPB and GBSA implicit solvation:
   * S. Ehlert, M. Stahn, S. Spicher, S. Grimme, J. Chem. Theory Comput.,
     2021, 17, 4250-4261. DOI: 10.1021/acs.jctc.1c00471
   
   for ddCOSMO and CPCM-X implicit solvation:
   * M. Stahn, S. Ehlert, S. Grimme, J. Phys. Chem. A,
     2023, XX, XXXX-XXXX. DOI: 10.1021/acs.jpca.3c04382
   
   for DFT-D4:
   * E. Caldeweyher, C. Bannwarth and S. Grimme, J. Chem. Phys., 2017,
     147, 034112. DOI: 10.1063/1.4993215
   * E. Caldeweyher, S. Ehlert, A. Hansen, H. Neugebauer, S. Spicher,
     C. Bannwarth and S. Grimme, J. Chem. Phys., 2019, 150, 154122.
     DOI: 10.1063/1.5090222
   * E. Caldeweyher, J.-M. Mewes, S. Ehlert and S. Grimme, Phys. Chem. Chem. Phys.
     2020, 22, 8499-8512. DOI: 10.1039/D0CP00502A
   
   for sTDA-xTB:
   * S. Grimme and C. Bannwarth, J. Chem. Phys., 2016, 145, 054103.
     DOI: 10.1063/1.4959605
   
   in the mass-spec context:
   * V. Asgeirsson, C. Bauer and S. Grimme, Chem. Sci., 2017, 8, 4879.
     DOI: 10.1039/c7sc00601b
   * J. Koopman and S. Grimme, ACS Omega 2019, 4, 12, 15120-15133.
     DOI: 10.1021/acsomega.9b02011
   
   for metadynamics refer to:
   * S. Grimme, J. Chem. Theory Comput., 2019, 155, 2847-2862
     DOI: 10.1021/acs.jctc.9b00143
   
   for SPH calculations refer to:
   * S. Spicher and S. Grimme, J. Chem. Theory Comput., 2021, 17, 1701-1714
     DOI: 10.1021/acs.jctc.0c01306
   
   for ONIOM refer to:
   * C. Plett, A. Katbashev, S. Ehlert, S. Grimme, M. Bursch,
     Phys. Chem. Chem. Phys., 2023, 25, 17860-17868. DOI: 10.1039/D3CP02178E
   
   for DIPRO refer to:
   * J. Kohn, N. Gildemeister, S. Grimme, D. Fazzi, A. Hansen,
     J. Chem. Phys., 2023, just accepted.
   
   for PTB refer to:
   * S. Grimme, M. Mueller, A. Hansen, J. Chem. Phys., 2023, 158, 124111.
     DOI: 10.1063/5.0137838
   
   with help from (in alphabetical order)
   P. Atkinson, C. Bannwarth, F. Bohle, G. Brandenburg, E. Caldeweyher
   M. Checinski, S. Dohm, S. Ehlert, S. Ehrlich, I. Gerasimov, C. Hölzer
   A. Katbashev, J. Kohn, J. Koopman, C. Lavigne, S. Lehtola, F. März, M. Müller,
   F. Musil, H. Neugebauer, J. Pisarek, C. Plett, P. Pracht, F. Pultar,
   J. Seibert, P. Shushkov, S. Spicher, M. Stahn, M. Steiner, T. Strunk,
   J. Stückrath, T. Rose, and J. Unsleber
   
 * started run on 2025/08/06 at 21:19:46.994     
   ID    Z sym.   atoms
    1    6 C      1, 2, 5
    2    1 H      3, 4, 7, 9-12, 14
    3    8 O      6, 13
    4    7 N      8

           -------------------------------------------------
          |                Calculation Setup                |
           -------------------------------------------------

          program call               : /home/uni/orca_6_1_0/otool_xtb g_XTB.xyz --grad -c 0 -u 0 -P 9 --namespace g --input g_XTB.input.tmp --acc 0.200000
          calculation namespace      : g
          coordinate file            : g_XTB.xyz
          omp threads                :                     9


           -------------------------------------------------
          |                 G F N 2 - x T B                 |
           -------------------------------------------------

        Reference                      10.1021/acs.jctc.8b01176
      * Hamiltonian:
        H0-scaling (s, p, d)           1.850000    2.230000    2.230000
        zeta-weighting                 0.500000
      * Dispersion:
        s8                             2.700000
        a1                             0.520000
        a2                             5.000000
        s9                             5.000000
      * Repulsion:
        kExp                           1.500000    1.000000
        rExp                           1.000000
      * Coulomb:
        alpha                          2.000000
        third order                    shell-resolved
        anisotropic                    true
        a3                             3.000000
        a5                             4.000000
        cn-shift                       1.200000
        cn-exp                         4.000000
        max-rad                        5.000000

q/qsh data taken from xtbrestart
CAMM data taken from xtbrestart

          ...................................................
          :                      SETUP                      :
          :.................................................:
          :  # basis functions                  32          :
          :  # atomic orbitals                  32          :
          :  # shells                           20          :
          :  # electrons                        37          :
          :  max. iterations                   250          :
          :  Hamiltonian                  GFN2-xTB          :
          :  restarted?                       true          :
          :  GBSA solvation                  false          :
          :  PC potential                    false          :
          :  electronic temp.          300.0000000     K    :
          :  accuracy                    0.2000000          :
          :  -> integral cutoff          0.3198970E+02      :
          :  -> integral neglect         0.2000000E-08      :
          :  -> SCF convergence          0.2000000E-06 Eh   :
          :  -> wf. convergence          0.2000000E-04 e    :
          :  Broyden damping             0.4000000          :
          :  net charge                          0          :
          :  unpaired electrons                  0          :
          ...................................................

 iter      E             dE          RMSdq      gap      omega  full diag
   1    -21.6297954 -0.216298E+02  0.286E-01    7.70       0.0  T
   2    -21.6299849 -0.189559E-03  0.184E-01    7.65       1.0  T
   3    -21.6299996 -0.146171E-04  0.785E-02    7.66       1.0  T
[...]
   * J. Koopman and S. Grimme, ACS Omega 2019, 4, 12, 15120-15133.
     DOI: 10.1021/acsomega.9b02011
   
   for metadynamics refer to:
   * S. Grimme, J. Chem. Theory Comput., 2019, 155, 2847-2862
     DOI: 10.1021/acs.jctc.9b00143
   
   for SPH calculations refer to:
   * S. Spicher and S. Grimme, J. Chem. Theory Comput., 2021, 17, 1701-1714
     DOI: 10.1021/acs.jctc.0c01306
   
   for ONIOM refer to:
   * C. Plett, A. Katbashev, S. Ehlert, S. Grimme, M. Bursch,
     Phys. Chem. Chem. Phys., 2023, 25, 17860-17868. DOI: 10.1039/D3CP02178E
   
   for DIPRO refer to:
   * J. Kohn, N. Gildemeister, S. Grimme, D. Fazzi, A. Hansen,
     J. Chem. Phys., 2023, just accepted.
   
   for PTB refer to:
   * S. Grimme, M. Mueller, A. Hansen, J. Chem. Phys., 2023, 158, 124111.
     DOI: 10.1063/5.0137838
   
   with help from (in alphabetical order)
   P. Atkinson, C. Bannwarth, F. Bohle, G. Brandenburg, E. Caldeweyher
   M. Checinski, S. Dohm, S. Ehlert, S. Ehrlich, I. Gerasimov, C. Hölzer
   A. Katbashev, J. Kohn, J. Koopman, C. Lavigne, S. Lehtola, F. März, M. Müller,
   F. Musil, H. Neugebauer, J. Pisarek, C. Plett, P. Pracht, F. Pultar,
   J. Seibert, P. Shushkov, S. Spicher, M. Stahn, M. Steiner, T. Strunk,
   J. Stückrath, T. Rose, and J. Unsleber
   
 * started run on 2025/08/06 at 21:19:47.610     
   ID    Z sym.   atoms
    1    6 C      1, 2, 5
    2    1 H      3, 4, 7, 9-12, 14
    3    8 O      6, 13
    4    7 N      8

           -------------------------------------------------
          |                Calculation Setup                |
           -------------------------------------------------

          program call               : /home/uni/orca_6_1_0/otool_xtb g_XTB.xyz --grad -c 0 -u 0 -P 9 --namespace g --input g_XTB.input.tmp --acc 0.200000
          calculation namespace      : g
          coordinate file            : g_XTB.xyz
          omp threads                :                     9


           -------------------------------------------------
          |                 G F N 2 - x T B                 |
           -------------------------------------------------

        Reference                      10.1021/acs.jctc.8b01176
      * Hamiltonian:
        H0-scaling (s, p, d)           1.850000    2.230000    2.230000
        zeta-weighting                 0.500000
      * Dispersion:
        s8                             2.700000
        a1                             0.520000
        a2                             5.000000
        s9                             5.000000
      * Repulsion:
        kExp                           1.500000    1.000000
        rExp                           1.000000
      * Coulomb:
        alpha                          2.000000
        third order                    shell-resolved
        anisotropic                    true
        a3                             3.000000
        a5                             4.000000
        cn-shift                       1.200000
        cn-exp                         4.000000
        max-rad                        5.000000

q/qsh data taken from xtbrestart
CAMM data taken from xtbrestart

          ...................................................
          :                      SETUP                      :
          :.................................................:
          :  # basis functions                  32          :
          :  # atomic orbitals                  32          :
          :  # shells                           20          :
          :  # electrons                        37          :
          :  max. iterations                   250          :
          :  Hamiltonian                  GFN2-xTB          :
          :  restarted?                       true          :
          :  GBSA solvation                  false          :
          :  PC potential                    false          :
          :  electronic temp.          300.0000000     K    :
          :  accuracy                    0.2000000          :
          :  -> integral cutoff          0.3198970E+02      :
          :  -> integral neglect         0.2000000E-08      :
          :  -> SCF convergence          0.2000000E-06 Eh   :
          :  -> wf. convergence          0.2000000E-04 e    :
          :  Broyden damping             0.4000000          :
          :  net charge                          0          :
          :  unpaired electrons                  0          :
          ...................................................

 iter      E             dE          RMSdq      gap      omega  full diag
   1    -21.6702449 -0.216702E+02  0.271E-03    7.99       0.0  T
   2    -21.6702449 -0.433210E-08  0.161E-03    7.99      16.6  T
   3    -21.6702449 -0.282490E-09  0.408E-04    7.99      65.5  T
   4    -21.6702449 -0.561386E-09  0.102E-04    7.99     261.8  T
   5    -21.6702449 -0.630962E-11  0.376E-05    7.99     710.3  T

   *** convergence criteria satisfied after 5 iterations ***

         #    Occupation            Energy/Eh            Energy/eV
      -------------------------------------------------------------
         1        2.0000           -0.7040751             -19.1589
       ...           ...                  ...                  ...
        13        2.0000           -0.4894686             -13.3191
        14        2.0000           -0.4616685             -12.5626
        15        2.0000           -0.4576880             -12.4543
        16        2.0000           -0.4532197             -12.3327
        17        2.0000           -0.4434760             -12.0676
        18        2.0000           -0.3836871             -10.4407
        19        1.0000           -0.2688622              -7.3161 (HOMO)
        20                          0.0247436               0.6733 (LUMO)
        21                          0.0589356               1.6037
        22                          0.0960350               2.6132
        23                          0.1192705               3.2455
        24                          0.1302587               3.5445
       ...                                ...                  ...
        32                          0.3264678               8.8836
      -------------------------------------------------------------
                  HL-Gap            0.2936058 Eh            7.9894 eV
             Fermi-level           -0.2241670 Eh           -6.0999 eV

 SCC (total)                   0 d,  0 h,  0 min,  0.009 sec
 SCC setup                      ...        0 min,  0.000 sec (  2.475%)
 Dispersion                     ...        0 min,  0.001 sec (  8.760%)
 classical contributions        ...        0 min,  0.000 sec (  2.933%)
 integral evaluation            ...        0 min,  0.001 sec (  7.411%)
 iterations                     ...        0 min,  0.005 sec ( 53.655%)
 molecular gradient             ...        0 min,  0.002 sec ( 22.976%)
 printout                       ...        0 min,  0.000 sec (  1.574%)

         :::::::::::::::::::::::::::::::::::::::::::::::::::::
         ::                     SUMMARY                     ::
         :::::::::::::::::::::::::::::::::::::::::::::::::::::
         :: total energy             -21.477062739620 Eh    ::
         :: gradient norm              0.000320103565 Eh/a0 ::
         :: HOMO-LUMO gap              7.989420977046 eV    ::
         ::.................................................::
         :: SCC energy               -21.670230429538 Eh    ::
         :: -> isotropic ES            0.052063550009 Eh    ::
         :: -> anisotropic ES         -0.000773968317 Eh    ::
         :: -> anisotropic XC          0.006020419753 Eh    ::
         :: -> dispersion             -0.007520325148 Eh    ::
         :: repulsion energy           0.193167689917 Eh    ::
         :: add. restraining           0.000000000000 Eh    ::
         :: total charge              -0.000000000000 e     ::
         :::::::::::::::::::::::::::::::::::::::::::::::::::::


Property printout bound to 'properties.out'

           -------------------------------------------------
          | TOTAL ENERGY              -21.477062739620 Eh   |
          | GRADIENT NORM               0.000320103565 Eh/α |
          | HOMO-LUMO GAP               7.989420977046 eV   |
           -------------------------------------------------

------------------------------------------------------------------------
 * finished run on 2025/08/06 at 21:19:47.627     
------------------------------------------------------------------------
 total:
 * wall-time:     0 d,  0 h,  0 min,  0.016 sec
 *  cpu-time:     0 d,  0 h,  0 min,  0.018 sec
 * ratio c/w:     1.090 speedup
 SCF:
 * wall-time:     0 d,  0 h,  0 min,  0.009 sec
 *  cpu-time:     0 d,  0 h,  0 min,  0.010 sec
 * ratio c/w:     1.059 speedup


-------------------------   --------------------
FINAL SINGLE POINT ENERGY       -21.477062739620
-------------------------   --------------------


-------------
DIPOLE MOMENT
-------------
                                X             Y             Z
Total Dipole Moment    :     -0.68000      -0.00300      -0.35700
                        -----------------------------------------
Magnitude (a.u.)       :      0.76802
Magnitude (Debye)      :      1.95216

                                *** OPTIMIZATION RUN DONE ***

		     ------------------------------
			                   _   
			                  | |  
			  __ _  ___   __ _| |_ 
			 / _` |/ _ \ / _` | __|
			| (_| | (_) | (_| | |_ 
			 \__, |\___/ \__,_|\__|
			 __/ |                
			|___/                 

		      A Global Optimizer Algorithm
		     ------------------------------

Global parameters
-----------------
  GOAT version                               ... default
  Minimum global steps                       ... 3
  Number of base workers                     ... 4
  Split workers by                           ... 2
  Final number of workers                    ... 8
  Number of available CPUs                   ... 9
  Parameter list (worker : temperature)      ...  0 : 2903.97,  1 : 1451.98, 
                                                  2 :  725.99,  3 :  363.00, 
                                                  4 : 2903.97,  5 : 1451.98, 
                                                  6 :  725.99,  7 :  363.00 
  GradComp (mean : sigma)                    ... 1.00 : 0.50
  Number of fragments                        ... 1
  Number of atoms                            ... 14
  Flexibility parameter                      ... 1.00
  Optimizations per global step              ... 208
  Optimizations per worker                   ... 26

Filtering criteria
------------------
  RMSD                                       ... 0.125 Angs (atom. pos.)
  EnDiff                                     ... 0.100 kcal/mol
  RotConst                                   ... 1.00-2.50 %
  Maximum Conf. Energy                       ... 6.000 kcal/mol

Thermodynamics
--------------
  Ensemble temperature                       ... 298.15 K
  Degeneracy of conformers                   ... 1
  *No rotamers will be included in Gconf

------------------------------------------------------------------------------
   Iter  MinTemp     MaxEn       GradComp    NOpt   NProcs    Output
------------------------------------------------------------------------------
List of participating nodes    ...  g.goat.0.hostnames

   0     2903.97     42.00    1.00 : 0.50      26        1    g.goat.0.0.out
   3      363.00     42.00    1.00 : 0.50      26        1    g.goat.0.3.out
   1     1451.98     42.00    1.00 : 0.50      26        1    g.goat.0.1.out
   5     1451.98     42.00    1.00 : 0.50      26        1    g.goat.0.5.out
   4     2903.97     42.00    1.00 : 0.50      26        1    g.goat.0.4.out
   7      363.00     42.00    1.00 : 0.50      26        1    g.goat.0.7.out
   6      725.99     42.00    1.00 : 0.50      26        1    g.goat.0.6.out
   2      725.99     42.00    1.00 : 0.50      26        1    g.goat.0.2.out

			     GOAT Global Iter 1
		Iter    Min En       Sconf       Gconf   
		        Hartree      cal/(molK)  kcal/mol
		=========================================

		   1    -21.478435   3.215       -0.457

List of participating nodes    ...  g.goat.1.hostnames

   1     1451.98     42.00    1.00 : 0.50      26        1    g.goat.1.1.out
   0     2903.97     42.00    1.00 : 0.50      26        1    g.goat.1.0.out
   7      363.00     42.00    1.00 : 0.50      26        1    g.goat.1.7.out
   5     1451.98     42.00    1.00 : 0.50      26        1    g.goat.1.5.out
   4     2903.97     42.00    1.00 : 0.50      26        1    g.goat.1.4.out
   3      363.00     42.00    1.00 : 0.50      26        1    g.goat.1.3.out
   6      725.99     42.00    1.00 : 0.50      26        1    g.goat.1.6.out
   2      725.99     42.00    1.00 : 0.50      26        1    g.goat.1.2.out

			     GOAT Global Iter 2
		Iter    Min En       Sconf       Gconf   
		        Hartree      cal/(molK)  kcal/mol
		=========================================

		   1    -21.478435   3.215       -0.457
		   2    -21.478435   3.220       -0.457

List of participating nodes    ...  g.goat.2.hostnames

   2      725.99     42.00    1.00 : 0.50      26        1    g.goat.2.2.out
   3      363.00     42.00    1.00 : 0.50      26        1    g.goat.2.3.out
   0     2903.97     42.00    1.00 : 0.50      26        1    g.goat.2.0.out
   7      363.00     42.00    1.00 : 0.50      26        1    g.goat.2.7.out
   4     2903.97     42.00    1.00 : 0.50      26        1    g.goat.2.4.out
   6      725.99     42.00    1.00 : 0.50      26        1    g.goat.2.6.out
   1     1451.98     42.00    1.00 : 0.50      26        1    g.goat.2.1.out
   5     1451.98     42.00    1.00 : 0.50      26        1    g.goat.2.5.out

			     GOAT Global Iter 3
		Iter    Min En       Sconf       Gconf   
		        Hartree      cal/(molK)  kcal/mol
		=========================================

		   1    -21.478435   3.215       -0.457
		   2    -21.478435   3.220       -0.457
		   3    -21.478435   3.265       -0.460

		Global minimum found!
		Writing structure to g.globalminimum.xyz

		# Final ensemble info #
		Conformer     Energy     Degen.   % total   % cumul.  
		              (kcal/mol)
		------------------------------------------------------
		        0     0.000	     1      45.99      45.99
		        1     0.499	     1      19.82      65.81
		        2     0.861	     1      10.75      76.57
		        3     0.920	     1       9.74      86.31
		        4     1.326	     1       4.91      91.21
		        5     1.351	     1       4.71      95.92
		        6     1.991	     1       1.60      97.52
		        7     2.335	     1       0.89      98.41
		        8     2.699	     1       0.48      98.90
		        9     2.966	     1       0.31      99.20
		       10     3.050	     1       0.27      99.47
		       11     3.496	     1       0.13      99.60
		       12     3.541	     1       0.12      99.71
		       13     3.878	     1       0.07      99.78
		       14     4.053	     1       0.05      99.83
		       15     4.113	     1       0.04      99.87
		       16     4.160	     1       0.04      99.91
		       17     4.328	     1       0.03      99.94
		       18     4.391	     1       0.03      99.97
		       19     5.155	     1       0.01      99.98
		       20     5.267	     1       0.01      99.99
		       21     5.325	     1       0.01      99.99
		       22     5.705	     1       0.00     100.00
		       23     5.832	     1       0.00     100.00
		       24     5.867	     1       0.00     100.00

		Conformers below 3 kcal/mol: 10
		Lowest energy conformer    : -21.478435 Eh
		Sconf at 298.15 K          :  3.27 cal/(molK)
		Gconf at 298.15 K          : -0.46 kcal/mol

		Writing final ensemble to g.finalensemble.xyz

--------------------------------
SUGGESTED CITATIONS FOR THIS RUN
--------------------------------

Below you find a list of papers that are relevant to this ORCA run
We neither can nor want to force you to cite these papers, but we appreciate if you do
You receive ORCA, which is the product of decades of hard work by many enthusiastic individuals, for free
The only thing we kindly ask in return is that you cite our papers,
We deeply appreciate it, if you show your appreciation for ORCA by not just citing the generic ORCA reference.

Please note that relegating all ORCA citations to the supporting information does *not* help us.
SI sections are not indexed - citations you put there will not count into any citation statistics
But we need these citations in order to attract the funding resources that allow us to do what we are doing

Therefore, if you are a happy ORCA user, please consider citing a few of the papers listed below in the main body of your paper

In addition to the list printed below, the program has created the file g.bibtex that contains the list in bibtex format
You can import this file easily into all common literature databanks and citation aid programs


List of essential papers. We consider these as the minimum necessary citations

  1. Bannwarth, C.; Ehlert, S.; Grimme, S.
     GFN2-xTB—An Accurate and Broadly Parametrized Self-Consistent Tight-Binding Quantum Chemical Method with Multipole Electrostatics and Density-Dependent Dispersion Contributions
     J. Chem. Theory Comput. 2019 15(3), 1652-1671
     doi.org/10.1021/acs.jctc.8b01176
  2. Neese, F.
     Software update: the ORCA program system, version 6.0
     WIRES Comput. Molec. Sci. 2025 15(1), e70019
     doi.org/10.1002/wcms.7019
  3. de Souza, B.
     GOAT: A Global Optimization Algorithm for Molecules and Atomic Clusters
     Angewandte Chemie 2025 64(18), e202500393
     doi.org/10.1002/anie.202500393

List of papers to cite with high priority. The work reported in these papers was absolutely
necessary for this run to complete.
Our perspective: the developers of density functionals and basis sets usually get cited in chemistry papers
Good! But without the algorithms to do something with them, the functionals or basis sets would not do anything.
Hence, in our opinion, the algorithm design and method developments papers are equally worthy of getting cited

  1. Bannwarth, C.; Caldeweyher, E.; Ehlert, S.; Hansen, A.; Pracht, P.; Seibert, J.; Spicher, S.; Grimme, S.
     Extended tight-binding quantum chemistry methods
     WIRES Comput. Molec. Sci. 2020 11(2), e1493
     doi.org/10.1002/wcms.1493

List of suggested additional citations. These are papers that are important in the 'surrounding' of 
of this run, or papers that preceded the highly important papers. If you like your results we are grateful for a citation.

  1. Neese, F.
     The ORCA program system
     WIRES Comput. Molec. Sci. 2012 2(1), 73-78
     doi.org/10.1002/wcms.81
  2. Neese, F.
     Software update: the ORCA program system, version 4.0
     WIRES Comput. Molec. Sci. 2018 8(1), 1-6
     doi.org/10.1002/wcms.1327
  3. Neese, F.; Wennmohs, F.; Becker, U.; Riplinger, C.
     The ORCA quantum chemistry program package
     J. Chem. Phys. 2020 152(22), 224108
     doi.org/10.1063/5.0004608
  4. Neese, F.
     Software update: The ORCA program system—Version 5.0
     WIRES Comput. Molec. Sci. 2022 12(1), e1606
     doi.org/10.1002/wcms.1606

List of optional additional citations

  1. Neese, F.
     Approximate second-order SCF convergence for spin unrestricted wavefunctions
     Chem. Phys. Lett. 2000 325(1-3), 93-98
     doi.org/10.1016/s0009-2614(00)00662-x

Timings for individual modules:

Sum of individual times          ...       96.266 sec (=   1.604 min)
Geometry relaxation              ...        0.046 sec (=   0.001 min)   0.0 %
GOAT                             ...       95.643 sec (=   1.594 min)  99.4 %
XTB module                       ...        0.577 sec (=   0.010 min)   0.6 %
                             ****ORCA TERMINATED NORMALLY****
TOTAL RUN TIME: 0 days 0 hours 1 minutes 37 seconds 321 msec
