
                                 *****************
                                 * O   R   C   A *
                                 *****************

                                            #,                                       
                                            ###                                      
                                            ####                                     
                                            #####                                    
                                            ######                                   
                                           ########,                                 
                                     ,,################,,,,,                         
                               ,,#################################,,                 
                          ,,##########################################,,             
                       ,#########################################, ''#####,          
                    ,#############################################,,   '####,        
                  ,##################################################,,,,####,       
                ,###########''''           ''''###############################       
              ,#####''   ,,,,##########,,,,          '''####'''          '####       
            ,##' ,,,,###########################,,,                        '##       
           ' ,,###''''                  '''############,,,                           
         ,,##''                                '''############,,,,        ,,,,,,###''
      ,#''                                            '''#######################'''  
     '                                                          ''''####''''         
             ,#######,   #######,   ,#######,      ##                                
            ,#'     '#,  ##    ##  ,#'     '#,    #''#        ,####,    ,#,          
            ##       ##  ##   ,#'  ##            #'  '#       #'       ,# #          
            ##       ##  #######   ##           ,######,      #####,      #          
            '#,     ,#'  ##    ##  '#,     ,#' ,#      #,     #,   #      #          
             '#######'   ##     ##  '#######'  #'      '#     '####' #    #          



                #########################################################
                #                        -***-                          #
                #          Department of theory and spectroscopy        #
                #                                                       #
                #                      Frank Neese                      #
                #                                                       #
                #     Directorship, Architecture, Infrastructure        #
                #                    SHARK, DRIVERS                     #
                #        Core code/Algorithms in most modules           #
                #                                                       #
                #        Max Planck Institute fuer Kohlenforschung      #
                #                Kaiser Wilhelm Platz 1                 #
                #                 D-45470 Muelheim/Ruhr                 #
                #                      Germany                          #
                #                                                       #
                #                  All rights reserved                  #
                #                        -***-                          #
                #########################################################


                         Program Version 6.1.0  -  RELEASE   -
                                (GIT: $679e74b$)
                          ($2025-06-10 18:02:51 +0200$)


 With contributions from (in alphabetic order):
[Max-Planck-Institut fuer Kohlenforschung]                               
  Daniel Aravena         : Magnetic Suceptibility                        
  Michael Atanasov       : Ab Initio Ligand Field Theory (pilot matlab implementation)
  Alexander A. Auer      : GIAO ZORA, VPT2 properties, NMR spectrum      
  Ute Becker             : All parallelization in ORCA, NUMFREQ, NUMCALC 
  Giovanni Bistoni       : ED, misc. LED, open-shell LED, HFLD           
  Dmytro Bykov           : pre 5.0 version of the SCF Hessian            
  Marcos Casanova-Páez   : Triplet and SCS-CIS(D). UHF-(DLPNO)-IP/EA/STEOM-CCSD. UHF-CVS-IP/STEOM-CCSD   
  Vijay G. Chilkuri      : MRCI spin determinant printing, contributions to CSF-ICE 
  Pauline Colinet        : FMM embedding                                 
  Dipayan Datta          : RHF DLPNO-CCSD density                        
  Achintya Kumar Dutta   : EOM-CC, STEOM-CC                              
  Nicolas Foglia         : Exact transition moments, OPA infrastructure, MCD improvements    
  Dmitry Ganyushin       : Spin-Orbit,Spin-Spin,Magnetic field MRCI      
  Miquel Garcia-Rates    : C-PCM and meta-GGA Hessian, CCSD/C-PCM, Gaussian charge scheme 
  Tiago L. C. Gouveia    : GS-ROHF, GS-ROCIS                             
  Yang Guo               : DLPNO-NEVPT2, F12-NEVPT2, CIM, IAO-localization        
  Andreas Hansen         : Spin unrestricted coupled pair/coupled cluster methods 
  Ingolf Harden          : AUTO-CI MPn and infrastructure                
  Benjamin Helmich-Paris : MC-RPA, TRAH-(SCF,CASSCF), AVAS, COSX integrals, SCF dyn. polar., MC-PDFT, srDFT 
  Lee Huntington         : MR-EOM, pCC                                   
  Robert Izsak           : Overlap fitted RIJCOSX, COSX-SCS-MP3, EOM     
  Riya Kayal             : Wick's Theorem for AUTO-CI, AUTO-CI UHF-CCSDT 
  Emily Kempfer          : AUTO-CI RHF CISDT and CCSDT, approximate NEVPT4
  Christian Kollmar      : KDIIS, OOCD, Brueckner-CCSD(T), CCSD density, CASPT2, CASPT2-K, improved NEVPT2 
  Axel Koslowski         : Symmetry handling                             
  Simone Kossmann        : meta-GGA functionals, TD-DFT gradient, OOMP2, (MP2 Hessian; deprecated post 5.0) 
  Lucas Lang             : DCDCAS, Hyperfine gauge corrections, ICE-SOC+SSC
  Marvin Lechner         : AUTO-CI (C++ implementation), FIC-MRCC        
  Spencer Leger          : CASSCF response                               
  Dagmar Lenk            : GEPOL surface, SMD, ORCA-2-JSON               
  Dimitrios Liakos       : Extrapolation schemes; Compound Job, Property file
  Dimitrios Manganas     : Further ROCIS development; embedding schemes. LFT, Crystal Embedding 
  Dimitrios Pantazis     : SARC Basis sets                               
  Anastasios Papadopoulos: AUTO-CI, single reference methods and gradients 
  Taras Petrenko         : pre 6.0 DFT Hessian and TD-DFT gradient,  ECA, NRVS 
  Petra Pikulova         : Analytic Raman intensities                    
  Peter Pinski           : DLPNO-MP2, DLPNO-MP2 Gradient                 
  Shashank Vittal Rao    : ES-AILFT, MagRelax                            
  Christoph Reimann      : Effective Core Potentials                     
  Marius Retegan         : Local ZFS, SOC                                
  Christoph Riplinger    : Optimizer, TS searches, QM/MM, DLPNO-CCSD(T), (RO)-DLPNO pert. Triples 
  Michael Roemelt        : Original ROCIS implementation, recursive CI coupling coefficients
  Masaaki Saitow         : Open-shell DLPNO-CCSD energy and density      
  Barbara Sandhoefer     : DKH picture change effects                    
  Yorick L. A. Schmerwitz: GMF and freeze-and-release deltaSCF, NEB S-IDPP initial path                    
  Kantharuban Sivalingam : CASSCF convergence/infrastructure, NEVPT2, NEVPT3, NEVPT4(SD), FIC-MRCI and CEPA variants
  Bernardo de Souza      : ESD, SOC TD-DFT                               
  Georgi L. Stoychev     : AutoAux, RI-MP2 NMR, DLPNO-MP2 response, X2C  
  Van Anh Tran           : RI-MP2 g-tensors                              
  Willem Van den Heuvel  : Paramagnetic NMR                              
  Zikuan Wang            : NOTCH, Electric field optimization            
  Frank Wennmohs         : Technical directorship and infrastructure     
  Hang Xu                : AUTO-CI-Response properties                   
                                                                         
[FACCTs GmbH]                                                            
  Markus Bursch, Nicolas Foglia, Miquel Garcia-Rates, Ingolf Harden, Hagen Neugebauer, Anastasios Papadopoulos, 
  Christoph Riplinger, Bernardo de Souza, Georgi L. Stoychev                                                    
                                                                 
  APM, various basis sets, CI-OPT, improved COSX, DLPNO-Multilevel,           
  DOCKER, DRACO, updates on ESD, Fragmentator, GOAT, IRC, LR-CPCM, L-BFGS, MBIS, meta-GGA TD-DFT gradient, ML-optimized integration grids, 
  MM, NACMEs, nearIR, NEB, NEB-TS, NL-DFT gradient (VV10), 2- and 3-layer-ONIOM, interface openCOSMO-RS, QMMM,   
  Crystal-QMMM, RESP, rigid body optimization, SF, symmetry and pop. for TD-DFT, various functionals, SOLVATOR                                   
                                                                         
[Other institutions]                                                     
  V. Asgeirsson          : NEB                                           
  Christoph Bannwarth    : sTDA-DFT, sTD-DFT, PBEh-3c, B97-3c, D3        
  Giovanni Bistoni       : ETS/NOCV, ADLD/ADEX, COVALED                  
  Martin Brehm           : Molecular dynamics                            
  Ronald Cardenas        : ETS/NOCV                                      
  Martina Colucci        : COVALED                                       
  Sebastian Ehlert       : rSCAN, r2SCAN, r2SCAN-3c, D4, dhf basis sets  
  Marvin Friede          : D4 for Fr, Ra, Ac-Lr                          
  Lars Goerigk           : TD-DFT with DH, B97 family of functionals     
  Stefan Grimme          : VdW corrections, initial TS optimization, DFT functionals, gCP, sTDA/sTD-DF 
  Waldemar Hujo          : DFT-NL                                        
  H. Jonsson             : NEB                                           
  Holger Kruse           : gCP                                           
  Marcel Mueller         : wB97X-3c, vDZP basis set                      
  Hagen Neugebauer       : wr2SCAN, Native XTB                           
  Gianluca Regni         : ADLD/ADEX                                     
  Tobias Risthaus        : pre 6.0 range-separated hybrid DFT and stability analysis
  Lukas Wittmann         : regularized MP2, r2SCAN double-hybrids, wr2SCAN        
                                                                         
We gratefully acknowledge several colleagues who have allowed us to      
interface, adapt or use parts of their codes:                            
  Ed Valeev, F. Pavosevic, A. Kumar             : LibInt (2-el integral package), F12 methods 
  Garnet Chan, S. Sharma, J. Yang, R. Olivares  : DMRG                   
  Ulf Ekstrom                                   : XCFun DFT Library      
  Mihaly Kallay                                 : mrcc  (arbitrary order and MRCC methods)
  Frank Weinhold                                : gennbo (NPA and NBO analysis)           
  Simon Mueller                                 : openCOSMO-RS                            
  Christopher J. Cramer and Donald G. Truhlar   : smd solvation model                     
  S Lehtola, MJT Oliveira, MAL Marques          : LibXC Library                           
  Liviu Ungur et al                             : ANISO software                          


 Your calculation uses the libint2 library for the computation of 2-el integrals
 For citations please refer to: http://libint.valeyev.net

 Your ORCA version has been built with support for libXC version: 7.0.0
 For citations please refer to: https://libxc.gitlab.io

 This ORCA versions uses:
   CBLAS   interface :  Fast vector & matrix operations
   LAPACKE interface :  Fast linear algebra routines
   SCALAPACK package :  Parallel linear algebra routines
   Shared memory     :  Shared parallel matrices
   BLAS/LAPACK       :  OpenBLAS 0.3.29  USE64BITINT DYNAMIC_ARCH NO_AFFINITY Haswell SINGLE_THREADED
        Core in use  :  Haswell
   Copyright (c) 2011-2014, The OpenBLAS Project


  ***********************************
  * Starting time: Thu Aug 14 12:18:20 2025
  * Host name:     CHEMLAB02
  * Process ID:    1770360
  * Working dir.:  /home/vivek/mm-project/vivek/MP2/k/4
  ***********************************



***************************************
The coordinates will be read from file: /home/vivek/mm-project/vivek/xtb-goat/k/K_CONF/4.xyz
***************************************


================================================================================

----- Orbital basis set information -----
Your calculation utilizes the basis: 6-31G**
   H-He, Li-Ne : W. J. Hehre, R. Ditchfield and J.A. Pople, J. Chem. Phys. 56, 2257 (1972).
                 Note: He and Ne are unpublished basis sets taken from the Gaussian program.
                 Note: Li and B from J. D. Dill and J. A. Pople, J. Chem. Phys. 62, 2921 (1975).
   Na - Ar     : M. M. Francl, W. J. Pietro, W. J. Hehre, J. S. Binkley, M. S. Gordon, 
                 D. J. DeFrees and J. A. Pople, J. Chem. Phys. 77, 3654 (1982).
   K - Zn      : V. A. Rassolov, J. A. Pople, M. A. Ratner, and T. L. Windus, J. Chem. Phys. 109, 1223 (1998).

================================================================================
                                        WARNINGS
                       Please study these warnings very carefully!
================================================================================


WARNING: No MP2 level density has been requested!
         To calculate MP2 level properties use
         %mp2 Density relaxed end
         or
         %mp2 Density unrelaxed end

WARNING: Post HF methods need fully converged wavefunctions
  ===> : Setting SCFConvForced true
         You can overwrite this default with %scf ConvForced false 


================================================================================
                                       INPUT FILE
================================================================================
NAME = 4.inp
|  1> ! MP2 6-31G** 
|  2> 
|  3> * xyzfile 0 1 /home/vivek/mm-project/vivek/xtb-goat/k/K_CONF/4.xyz
|  4> 
|  5>                          ****END OF INPUT****
================================================================================

                       ****************************
                       * Single Point Calculation *
                       ****************************

---------------------------------
CARTESIAN COORDINATES (ANGSTROEM)
---------------------------------
  C    -13.851986    7.254313    0.562341
  C    -12.823895    6.314767    1.209344
  H    -14.713251    7.988295    2.257069
  H    -15.500105    6.700031    1.624665
  N    -15.007225    7.555053    1.387466
  C    -11.639642    6.043444    0.285611
  H    -12.464813    6.763254    2.140149
  H    -13.311668    5.369094    1.462149
  C    -10.632576    5.096064    0.929532
  H    -12.002918    5.604686   -0.646112
  H    -11.155648    6.988993    0.034889
  C     -9.417153    4.799129    0.032710
  H    -10.279802    5.510834    1.877154
  H    -11.108246    4.137099    1.141706
  C     -8.504828    6.018183    0.014292
  H     -8.242573    7.675871   -0.895057
  N     -8.736275    3.621253    0.538437
  O     -8.837911    6.908925   -0.925643
  H    -13.371157    8.204182    0.312080
  H    -14.218691    6.808189   -0.366219
  H     -7.955753    3.377124   -0.062343
  O     -7.573828    6.177682    0.759993
  H     -9.759742    4.600033   -0.987606
  H     -8.352565    3.826880    1.456462

----------------------------
CARTESIAN COORDINATES (A.U.)
----------------------------
  NO LB      ZA    FRAG     MASS         X           Y           Z
   0 C     6.0000    0    12.011  -26.176461   13.708665    1.062670
   1 C     6.0000    0    12.011  -24.233650   11.933180    2.285328
   2 H     1.0000    0     1.008  -27.804016   15.095690    4.265243
   3 H     1.0000    0     1.008  -29.290954   12.661225    3.070173
   4 N     7.0000    0    14.007  -28.359546   14.276981    2.621932
   5 C     6.0000    0    12.011  -21.995736   11.420454    0.539726
   6 H     1.0000    0     1.008  -23.555083   12.780698    4.044295
   7 H     1.0000    0     1.008  -25.155406   10.146118    2.763061
   8 C     6.0000    0    12.011  -20.092657    9.630166    1.756561
   9 H     1.0000    0     1.008  -22.682227   10.591322   -1.220975
  10 H     1.0000    0     1.008  -21.081120   13.207282    0.065931
  11 C     6.0000    0    12.011  -17.795841    9.069040    0.061814
  12 H     1.0000    0     1.008  -19.426011   10.413966    3.547306
  13 H     1.0000    0     1.008  -20.991543    7.817984    2.157511
  14 C     6.0000    0    12.011  -16.071795   11.372718    0.027008
  15 H     1.0000    0     1.008  -15.576206   14.505293   -1.691412
  16 N     7.0000    0    14.007  -16.509168    6.843176    1.017498
  17 O     8.0000    0    15.999  -16.701231   13.055976   -1.749212
  18 H     1.0000    0     1.008  -25.267825   15.503658    0.589745
  19 H     1.0000    0     1.008  -26.869433   12.865612   -0.692054
  20 H     1.0000    0     1.008  -15.034195    6.381840   -0.117811
  21 O     8.0000    0    15.999  -14.312460   11.674127    1.436179
  22 H     1.0000    0     1.008  -18.443240    8.692803   -1.866305
  23 H     1.0000    0     1.008  -15.784061    7.231755    2.752314

--------------------------------
INTERNAL COORDINATES (ANGSTROEM)
--------------------------------
 C      0   0   0     0.000000000000     0.00000000     0.00000000
 C      1   0   0     1.535686108340     0.00000000     0.00000000
 H      1   2   0     2.037795908974    98.79663884     0.00000000
 H      3   1   2     1.636672592867    66.31787327   265.91274761
 N      4   3   1     1.015015358744    36.27285689   320.82042547
 C      2   1   3     1.526222026926   111.91514055   203.89427920
 H      2   1   3     1.093836662839   109.11337368   325.19453393
 H      2   1   3     1.093676912045   109.13672881    82.65080745
 C      6   2   1     1.525235913595   111.54485888   180.70486625
 H      6   2   1     1.092055228866   109.24986107   301.63506710
 H      6   2   1     1.091408850003   109.21523225    58.87890157
 C      9   6   2     1.539386989270   113.27678588   180.22840179
 H      9   6   2     1.092917981266   110.08720994   302.38749756
 H      9   6   2     1.091280739783   109.88347573    60.96131593
 C     12   9   6     1.522751198482   109.00605798    74.26928166
 H     15  12   9     1.908826704136   141.56460664   273.57008602
 N     12   9   6     1.451463493308   108.90033010   196.59471962
 O     16  15  12     0.971374256140    40.98581694   358.64270172
 H      1   2   3     1.093653759508   109.47821479    97.04611248
 H      1   2   3     1.093491290841   109.43067083   215.11908546
 H     17  12   9     1.014765835571   110.47279171   177.26069066
 O     15  12   9     1.203441470328   124.20137759    93.01944822
 H     12   9   6     1.094555720321   109.33140920   315.47921611
 H     17  12   9     1.016014713739   109.13187416   294.69394571

---------------------------
INTERNAL COORDINATES (A.U.)
---------------------------
 C      0   0   0     0.000000000000     0.00000000     0.00000000
 C      1   0   0     2.902026172430     0.00000000     0.00000000
 H      1   2   0     3.850876184786    98.79663884     0.00000000
 H      3   1   2     3.092862971414    66.31787327   265.91274761
 N      4   3   1     1.918101049750    36.27285689   320.82042547
 C      2   1   3     2.884141650447   111.91514055   203.89427920
 H      2   1   3     2.067051728008   109.11337368   325.19453393
 H      2   1   3     2.066749842758   109.13672881    82.65080745
 C      6   2   1     2.882278166316   111.54485888   180.70486625
 H      6   2   1     2.063685305674   109.24986107   301.63506710
 H      6   2   1     2.062463826643   109.21523225    58.87890157
 C      9   6   2     2.909019823843   113.27678588   180.22840179
 H      9   6   2     2.065315671431   110.08720994   302.38749756
 H      9   6   2     2.062221733413   109.88347573    60.96131593
 C     12   9   6     2.877582735230   109.00605798    74.26928166
 H     15  12   9     3.607159707932   141.56460664   273.57008602
 N     12   9   6     2.742868495737   108.90033010   196.59471962
 O     16  15  12     1.835631317647    40.98581694   358.64270172
 H      1   2   3     2.066706090803   109.47821479    97.04611248
 H      1   2   3     2.066399069517   109.43067083   215.11908546
 H     17  12   9     1.917629519290   110.47279171   177.26069066
 O     15  12   9     2.274174797123   124.20137759    93.01944822
 H     12   9   6     2.068410549724   109.33140920   315.47921611
 H     17  12   9     1.919989557001   109.13187416   294.69394571

---------------------
BASIS SET INFORMATION
---------------------
There are 4 groups of distinct atoms

 Group   1 Type C   : 10s4p1d contracted to 3s2p1d pattern {631/31/1}
 Group   2 Type H   : 4s1p contracted to 2s1p pattern {31/1}
 Group   3 Type N   : 10s4p1d contracted to 3s2p1d pattern {631/31/1}
 Group   4 Type O   : 10s4p1d contracted to 3s2p1d pattern {631/31/1}

Atom   0C    basis set group =>   1
Atom   1C    basis set group =>   1
Atom   2H    basis set group =>   2
Atom   3H    basis set group =>   2
Atom   4N    basis set group =>   3
Atom   5C    basis set group =>   1
Atom   6H    basis set group =>   2
Atom   7H    basis set group =>   2
Atom   8C    basis set group =>   1
Atom   9H    basis set group =>   2
Atom  10H    basis set group =>   2
Atom  11C    basis set group =>   1
Atom  12H    basis set group =>   2
Atom  13H    basis set group =>   2
Atom  14C    basis set group =>   1
Atom  15H    basis set group =>   2
Atom  16N    basis set group =>   3
Atom  17O    basis set group =>   4
Atom  18H    basis set group =>   2
Atom  19H    basis set group =>   2
Atom  20H    basis set group =>   2
Atom  21O    basis set group =>   4
Atom  22H    basis set group =>   2
Atom  23H    basis set group =>   2
------------------------------------------------------------------------------
                             ORCA STARTUP CALCULATIONS
------------------------------------------------------------------------------
------------------------------------------------------------------------------
                   ___                                                        
                  /   \      - P O W E R E D   B Y -                         
                 /     \                                                     
                 |  |  |   _    _      __       _____    __    __             
                 |  |  |  | |  | |    /  \     |  _  \  |  |  /  |          
                  \  \/   | |  | |   /    \    | | | |  |  | /  /          
                 / \  \   | |__| |  /  /\  \   | |_| |  |  |/  /          
                |  |  |   |  __  | /  /__\  \  |    /   |      \           
                |  |  |   | |  | | |   __   |  |    \   |  |\   \          
                \     /   | |  | | |  |  |  |  | |\  \  |  | \   \       
                 \___/    |_|  |_| |__|  |__|  |_| \__\ |__|  \__/        
                                                                              
                      - O R C A' S   B I G   F R I E N D -                    
                                      &                                       
                       - I N T E G R A L  F E E D E R -                       
                                                                              
 v1 FN, 2020, v2 2021, v3 2022-2024                                           
------------------------------------------------------------------------------


----------------------
SHARK INTEGRAL PACKAGE
----------------------

Number of atoms                             ...     24
Number of basis functions                   ...    210
Number of shells                            ...    102
Maximum angular momentum                    ...      2
Integral batch strategy                     ... SHARK/LIBINT Hybrid
RI-J (if used) integral strategy            ... SPLIT-RIJ (Revised 2003 algorithm where possible)
Printlevel                                  ...      1
Contraction scheme used                     ... SEGMENTED contraction
Prescreening option                         ... SCHWARTZ
   Thresh                                   ... 1.000e-10
   Tcut                                     ... 1.000e-11
   Tpresel                                  ... 1.000e-11 
Coulomb Range Separation                    ... NOT USED
Exchange Range Separation                   ... NOT USED
Multipole approximations                    ... NOT USED
Finite Nucleus Model                        ... NOT USED
CABS basis                                  ... NOT available
Auxiliary Coulomb fitting basis             ... NOT available
Auxiliary J/K fitting basis                 ... NOT available
Auxiliary Correlation fitting basis         ... NOT available
Auxiliary 'external' fitting basis          ... NOT available

Checking pre-screening integrals            ... done (  0.0 sec) Dimension = 102
   => SHARK Basis and OBASIS are compatible. Storing Pre-screening
Shell pair information
Shell pair cut-off parameter TPreSel        ...   1.0e-11
Total number of shell pairs                 ...      5253
Shell pairs after pre-screening             ...      4229
Total number of primitive shell pairs       ...     24562
Primitive shell pairs kept                  ...     12833
          la=0 lb=0:   1405 shell pairs
          la=1 lb=0:   1585 shell pairs
          la=1 lb=1:    476 shell pairs
          la=2 lb=0:    457 shell pairs
          la=2 lb=1:    264 shell pairs
          la=2 lb=2:     42 shell pairs

Checking whether 4 symmetric matrices of dimension 210 fit in memory
:Max Core in MB      =   4096.00
 MB in use           =      6.80
 MB left             =   4089.20
 MB needed           =      0.68
 Data fit in memory  = YES
Calculating Nuclear repulsion               ... done (  0.0 sec) ENN=    550.812511994560 Eh

Diagonalization of the overlap matrix:
Smallest eigenvalue                        ... 2.817e-03
Time for diagonalization                   ...    0.002 sec
Threshold for overlap eigenvalues          ... 1.000e-07
Number of eigenvalues below threshold      ... 0
Time for construction of square roots      ...    0.001 sec
Total time needed                          ...    0.003 sec

-------------------
DFT GRID GENERATION
-------------------

General Integration Accuracy     IntAcc      ... 4.388
Radial Grid Type                 RadialGrid  ... OptM3 with GC (2021)
Angular Grid (max. ang.)         AngularGrid ... 4 (Lebedev-302)
Angular grid pruning method      GridPruning ... 4 (adaptive)
Weight generation scheme         WeightScheme... mBecke (2022)
Basis function cutoff            BFCut       ... 1.0000e-10
Integration weight cutoff        WCut        ... 1.0000e-14
Partially contracted basis set               ... off
Rotationally invariant grid construction     ... off
Angular grids for H and He will be reduced by one unit

Total number of grid points                  ...   105014
Total number of batches                      ...     1653
Average number of points per batch           ...       63
Average number of grid points per atom       ...     4376
Grids setup in   0.4 sec
Initializing property integral containers    ... done (  0.0 sec)

SHARK setup successfully completed in   0.5 seconds

Maximum memory used throughout the entire STARTUP-calculation: 41.6 MB
-------------------------------------------------------------------------------
                                 ORCA GUESS
                   Start orbitals & Density for SCF / CASSCF
-------------------------------------------------------------------------------

------------
SCF SETTINGS
------------
Hamiltonian:
 Ab initio Hamiltonian  Method          .... Hartree-Fock(GTOs)


General Settings:
 Integral files         IntName         .... 4
 Hartree-Fock type      HFTyp           .... RHF
 Total Charge           Charge          ....    0
 Multiplicity           Mult            ....    1
 Number of Electrons    NEL             ....   80
 Basis Dimension        Dim             ....  210
 Nuclear Repulsion      ENuc            ....    550.8125119946 Eh

Convergence Acceleration:
 AO-DIIS                CNVDIIS         .... on
   Start iteration      DIISMaxIt       ....    12
   Startup error        DIISStart       ....  0.200000
   # of expansion vecs  DIISMaxEq       ....     5
   Bias factor          DIISBfac        ....   1.050
   Max. coefficient     DIISMaxC        ....  10.000
 MO-DIIS                CNVKDIIS        .... off
 Trust-Rad. Augm. Hess. CNVTRAH         .... auto
   Auto Start mean grad. ratio tolernc. ....  1.125000
   Auto Start start iteration           ....    50
   Auto Start num. interpolation iter.  ....    10
   Max. Number of Micro iterations      ....    24
   Max. Number of Macro iterations      .... Maxiter - #DIIS iter
   Number of Davidson start vectors     ....     2
   Converg. threshold    (grad. norm)   ....   5.000e-05
   Grad. Scal. Fac. for Micro threshold ....   0.100
   Minimum threshold for Micro iter.    ....   1.000e-02
   NR start threshold (gradient norm)   ....   1.000e-04
   Initial trust radius                 ....   0.400
   Minimum AH scaling param. (alpha)    ....   1.000
   Maximum AH scaling param. (alpha)    .... 1000.000
   Quad. conv. algorithm                .... NR
   White noise on init. David. guess    .... on
   Maximum white noise                  ....   0.010
   Pseudo random numbers                .... off
   Inactive MOs                         .... canonical
   Orbital update algorithm             .... Taylor
   Preconditioner                       .... Diag
   Full preconditioner red. dimension   ....   250
 SOSCF                 CNVSOSCF           .... on
   Start iteration     SOSCFMaxIt         ....   150
   Startup grad/error  SOSCFStart         ....  0.003300
   Hessian update      SOSCFHessUp        .... L-BFGS
   Autom. constraints  SOSCFAutoConstrain .... off
 Level Shifting         CNVShift        .... on
   Level shift para.    LevelShift      ....    0.2500
   Turn off err/grad.   ShiftErr        ....    0.0010
 Zerner damping         CNVZerner       .... off
 Static damping         CNVDamp         .... on
   Fraction old density DampFac         ....    0.7000
   Max. Damping (<1)    DampMax         ....    0.9800
   Min. Damping (>=0)   DampMin         ....    0.0000
   Turn off err/grad.   DampErr         ....    0.1000

SCF Procedure:
 Maximum # iterations   MaxIter         ....   125
 SCF integral mode      SCFMode         .... Direct
   Integral package                     .... SHARK and LIBINT hybrid scheme
 Reset frequency        DirectResetFreq ....    20
 Integral Threshold     Thresh          ....  1.000e-10 Eh
 Primitive CutOff       TCut            ....  1.000e-11 Eh

Convergence Tolerance:
 Convergence Check Mode ConvCheckMode   .... Total+1el-Energy
 Convergence forced     ConvForced      .... 1
 Energy Change          TolE            ....  1.000e-06 Eh
 1-El. energy change                    ....  1.000e-03 Eh
 Orbital Gradient       TolG            ....  5.000e-05
 Orbital Rotation angle TolX            ....  5.000e-05
 DIIS Error             TolErr          ....  1.000e-06

------------------------------
INITIAL GUESS: MODEL POTENTIAL
------------------------------
Loading Hartree-Fock densities                     ... done
Calculating cut-offs                               ... done
Initializing the effective Hamiltonian             ... done
Setting up the integral package (SHARK)            ... done
Starting the Coulomb interaction                   ... done (   0.1 sec)
Making the grid                                    ... done (   0.1 sec)
Mapping shells                                     ... done
Starting the XC term evaluation                    ... done (   0.0 sec)
Transforming the Hamiltonian                       ... done (   0.0 sec)
Diagonalizing the Hamiltonian                      ... done (   0.0 sec)
Back transforming the eigenvectors                 ... done (   0.0 sec)
Now organizing SCF variables                       ... done
                      ------------------
                      INITIAL GUESS DONE (   0.2 sec)
                      ------------------
             **** ENERGY FILE WAS UPDATED (4.en.tmp) ****
Finished Guess after   0.3 sec
Maximum memory used throughout the entire GUESS-calculation: 12.2 MB

-------------------------------------------------------------------------------------------
                                      ORCA LEAN-SCF
                              memory conserving SCF solver
-------------------------------------------------------------------------------------------

----------------------------------------D-I-I-S--------------------------------------------
Iteration    Energy (Eh)           Delta-E    RMSDP     MaxDP     DIISErr   Damp  Time(sec)
-------------------------------------------------------------------------------------------
               ***  Starting incremental Fock matrix formation  ***
    1    -493.5181850895604612     0.00e+00  2.40e-03  6.52e-02  2.62e-01  0.700   2.1
    2    -493.6986860561302137    -1.81e-01  1.81e-03  4.72e-02  1.63e-01  0.700   1.9
                               ***Turning on AO-DIIS***
    3    -493.8045513372918549    -1.06e-01  9.64e-04  2.17e-02  9.24e-02  0.700   1.9
    4    -493.8710229816794026    -6.65e-02  2.16e-03  4.52e-02  6.21e-02  0.000   1.9
    5    -494.0178785249494240    -1.47e-01  2.45e-04  4.63e-03  5.12e-03  0.000   2.0
                              *** Initializing SOSCF ***
---------------------------------------S-O-S-C-F--------------------------------------
Iteration    Energy (Eh)           Delta-E    RMSDP     MaxDP     MaxGrad    Time(sec)
--------------------------------------------------------------------------------------
    6    -494.0184200132777050    -5.41e-04  1.22e-04  2.99e-03  3.13e-03     1.8
               *** Restarting incremental Fock matrix formation ***
    7    -494.0185358684287849    -1.16e-04  7.28e-05  1.81e-03  1.25e-03     2.2
    8    -494.0185684131894277    -3.25e-05  6.98e-05  1.77e-03  4.39e-04     1.7
    9    -494.0185797183133900    -1.13e-05  1.16e-05  1.86e-04  1.47e-04     1.7
   10    -494.0185804602709823    -7.42e-07  7.10e-06  1.45e-04  4.80e-05     1.5
                 **** Energy Check signals convergence ****

               *****************************************************
               *                     SUCCESS                       *
               *           SCF CONVERGED AFTER  10 CYCLES          *
               *****************************************************

             **** ENERGY FILE WAS UPDATED (4.en.tmp) ****

----------------
TOTAL SCF ENERGY
----------------

Total Energy       :       -494.01858060850770 Eh          -13442.92900 eV

Components:
Nuclear Repulsion  :        550.81251199456017 Eh           14988.37045 eV
Electronic Energy  :      -1044.83109260306787 Eh          -28431.29945 eV
One Electron Energy:      -1766.53097703740764 Eh          -48069.75170 eV
Two Electron Energy:        721.69988443433976 Eh           19638.45226 eV

Virial components:
Potential Energy   :       -987.55440068287658 Eh          -26872.72143 eV
Kinetic Energy     :        493.53582007436887 Eh           13429.79242 eV
Virial Ratio       :          2.00097816716539

---------------
SCF CONVERGENCE
---------------

  Last Energy change         ...    7.4196e-07  Tolerance :   1.0000e-06
  Last MAX-Density change    ...    1.4486e-04  Tolerance :   1.0000e-05
  Last RMS-Density change    ...    7.1009e-06  Tolerance :   1.0000e-06
  Last DIIS Error            ...    3.1346e-03  Tolerance :   1.0000e-06
  Last Orbital Gradient      ...    4.8047e-05  Tolerance :   5.0000e-05
  Last Orbital Rotation      ...    1.1954e-04  Tolerance :   5.0000e-05


----------------
ORBITAL ENERGIES
----------------

  NO   OCC          E(Eh)            E(eV) 
   0   2.0000     -20.621373      -561.1361 
   1   2.0000     -20.555340      -559.3392 
   2   2.0000     -15.548264      -423.0898 
   3   2.0000     -15.536457      -422.7685 
   4   2.0000     -11.383940      -309.7727 
   5   2.0000     -11.273463      -306.7665 
   6   2.0000     -11.244093      -305.9673 
   7   2.0000     -11.230344      -305.5932 
   8   2.0000     -11.221976      -305.3655 
   9   2.0000     -11.218563      -305.2726 
  10   2.0000      -1.471424       -40.0395 
  11   2.0000      -1.364404       -37.1273 
  12   2.0000      -1.197977       -32.5986 
  13   2.0000      -1.177795       -32.0494 
  14   2.0000      -1.077558       -29.3219 
  15   2.0000      -0.999423       -27.1957 
  16   2.0000      -0.925621       -25.1874 
  17   2.0000      -0.856363       -23.3028 
  18   2.0000      -0.806663       -21.9504 
  19   2.0000      -0.790319       -21.5057 
  20   2.0000      -0.715089       -19.4586 
  21   2.0000      -0.700586       -19.0639 
  22   2.0000      -0.678909       -18.4741 
  23   2.0000      -0.662988       -18.0408 
  24   2.0000      -0.641489       -17.4558 
  25   2.0000      -0.622418       -16.9368 
  26   2.0000      -0.602251       -16.3881 
  27   2.0000      -0.590863       -16.0782 
  28   2.0000      -0.583823       -15.8866 
  29   2.0000      -0.560499       -15.2520 
  30   2.0000      -0.545048       -14.8315 
  31   2.0000      -0.510871       -13.9015 
  32   2.0000      -0.500981       -13.6324 
  33   2.0000      -0.491445       -13.3729 
  34   2.0000      -0.484847       -13.1934 
  35   2.0000      -0.474412       -12.9094 
  36   2.0000      -0.467969       -12.7341 
  37   2.0000      -0.451586       -12.2883 
  38   2.0000      -0.402281       -10.9466 
  39   2.0000      -0.375890       -10.2285 
  40   0.0000       0.179305         4.8791 
  41   0.0000       0.217769         5.9258 
  42   0.0000       0.220776         6.0076 
  43   0.0000       0.235717         6.4142 
  44   0.0000       0.252147         6.8613 
  45   0.0000       0.253451         6.8967 
  46   0.0000       0.271126         7.3777 
  47   0.0000       0.289710         7.8834 
  48   0.0000       0.310130         8.4391 
  49   0.0000       0.320147         8.7116 
  50   0.0000       0.338688         9.2162 
*Only the first 10 virtual orbitals were printed.

                    ********************************
                    * MULLIKEN POPULATION ANALYSIS *
                    ********************************

-----------------------
MULLIKEN ATOMIC CHARGES
-----------------------
   0 C :   -0.021285
   1 C :   -0.225661
   2 H :    0.258488
   3 H :    0.258794
   4 N :   -0.698983
   5 C :   -0.226926
   6 H :    0.101844
   7 H :    0.102591
   8 C :   -0.230015
   9 H :    0.114394
  10 H :    0.129358
  11 C :   -0.030113
  12 H :    0.123390
  13 H :    0.149564
  14 C :    0.787449
  15 H :    0.371066
  16 N :   -0.680069
  17 O :   -0.634282
  18 H :    0.114065
  19 H :    0.114773
  20 H :    0.271657
  21 O :   -0.589592
  22 H :    0.156443
  23 H :    0.283049
Sum of atomic charges:   -0.0000000

--------------------------------
MULLIKEN REDUCED ORBITAL CHARGES
--------------------------------
  0 C s       :     3.190089  s :     3.190089
      pz      :     0.926924  p :     2.765356
      px      :     0.836906
      py      :     1.001526
      dz2     :     0.011834  d :     0.065840
      dxz     :     0.017388
      dyz     :     0.009503
      dx2y2   :     0.009990
      dxy     :     0.017124

  1 C s       :     3.239493  s :     3.239493
      pz      :     0.989170  p :     2.937810
      px      :     0.941558
      py      :     1.007082
      dz2     :     0.008317  d :     0.048358
      dxz     :     0.012455
      dyz     :     0.008501
      dx2y2   :     0.006989
      dxy     :     0.012097

  2 H s       :     0.715395  s :     0.715395
      pz      :     0.012466  p :     0.026117
      px      :     0.005425
      py      :     0.008227

  3 H s       :     0.715086  s :     0.715086
      pz      :     0.005018  p :     0.026120
      px      :     0.008806
      py      :     0.012296

  4 N s       :     3.606164  s :     3.606164
      pz      :     1.278145  p :     4.058071
      px      :     1.377552
      py      :     1.402375
      dz2     :     0.007846  d :     0.034747
      dxz     :     0.008153
      dyz     :     0.005816
      dx2y2   :     0.006558
      dxy     :     0.006374

  5 C s       :     3.234347  s :     3.234347
      pz      :     0.988848  p :     2.943546
      px      :     0.937825
      py      :     1.016872
      dz2     :     0.008607  d :     0.049034
      dxz     :     0.012495
      dyz     :     0.008584
      dx2y2   :     0.007067
      dxy     :     0.012280

  6 H s       :     0.885821  s :     0.885821
      pz      :     0.006960  p :     0.012335
      px      :     0.002496
      py      :     0.002879

  7 H s       :     0.885079  s :     0.885079
      pz      :     0.002107  p :     0.012330
      px      :     0.003090
      py      :     0.007133

  8 C s       :     3.245740  s :     3.245740
      pz      :     0.978296  p :     2.935967
      px      :     0.912202
      py      :     1.045469
      dz2     :     0.008774  d :     0.048308
      dxz     :     0.012609
      dyz     :     0.007734
      dx2y2   :     0.007872
      dxy     :     0.011319

  9 H s       :     0.873207  s :     0.873207
      pz      :     0.007063  p :     0.012399
      px      :     0.002505
      py      :     0.002830

 10 H s       :     0.857917  s :     0.857917
      pz      :     0.002213  p :     0.012725
      px      :     0.003295
      py      :     0.007217

 11 C s       :     3.200564  s :     3.200564
      pz      :     1.072975  p :     2.759336
      px      :     0.908998
      py      :     0.777363
      dz2     :     0.015862  d :     0.070212
      dxz     :     0.011309
      dyz     :     0.008348
      dx2y2   :     0.013251
      dxy     :     0.021443

 12 H s       :     0.864171  s :     0.864171
      pz      :     0.007297  p :     0.012439
      px      :     0.002343
      py      :     0.002799

 13 H s       :     0.837895  s :     0.837895
      pz      :     0.001948  p :     0.012540
      px      :     0.002878
      py      :     0.007715

 14 C s       :     2.953086  s :     2.953086
      pz      :     0.616252  p :     2.113264
      px      :     0.744627
      py      :     0.752384
      dz2     :     0.034968  d :     0.146202
      dxz     :     0.023204
      dyz     :     0.031494
      dx2y2   :     0.021941
      dxy     :     0.034595

 15 H s       :     0.587492  s :     0.587492
      pz      :     0.007126  p :     0.041442
      px      :     0.014734
      py      :     0.019582

 16 N s       :     3.605603  s :     3.605603
      pz      :     1.184209  p :     4.039734
      px      :     1.390631
      py      :     1.464894
      dz2     :     0.004978  d :     0.034732
      dxz     :     0.011896
      dyz     :     0.005549
      dx2y2   :     0.007905
      dxy     :     0.004404

 17 O s       :     3.837350  s :     3.837350
      pz      :     1.669385  p :     4.771563
      px      :     1.710344
      py      :     1.391834
      dz2     :     0.006658  d :     0.025369
      dxz     :     0.003675
      dyz     :     0.005672
      dx2y2   :     0.001163
      dxy     :     0.008201

 18 H s       :     0.873925  s :     0.873925
      pz      :     0.001950  p :     0.012010
      px      :     0.002766
      py      :     0.007294

 19 H s       :     0.873206  s :     0.873206
      pz      :     0.007002  p :     0.012021
      px      :     0.002128
      py      :     0.002890

 20 H s       :     0.702296  s :     0.702296
      pz      :     0.007871  p :     0.026047
      px      :     0.011252
      py      :     0.006924

 21 O s       :     3.873501  s :     3.873501
      pz      :     1.504653  p :     4.683447
      px      :     1.422975
      py      :     1.755819
      dz2     :     0.008216  d :     0.032644
      dxz     :     0.008877
      dyz     :     0.003776
      dx2y2   :     0.007135
      dxy     :     0.004640

 22 H s       :     0.831458  s :     0.831458
      pz      :     0.008384  p :     0.012099
      px      :     0.002336
      py      :     0.001379

 23 H s       :     0.690837  s :     0.690837
      pz      :     0.014054  p :     0.026115
      px      :     0.006432
      py      :     0.005629



                     *******************************
                     * LOEWDIN POPULATION ANALYSIS *
                     *******************************

----------------------
LOEWDIN ATOMIC CHARGES
----------------------
   0 C :   -0.043177
   1 C :   -0.130090
   2 H :    0.122445
   3 H :    0.122602
   4 N :   -0.298672
   5 C :   -0.117856
   6 H :    0.055105
   7 H :    0.055250
   8 C :   -0.103242
   9 H :    0.060883
  10 H :    0.064597
  11 C :   -0.024774
  12 H :    0.064574
  13 H :    0.076751
  14 C :    0.229308
  15 H :    0.200888
  16 N :   -0.275461
  17 O :   -0.207410
  18 H :    0.059511
  19 H :    0.059869
  20 H :    0.129048
  21 O :   -0.313637
  22 H :    0.078035
  23 H :    0.135453

-------------------------------
LOEWDIN REDUCED ORBITAL CHARGES
-------------------------------
  0 C s       :     2.879506  s :     2.879506
      pz      :     1.012171  p :     3.036019
      px      :     0.968002
      py      :     1.055846
      dz2     :     0.022984  d :     0.127652
      dxz     :     0.034259
      dyz     :     0.017362
      dx2y2   :     0.019183
      dxy     :     0.033864

  1 C s       :     2.900222  s :     2.900222
      pz      :     1.052498  p :     3.138084
      px      :     1.028853
      py      :     1.056733
      dz2     :     0.015304  d :     0.091785
      dxz     :     0.024312
      dyz     :     0.015410
      dx2y2   :     0.013721
      dxy     :     0.023038

  2 H s       :     0.796558  s :     0.796558
      pz      :     0.038390  p :     0.080996
      px      :     0.018318
      py      :     0.024288

  3 H s       :     0.796380  s :     0.796380
      pz      :     0.015718  p :     0.081018
      px      :     0.026567
      py      :     0.038733

  4 N s       :     3.190626  s :     3.190626
      pz      :     1.286263  p :     4.046718
      px      :     1.377644
      py      :     1.382811
      dz2     :     0.013481  d :     0.061328
      dxz     :     0.014339
      dyz     :     0.010569
      dx2y2   :     0.010319
      dxy     :     0.012619

  5 C s       :     2.886465  s :     2.886465
      pz      :     1.053161  p :     3.138372
      px      :     1.025241
      py      :     1.059970
      dz2     :     0.015788  d :     0.093019
      dxz     :     0.024217
      dyz     :     0.015516
      dx2y2   :     0.014132
      dxy     :     0.023367

  6 H s       :     0.905954  s :     0.905954
      pz      :     0.020612  p :     0.038941
      px      :     0.008628
      py      :     0.009700

  7 H s       :     0.905765  s :     0.905765
      pz      :     0.007699  p :     0.038985
      px      :     0.010304
      py      :     0.020981

  8 C s       :     2.892754  s :     2.892754
      pz      :     1.042776  p :     3.119051
      px      :     1.005742
      py      :     1.070534
      dz2     :     0.016052  d :     0.091437
      dxz     :     0.024676
      dyz     :     0.013928
      dx2y2   :     0.015303
      dxy     :     0.021478

  9 H s       :     0.899834  s :     0.899834
      pz      :     0.020874  p :     0.039283
      px      :     0.008789
      py      :     0.009620

 10 H s       :     0.894853  s :     0.894853
      pz      :     0.007885  p :     0.040551
      px      :     0.010916
      py      :     0.021749

 11 C s       :     2.870233  s :     2.870233
      pz      :     1.064999  p :     3.014474
      px      :     1.004183
      py      :     0.945292
      dz2     :     0.029537  d :     0.140067
      dxz     :     0.021761
      dyz     :     0.016102
      dx2y2   :     0.028271
      dxy     :     0.044395

 12 H s       :     0.895562  s :     0.895562
      pz      :     0.021996  p :     0.039864
      px      :     0.008270
      py      :     0.009598

 13 H s       :     0.882817  s :     0.882817
      pz      :     0.007370  p :     0.040432
      px      :     0.010057
      py      :     0.023006

 14 C s       :     2.849646  s :     2.849646
      pz      :     0.809422  p :     2.604394
      px      :     0.903524
      py      :     0.891448
      dz2     :     0.072790  d :     0.316653
      dxz     :     0.054510
      dyz     :     0.069406
      dx2y2   :     0.045649
      dxy     :     0.074298

 15 H s       :     0.679011  s :     0.679011
      pz      :     0.022798  p :     0.120101
      px      :     0.043683
      py      :     0.053620

 16 N s       :     3.189216  s :     3.189216
      pz      :     1.176617  p :     4.024922
      px      :     1.379165
      py      :     1.469140
      dz2     :     0.010833  d :     0.061322
      dxz     :     0.018816
      dyz     :     0.010334
      dx2y2   :     0.012170
      dxy     :     0.009169

 17 O s       :     3.459206  s :     3.459206
      pz      :     1.650328  p :     4.699930
      px      :     1.674243
      py      :     1.375359
      dz2     :     0.010319  d :     0.048274
      dxz     :     0.005759
      dyz     :     0.013066
      dx2y2   :     0.005081
      dxy     :     0.014050

 18 H s       :     0.902680  s :     0.902680
      pz      :     0.007315  p :     0.037809
      px      :     0.008774
      py      :     0.021720

 19 H s       :     0.902291  s :     0.902291
      pz      :     0.020990  p :     0.037840
      px      :     0.007571
      py      :     0.009279

 20 H s       :     0.789669  s :     0.789669
      pz      :     0.023547  p :     0.081283
      px      :     0.035765
      py      :     0.021970

 21 O s       :     3.548008  s :     3.548008
      pz      :     1.518427  p :     4.708437
      px      :     1.468901
      py      :     1.721109
      dz2     :     0.010258  d :     0.057192
      dxz     :     0.020453
      dyz     :     0.006109
      dx2y2   :     0.011817
      dxy     :     0.008555

 22 H s       :     0.882295  s :     0.882295
      pz      :     0.024866  p :     0.039670
      px      :     0.009098
      py      :     0.005706

 23 H s       :     0.782561  s :     0.782561
      pz      :     0.042072  p :     0.081986
      px      :     0.020633
      py      :     0.019281



                      *****************************
                      * MAYER POPULATION ANALYSIS *
                      *****************************

  NA   - Mulliken gross atomic population
  ZA   - Total nuclear charge
  QA   - Mulliken gross atomic charge
  VA   - Mayer's total valence
  BVA  - Mayer's bonded valence
  FA   - Mayer's free valence

  ATOM       NA         ZA         QA         VA         BVA        FA
  0 C      6.0213     6.0000    -0.0213     3.8012     3.8012     0.0000
  1 C      6.2257     6.0000    -0.2257     3.7941     3.7941     0.0000
  2 H      0.7415     1.0000     0.2585     0.9100     0.9100    -0.0000
  3 H      0.7412     1.0000     0.2588     0.9098     0.9098    -0.0000
  4 N      7.6990     7.0000    -0.6990     2.7565     2.7565     0.0000
  5 C      6.2269     6.0000    -0.2269     3.7935     3.7935    -0.0000
  6 H      0.8982     1.0000     0.1018     0.9526     0.9526     0.0000
  7 H      0.8974     1.0000     0.1026     0.9525     0.9525    -0.0000
  8 C      6.2300     6.0000    -0.2300     3.7752     3.7752     0.0000
  9 H      0.8856     1.0000     0.1144     0.9493     0.9493     0.0000
 10 H      0.8706     1.0000     0.1294     0.9523     0.9523    -0.0000
 11 C      6.0301     6.0000    -0.0301     3.7532     3.7532     0.0000
 12 H      0.8766     1.0000     0.1234     0.9517     0.9517     0.0000
 13 H      0.8504     1.0000     0.1496     0.9496     0.9496     0.0000
 14 C      5.2126     6.0000     0.7874     3.6686     3.6686    -0.0000
 15 H      0.6289     1.0000     0.3711     0.8728     0.8728     0.0000
 16 N      7.6801     7.0000    -0.6801     2.7769     2.7769     0.0000
 17 O      8.6343     8.0000    -0.6343     1.8272     1.8272    -0.0000
 18 H      0.8859     1.0000     0.1141     0.9479     0.9479    -0.0000
 19 H      0.8852     1.0000     0.1148     0.9478     0.9478     0.0000
 20 H      0.7283     1.0000     0.2717     0.9057     0.9057     0.0000
 21 O      8.5896     8.0000    -0.5896     1.8941     1.8941    -0.0000
 22 H      0.8436     1.0000     0.1564     0.9421     0.9421     0.0000
 23 H      0.7170     1.0000     0.2830     0.9059     0.9059     0.0000

  Mayer bond orders larger than 0.100000
B(  0-C ,  1-C ) :   0.9617 B(  0-C ,  4-N ) :   0.9461 B(  0-C , 18-H ) :   0.9735 
B(  0-C , 19-H ) :   0.9735 B(  1-C ,  5-C ) :   0.9654 B(  1-C ,  6-H ) :   0.9728 
B(  1-C ,  7-H ) :   0.9726 B(  2-H ,  4-N ) :   0.9153 B(  3-H ,  4-N ) :   0.9152 
B(  5-C ,  8-C ) :   0.9646 B(  5-C ,  9-H ) :   0.9727 B(  5-C , 10-H ) :   0.9664 
B(  8-C , 11-C ) :   0.9627 B(  8-C , 12-H ) :   0.9662 B(  8-C , 13-H ) :   0.9660 
B( 11-C , 14-C ) :   0.9016 B( 11-C , 16-N ) :   0.9991 B( 11-C , 22-H ) :   0.9590 
B( 14-C , 17-O ) :   0.9669 B( 14-C , 21-O ) :   1.8283 B( 15-H , 17-O ) :   0.8401 
B( 16-N , 20-H ) :   0.9105 B( 16-N , 23-H ) :   0.8975 

-------
TIMINGS
-------

Total SCF time: 0 days 0 hours 0 min 20 sec 

Total time                  ....      20.135 sec
Sum of individual times     ....      18.692 sec  ( 92.8%)

SCF preparation             ....       0.017 sec  (  0.1%)
Fock matrix formation       ....      18.613 sec  ( 92.4%)
  Startup                   ....       0.001 sec  (  0.0% of F)
  Coulomb+Exchange Fock     ....      20.047 sec  (107.7% of F)
Diagonalization             ....       0.000 sec  (  0.0%)
Density matrix formation    ....       0.005 sec  (  0.0%)
Total Energy calculation    ....       0.001 sec  (  0.0%)
Population analysis         ....       0.003 sec  (  0.0%)
Orbital Transformation      ....       0.007 sec  (  0.0%)
Orbital Orthonormalization  ....       0.000 sec  (  0.0%)
DIIS solution               ....       0.032 sec  (  0.2%)
SOSCF solution              ....       0.013 sec  (  0.1%)
Finished LeanSCF after  20.1 sec

Maximum memory used throughout the entire LEANSCF-calculation: 15.8 MB

------------------------------------------------------------------------------
                                ORCA  MP2 
------------------------------------------------------------------------------

Freezing NCore=20 chemical core electrons

----------
MP2 ENERGY (disk based algorithm)
----------

Dimension of the basis                      ...  210
Memory devoted to MP2                       ... 4096 MB   
Data format for buffers                     ... DOUBLE
Compression type for matrix containers      ... UNCOMPRESSED

-------------------------
SHARK HALF TRANSFORMATION (Exchange order)
-------------------------

Number of basis functions                   ...    210
Number of operators                         ...      1
   Operator  0:   10-  39 (p-index in (p*|q*))
   Operator  0:   10-  39 (q-index in (p*|q*)
Integral generator used                     ... SHARK
Contraction scheme used                     ... SEGMENTED CONTRACTION
MaxCore in resort                           ...   4096 MB

Half transformed integrals for op=   0      ... 4.SHARK_MNPQ0.tmp
Resorted half transformed integrals         ... 4.KAO_aa.tmp

Half trafo (segmented) done. Total time = 13.8 sec. integrals= 12.1 sec trafo=  1.5 sec

----------------------
SHARK INTEGRAL SORTING (Exchange)
----------------------

Input container                             ... 4.SHARK_MNPQ0.tmp
Output container                            ... 4.KAO_aa.tmp
Range of AO-indices                         ...    0 -  209
Range of bra indices i                      ...   10 -   39
Range of ket indices j                      ...   10 -   39
Symmetric i,j range                         ... YES
Number of (i,j) pairs generated             ...  465
Max Core memory in MB                       ...   4096

Available core memory in MB                 ...   4085.42
MB needed for one item                      ...      0.34
Fixed MB needed                             ...      0.00
Number of items                             ...       465
Number of batches                           ...         1
Items treated per batch                     ...       465
Batch   0                                   ...      0-   464 (   465)
   => Closing output file and leaving
done (  0.2 sec)

SHARK half integral transformation done. Total time = 14.0 sec.


Finished integral transformation - now doing MP2 part

OPERATOR COMBINATION   0   0: ij=( 10.. 39, 10.. 39)
  Internal MO  12
  Internal MO  15
  Internal MO  18
  Internal MO  21
  Internal MO  24
  Internal MO  27
  Internal MO  30
  Internal MO  33
  Internal MO  36
  Internal MO  39
-----------------------------------------------
 MP2 CORRELATION ENERGY   :     -1.531323717 Eh
-----------------------------------------------


-------
TIMINGS
-------
Total time                :   14.244 sec
Integral trafo            :   14.003 sec ( 98.3%)
K(i,j)                    :    0.198 sec (  1.4%)
T(i,j)                    :    0.006 sec (  0.0%)

---------------------------------------
MP2 TOTAL ENERGY:     -495.549904325 Eh
---------------------------------------

Maximum memory used throughout the entire MP2-calculation: 168.4 MB

-------------------------   --------------------
FINAL SINGLE POINT ENERGY      -495.549904325376
-------------------------   --------------------


------------------------------------------------------------------------------
                              ORCA PROPERTY CALCULATIONS
------------------------------------------------------------------------------

GBWName                                 ... 4.gbw
Number of atoms                         ...     24
Number of basis functions               ...    210
Max core memory                         ...   4096 MB

Electric properties:
Dipole moment                           ... YES
Quadrupole moment                       ...  NO
Static polarizability (Dipole/Dipole)   ...  NO
Static polarizability (Dipole/Quad.)    ...  NO
Static polarizability (Quad./Quad.)     ...  NO
Static polarizability (Velocity)        ...  NO
Static hyperpolarizability              ...  NO

Atomic electric properties:
Dipole moment                           ...  NO
Quadrupole moment                       ...  NO
Static polarizability                   ...  NO

Choice of electric origin               ... Center of mass
Position of electric origin             ...   -20.191975    11.334527     0.907299

General magnetic properties:
Magnetizability                         ...  NO

EPR properties:
g-Tensor (aka g-matrix)                 ...  NO
Zero-Field splitting spin-orbit         ...  NO
Zero-field splitting spin-spin          ...  NO
Hyperfine couplings                     ...  NO (   0 nuclei)
Quadrupole couplings                    ...  NO (   0 nuclei)
Contact density                         ...  NO (   0 nuclei)

NMR properties:
Chemical shifts                         ...  NO (   0 nuclei)
Spin-rotation constants                 ...  NO (   0 nuclei)
Spin-spin couplings                     ...  NO (   0 nuclei,    0 pairs)

Choice of magnetic origin               ... GIAO
Position of magnetic origin             ...     0.000000     0.000000     0.000000

Properties with geometric perturbations:
SCF Hessian                             ...  NO
IR spectrum                             ...  NO
VCD spectrum                            ...  NO
X-ray spectroscopy properties:
SCF XES/XAS/RIXS spectra                ...  NO

SCF SOC stabilization energy            ...  NO
Diagonal Born-Oppenheimer correction    ...  NO

-------------
DIPOLE MOMENT
-------------

Method             : SCF
Type of density    : Electron Density
Multiplicity       :   1
Irrep              :   0
Energy             :  -494.0185806085077047 Eh
Basis              : AO
                                X                 Y                 Z
Electronic contribution:     12.119194746       0.415254636      -2.594297547
Nuclear contribution   :    -11.990679895      -0.379661698       2.453519381
                        -----------------------------------------
Total Dipole Moment    :      0.128514851       0.035592937      -0.140778166
                        -----------------------------------------
Magnitude (a.u.)       :      0.193910846
Magnitude (Debye)      :      0.492882201



--------------------
Rotational spectrum 
--------------------
 
Rotational constants in cm-1:             0.086591             0.016653             0.015076 
Rotational constants in MHz :          2595.927741           499.256963           451.960637 

Dipole components along the rotational axes: 
x,y,z [a.u.] :    -0.132317     0.109637    -0.089852 
x,y,z [Debye]:    -0.336323     0.278674    -0.228387 

 

Dipole moment calculation done in   0.0 sec 

Maximum memory used throughout the entire PROP-calculation: 10.8 MB

--------------------------------
SUGGESTED CITATIONS FOR THIS RUN
--------------------------------

Below you find a list of papers that are relevant to this ORCA run
We neither can nor want to force you to cite these papers, but we appreciate if you do
You receive ORCA, which is the product of decades of hard work by many enthusiastic individuals, for free
The only thing we kindly ask in return is that you cite our papers,
We deeply appreciate it, if you show your appreciation for ORCA by not just citing the generic ORCA reference.

Please note that relegating all ORCA citations to the supporting information does *not* help us.
SI sections are not indexed - citations you put there will not count into any citation statistics
But we need these citations in order to attract the funding resources that allow us to do what we are doing

Therefore, if you are a happy ORCA user, please consider citing a few of the papers listed below in the main body of your paper

In addition to the list printed below, the program has created the file 4.bibtex that contains the list in bibtex format
You can import this file easily into all common literature databanks and citation aid programs


List of essential papers. We consider these as the minimum necessary citations

  1. Neese, F.
     Software update: the ORCA program system, version 6.0
     WIRES Comput. Molec. Sci. 2025 15(1), e70019
     doi.org/10.1002/wcms.7019

List of papers to cite with high priority. The work reported in these papers was absolutely
necessary for this run to complete.
Our perspective: the developers of density functionals and basis sets usually get cited in chemistry papers
Good! But without the algorithms to do something with them, the functionals or basis sets would not do anything.
Hence, in our opinion, the algorithm design and method developments papers are equally worthy of getting cited

  1. Neese, F.
     The SHARK Integral Generation and Digestion System
     J. Comp. Chem. 2022 44(3), 381
     doi.org/10.1002/jcc.26942

List of suggested additional citations. These are papers that are important in the 'surrounding' of 
of this run, or papers that preceded the highly important papers. If you like your results we are grateful for a citation.

  1. Neese, F.
     The ORCA program system
     WIRES Comput. Molec. Sci. 2012 2(1), 73-78
     doi.org/10.1002/wcms.81
  2. Neese, F.
     Software update: the ORCA program system, version 4.0
     WIRES Comput. Molec. Sci. 2018 8(1), 1-6
     doi.org/10.1002/wcms.1327
  3. Neese, F.; Wennmohs, F.; Becker, U.; Riplinger, C.
     The ORCA quantum chemistry program package
     J. Chem. Phys. 2020 152(22), 224108
     doi.org/10.1063/5.0004608
  4. Neese, F.
     Software update: The ORCA program system—Version 5.0
     WIRES Comput. Molec. Sci. 2022 12(1), e1606
     doi.org/10.1002/wcms.1606

List of optional additional citations

  1. Neese, F.
     Approximate second-order SCF convergence for spin unrestricted wavefunctions
     Chem. Phys. Lett. 2000 325(1-3), 93-98
     doi.org/10.1016/s0009-2614(00)00662-x

Timings for individual modules:

Sum of individual times          ...       35.206 sec (=   0.587 min)
Startup calculation              ...        0.488 sec (=   0.008 min)   1.4 %
SCF iterations                   ...       20.424 sec (=   0.340 min)  58.0 %
Property calculations            ...        0.025 sec (=   0.000 min)   0.1 %
MP2 module                       ...       14.269 sec (=   0.238 min)  40.5 %
                             ****ORCA TERMINATED NORMALLY****
TOTAL RUN TIME: 0 days 0 hours 0 minutes 35 seconds 244 msec
