
                                 *****************
                                 * O   R   C   A *
                                 *****************

                                            #,                                       
                                            ###                                      
                                            ####                                     
                                            #####                                    
                                            ######                                   
                                           ########,                                 
                                     ,,################,,,,,                         
                               ,,#################################,,                 
                          ,,##########################################,,             
                       ,#########################################, ''#####,          
                    ,#############################################,,   '####,        
                  ,##################################################,,,,####,       
                ,###########''''           ''''###############################       
              ,#####''   ,,,,##########,,,,          '''####'''          '####       
            ,##' ,,,,###########################,,,                        '##       
           ' ,,###''''                  '''############,,,                           
         ,,##''                                '''############,,,,        ,,,,,,###''
      ,#''                                            '''#######################'''  
     '                                                          ''''####''''         
             ,#######,   #######,   ,#######,      ##                                
            ,#'     '#,  ##    ##  ,#'     '#,    #''#        ,####,    ,#,          
            ##       ##  ##   ,#'  ##            #'  '#       #'       ,# #          
            ##       ##  #######   ##           ,######,      #####,      #          
            '#,     ,#'  ##    ##  '#,     ,#' ,#      #,     #,   #      #          
             '#######'   ##     ##  '#######'  #'      '#     '####' #    #          



                #########################################################
                #                        -***-                          #
                #          Department of theory and spectroscopy        #
                #                                                       #
                #                      Frank Neese                      #
                #                                                       #
                #     Directorship, Architecture, Infrastructure        #
                #                    SHARK, DRIVERS                     #
                #        Core code/Algorithms in most modules           #
                #                                                       #
                #        Max Planck Institute fuer Kohlenforschung      #
                #                Kaiser Wilhelm Platz 1                 #
                #                 D-45470 Muelheim/Ruhr                 #
                #                      Germany                          #
                #                                                       #
                #                  All rights reserved                  #
                #                        -***-                          #
                #########################################################


                         Program Version 6.1.0  -  RELEASE   -
                                (GIT: $679e74b$)
                          ($2025-06-10 18:02:51 +0200$)


 With contributions from (in alphabetic order):
[Max-Planck-Institut fuer Kohlenforschung]                               
  Daniel Aravena         : Magnetic Suceptibility                        
  Michael Atanasov       : Ab Initio Ligand Field Theory (pilot matlab implementation)
  Alexander A. Auer      : GIAO ZORA, VPT2 properties, NMR spectrum      
  Ute Becker             : All parallelization in ORCA, NUMFREQ, NUMCALC 
  Giovanni Bistoni       : ED, misc. LED, open-shell LED, HFLD           
  Dmytro Bykov           : pre 5.0 version of the SCF Hessian            
  Marcos Casanova-Páez   : Triplet and SCS-CIS(D). UHF-(DLPNO)-IP/EA/STEOM-CCSD. UHF-CVS-IP/STEOM-CCSD   
  Vijay G. Chilkuri      : MRCI spin determinant printing, contributions to CSF-ICE 
  Pauline Colinet        : FMM embedding                                 
  Dipayan Datta          : RHF DLPNO-CCSD density                        
  Achintya Kumar Dutta   : EOM-CC, STEOM-CC                              
  Nicolas Foglia         : Exact transition moments, OPA infrastructure, MCD improvements    
  Dmitry Ganyushin       : Spin-Orbit,Spin-Spin,Magnetic field MRCI      
  Miquel Garcia-Rates    : C-PCM and meta-GGA Hessian, CCSD/C-PCM, Gaussian charge scheme 
  Tiago L. C. Gouveia    : GS-ROHF, GS-ROCIS                             
  Yang Guo               : DLPNO-NEVPT2, F12-NEVPT2, CIM, IAO-localization        
  Andreas Hansen         : Spin unrestricted coupled pair/coupled cluster methods 
  Ingolf Harden          : AUTO-CI MPn and infrastructure                
  Benjamin Helmich-Paris : MC-RPA, TRAH-(SCF,CASSCF), AVAS, COSX integrals, SCF dyn. polar., MC-PDFT, srDFT 
  Lee Huntington         : MR-EOM, pCC                                   
  Robert Izsak           : Overlap fitted RIJCOSX, COSX-SCS-MP3, EOM     
  Riya Kayal             : Wick's Theorem for AUTO-CI, AUTO-CI UHF-CCSDT 
  Emily Kempfer          : AUTO-CI RHF CISDT and CCSDT, approximate NEVPT4
  Christian Kollmar      : KDIIS, OOCD, Brueckner-CCSD(T), CCSD density, CASPT2, CASPT2-K, improved NEVPT2 
  Axel Koslowski         : Symmetry handling                             
  Simone Kossmann        : meta-GGA functionals, TD-DFT gradient, OOMP2, (MP2 Hessian; deprecated post 5.0) 
  Lucas Lang             : DCDCAS, Hyperfine gauge corrections, ICE-SOC+SSC
  Marvin Lechner         : AUTO-CI (C++ implementation), FIC-MRCC        
  Spencer Leger          : CASSCF response                               
  Dagmar Lenk            : GEPOL surface, SMD, ORCA-2-JSON               
  Dimitrios Liakos       : Extrapolation schemes; Compound Job, Property file
  Dimitrios Manganas     : Further ROCIS development; embedding schemes. LFT, Crystal Embedding 
  Dimitrios Pantazis     : SARC Basis sets                               
  Anastasios Papadopoulos: AUTO-CI, single reference methods and gradients 
  Taras Petrenko         : pre 6.0 DFT Hessian and TD-DFT gradient,  ECA, NRVS 
  Petra Pikulova         : Analytic Raman intensities                    
  Peter Pinski           : DLPNO-MP2, DLPNO-MP2 Gradient                 
  Shashank Vittal Rao    : ES-AILFT, MagRelax                            
  Christoph Reimann      : Effective Core Potentials                     
  Marius Retegan         : Local ZFS, SOC                                
  Christoph Riplinger    : Optimizer, TS searches, QM/MM, DLPNO-CCSD(T), (RO)-DLPNO pert. Triples 
  Michael Roemelt        : Original ROCIS implementation, recursive CI coupling coefficients
  Masaaki Saitow         : Open-shell DLPNO-CCSD energy and density      
  Barbara Sandhoefer     : DKH picture change effects                    
  Yorick L. A. Schmerwitz: GMF and freeze-and-release deltaSCF, NEB S-IDPP initial path                    
  Kantharuban Sivalingam : CASSCF convergence/infrastructure, NEVPT2, NEVPT3, NEVPT4(SD), FIC-MRCI and CEPA variants
  Bernardo de Souza      : ESD, SOC TD-DFT                               
  Georgi L. Stoychev     : AutoAux, RI-MP2 NMR, DLPNO-MP2 response, X2C  
  Van Anh Tran           : RI-MP2 g-tensors                              
  Willem Van den Heuvel  : Paramagnetic NMR                              
  Zikuan Wang            : NOTCH, Electric field optimization            
  Frank Wennmohs         : Technical directorship and infrastructure     
  Hang Xu                : AUTO-CI-Response properties                   
                                                                         
[FACCTs GmbH]                                                            
  Markus Bursch, Nicolas Foglia, Miquel Garcia-Rates, Ingolf Harden, Hagen Neugebauer, Anastasios Papadopoulos, 
  Christoph Riplinger, Bernardo de Souza, Georgi L. Stoychev                                                    
                                                                 
  APM, various basis sets, CI-OPT, improved COSX, DLPNO-Multilevel,           
  DOCKER, DRACO, updates on ESD, Fragmentator, GOAT, IRC, LR-CPCM, L-BFGS, MBIS, meta-GGA TD-DFT gradient, ML-optimized integration grids, 
  MM, NACMEs, nearIR, NEB, NEB-TS, NL-DFT gradient (VV10), 2- and 3-layer-ONIOM, interface openCOSMO-RS, QMMM,   
  Crystal-QMMM, RESP, rigid body optimization, SF, symmetry and pop. for TD-DFT, various functionals, SOLVATOR                                   
                                                                         
[Other institutions]                                                     
  V. Asgeirsson          : NEB                                           
  Christoph Bannwarth    : sTDA-DFT, sTD-DFT, PBEh-3c, B97-3c, D3        
  Giovanni Bistoni       : ETS/NOCV, ADLD/ADEX, COVALED                  
  Martin Brehm           : Molecular dynamics                            
  Ronald Cardenas        : ETS/NOCV                                      
  Martina Colucci        : COVALED                                       
  Sebastian Ehlert       : rSCAN, r2SCAN, r2SCAN-3c, D4, dhf basis sets  
  Marvin Friede          : D4 for Fr, Ra, Ac-Lr                          
  Lars Goerigk           : TD-DFT with DH, B97 family of functionals     
  Stefan Grimme          : VdW corrections, initial TS optimization, DFT functionals, gCP, sTDA/sTD-DF 
  Waldemar Hujo          : DFT-NL                                        
  H. Jonsson             : NEB                                           
  Holger Kruse           : gCP                                           
  Marcel Mueller         : wB97X-3c, vDZP basis set                      
  Hagen Neugebauer       : wr2SCAN, Native XTB                           
  Gianluca Regni         : ADLD/ADEX                                     
  Tobias Risthaus        : pre 6.0 range-separated hybrid DFT and stability analysis
  Lukas Wittmann         : regularized MP2, r2SCAN double-hybrids, wr2SCAN        
                                                                         
We gratefully acknowledge several colleagues who have allowed us to      
interface, adapt or use parts of their codes:                            
  Ed Valeev, F. Pavosevic, A. Kumar             : LibInt (2-el integral package), F12 methods 
  Garnet Chan, S. Sharma, J. Yang, R. Olivares  : DMRG                   
  Ulf Ekstrom                                   : XCFun DFT Library      
  Mihaly Kallay                                 : mrcc  (arbitrary order and MRCC methods)
  Frank Weinhold                                : gennbo (NPA and NBO analysis)           
  Simon Mueller                                 : openCOSMO-RS                            
  Christopher J. Cramer and Donald G. Truhlar   : smd solvation model                     
  S Lehtola, MJT Oliveira, MAL Marques          : LibXC Library                           
  Liviu Ungur et al                             : ANISO software                          


 Your calculation uses the libint2 library for the computation of 2-el integrals
 For citations please refer to: http://libint.valeyev.net

 Your ORCA version has been built with support for libXC version: 7.0.0
 For citations please refer to: https://libxc.gitlab.io

 This ORCA versions uses:
   CBLAS   interface :  Fast vector & matrix operations
   LAPACKE interface :  Fast linear algebra routines
   SCALAPACK package :  Parallel linear algebra routines
   Shared memory     :  Shared parallel matrices
   BLAS/LAPACK       :  OpenBLAS 0.3.29  USE64BITINT DYNAMIC_ARCH NO_AFFINITY Haswell SINGLE_THREADED
        Core in use  :  Haswell
   Copyright (c) 2011-2014, The OpenBLAS Project


  ***********************************
  * Starting time: Thu Aug 14 01:10:33 2025
  * Host name:     CHEMLAB02
  * Process ID:    1544113
  * Working dir.:  /home/vivek/mm-project/vivek/MP2/l/4
  ***********************************



***************************************
The coordinates will be read from file: /home/vivek/mm-project/vivek/xtb-goat/l/L_CONF/4.xyz
***************************************


================================================================================

----- Orbital basis set information -----
Your calculation utilizes the basis: 6-31G**
   H-He, Li-Ne : W. J. Hehre, R. Ditchfield and J.A. Pople, J. Chem. Phys. 56, 2257 (1972).
                 Note: He and Ne are unpublished basis sets taken from the Gaussian program.
                 Note: Li and B from J. D. Dill and J. A. Pople, J. Chem. Phys. 62, 2921 (1975).
   Na - Ar     : M. M. Francl, W. J. Pietro, W. J. Hehre, J. S. Binkley, M. S. Gordon, 
                 D. J. DeFrees and J. A. Pople, J. Chem. Phys. 77, 3654 (1982).
   K - Zn      : V. A. Rassolov, J. A. Pople, M. A. Ratner, and T. L. Windus, J. Chem. Phys. 109, 1223 (1998).

================================================================================
                                        WARNINGS
                       Please study these warnings very carefully!
================================================================================


WARNING: No MP2 level density has been requested!
         To calculate MP2 level properties use
         %mp2 Density relaxed end
         or
         %mp2 Density unrelaxed end

WARNING: Post HF methods need fully converged wavefunctions
  ===> : Setting SCFConvForced true
         You can overwrite this default with %scf ConvForced false 


================================================================================
                                       INPUT FILE
================================================================================
NAME = 4.inp
|  1> ! MP2 6-31G** 
|  2> 
|  3> * xyzfile 0 1 /home/vivek/mm-project/vivek/xtb-goat/l/L_CONF/4.xyz
|  4> 
|  5>                          ****END OF INPUT****
================================================================================

                       ****************************
                       * Single Point Calculation *
                       ****************************

---------------------------------
CARTESIAN COORDINATES (ANGSTROEM)
---------------------------------
  C     -8.626746    6.211333   -1.917223
  C     -9.445579    6.991104   -0.898693
  H     -7.097448    7.552274   -2.092835
  H     -6.871802    6.431787   -0.927226
  C     -8.761036    4.706648   -1.616878
  O    -10.723442    7.148743   -1.262274
  H     -9.449602    2.058946   -1.677679
  N     -7.220963    6.569601   -1.871348
  C    -10.110331    4.091618   -2.000584
  H     -7.960323    4.204331   -2.162220
  H     -8.580336    4.558303   -0.549063
  C    -10.253020    3.960545   -3.515073
  H     -9.458581    3.335648   -3.917202
  C    -10.249013    2.717890   -1.345693
  H    -11.208393    3.504650   -3.764340
  H    -10.207296    4.931408   -4.000570
  H    -10.914454    4.735721   -1.630858
  H    -10.199879    2.798364   -0.262088
  H    -11.200586    2.263659   -1.611525
  H     -9.010459    6.428851   -2.917595
  H    -11.214408    7.634433   -0.579299
  O     -9.005900    7.431170    0.131752

----------------------------
CARTESIAN COORDINATES (A.U.)
----------------------------
  NO LB      ZA    FRAG     MASS         X           Y           Z
   0 C     6.0000    0    12.011  -16.302187   11.737718   -3.623027
   1 C     6.0000    0    12.011  -17.849558   13.211271   -1.698284
   2 H     1.0000    0     1.008  -13.412233   14.271729   -3.954885
   3 H     1.0000    0     1.008  -12.985825   12.154316   -1.752202
   4 C     6.0000    0    12.011  -16.555958    8.894276   -3.055457
   5 O     8.0000    0    15.999  -20.264370   13.509166   -2.385352
   6 H     1.0000    0     1.008  -17.857160    3.890844   -3.170354
   7 N     7.0000    0    14.007  -13.645643   12.414746   -3.536336
   8 C     6.0000    0    12.011  -19.105756    7.732038   -3.780556
   9 H     1.0000    0     1.008  -15.042831    7.945033   -4.086004
  10 H     1.0000    0     1.008  -16.214485    8.613945   -1.037578
  11 C     6.0000    0    12.011  -19.375400    7.484345   -6.642525
  12 H     1.0000    0     1.008  -17.874127    6.303461   -7.402438
  13 C     6.0000    0    12.011  -19.367827    5.136067   -2.542992
  14 H     1.0000    0     1.008  -21.180793    6.622829   -7.113571
  15 H     1.0000    0     1.008  -19.288993    9.319011   -7.559982
  16 H     1.0000    0     1.008  -20.625328    8.949216   -3.081876
  17 H     1.0000    0     1.008  -19.274977    5.288142   -0.495274
  18 H     1.0000    0     1.008  -21.166040    4.277696   -3.045340
  19 H     1.0000    0     1.008  -17.027299   12.148768   -5.513455
  20 H     1.0000    0     1.008  -21.192159   14.426987   -1.094716
  21 O     8.0000    0    15.999  -17.018685   14.042876    0.248975

--------------------------------
INTERNAL COORDINATES (ANGSTROEM)
--------------------------------
 C      0   0   0     0.000000000000     0.00000000     0.00000000
 C      1   0   0     1.521819321540     0.00000000     0.00000000
 H      1   2   0     2.041497582217    97.12743059     0.00000000
 H      3   1   2     1.632498363129    65.87624507    89.93036696
 C      1   2   3     1.540233299002   108.85321050   144.43483964
 O      2   1   3     1.337899805600   113.10449471   128.32964233
 H      5   1   2     2.736447612610   164.33228323   104.52969951
 N      3   1   2     1.014868620276    41.75942465   124.79803675
 C      5   1   2     1.531694652975   114.84873567    74.02264626
 H      5   1   2     1.091265939634   106.75388612   195.79256426
 H      5   1   2     1.093109254238   107.97798723   311.38118172
 C      9   5   1     1.526832244439   111.42492375    72.43600841
 H     12   9   5     1.087813168374   110.34930167    59.18584230
 C      7   5   1     1.087877982702    65.92410595   287.79899675
 H     12   9   5     1.087525257226   110.20853651   178.90113637
 H     12   9   5     1.086450355169   111.26035020   298.68385030
 H      9   5   1     1.094613970718   109.04113072   312.72959007
 H     14   7   5     1.087699834783   108.39942100   268.43399132
 H     14   7   5     1.087420647644   108.38603404   151.09491891
 H      1   2   3     1.093294514385   108.76044496   264.29333812
 H      6   2   1     0.971285949938   110.52566046   178.86756907
 O      2   1   3     1.203658230789   124.31616992   308.49149407

---------------------------
INTERNAL COORDINATES (A.U.)
---------------------------
 C      0   0   0     0.000000000000     0.00000000     0.00000000
 C      1   0   0     2.875821743020     0.00000000     0.00000000
 H      1   2   0     3.857871333453    97.12743059     0.00000000
 H      3   1   2     3.084974820389    65.87624507    89.93036696
 C      1   2   3     2.910619117459   108.85321050   144.43483964
 O      2   1   3     2.528264227210   113.10449471   128.32964233
 H      5   1   2     5.171136567655   164.33228323   104.52969951
 N      3   1   2     1.917823754232    41.75942465   124.79803675
 C      5   1   2     2.894483414914   114.84873567    74.02264626
 H      5   1   2     2.062193765184   106.75388612   195.79256426
 H      5   1   2     2.065677124964   107.97798723   311.38118172
 C      9   5   1     2.885294794429   111.42492375    72.43600841
 H     12   9   5     2.055668973100   110.34930167    59.18584230
 C      7   5   1     2.055791454429    65.92410595   287.79899675
 H     12   9   5     2.055124899880   110.20853651   178.90113637
 H     12   9   5     2.053093629371   111.26035020   298.68385030
 H      9   5   1     2.068520627021   109.04113072   312.72959007
 H     14   7   5     2.055454803650   108.39942100   268.43399132
 H     14   7   5     2.054927216418   108.38603404   151.09491891
 H      1   2   3     2.066027215905   108.76044496   264.29333812
 H      6   2   1     1.835464443108   110.52566046   178.86756907
 O      2   1   3     2.274584415032   124.31616992   308.49149407

---------------------
BASIS SET INFORMATION
---------------------
There are 4 groups of distinct atoms

 Group   1 Type C   : 10s4p1d contracted to 3s2p1d pattern {631/31/1}
 Group   2 Type H   : 4s1p contracted to 2s1p pattern {31/1}
 Group   3 Type O   : 10s4p1d contracted to 3s2p1d pattern {631/31/1}
 Group   4 Type N   : 10s4p1d contracted to 3s2p1d pattern {631/31/1}

Atom   0C    basis set group =>   1
Atom   1C    basis set group =>   1
Atom   2H    basis set group =>   2
Atom   3H    basis set group =>   2
Atom   4C    basis set group =>   1
Atom   5O    basis set group =>   3
Atom   6H    basis set group =>   2
Atom   7N    basis set group =>   4
Atom   8C    basis set group =>   1
Atom   9H    basis set group =>   2
Atom  10H    basis set group =>   2
Atom  11C    basis set group =>   1
Atom  12H    basis set group =>   2
Atom  13C    basis set group =>   1
Atom  14H    basis set group =>   2
Atom  15H    basis set group =>   2
Atom  16H    basis set group =>   2
Atom  17H    basis set group =>   2
Atom  18H    basis set group =>   2
Atom  19H    basis set group =>   2
Atom  20H    basis set group =>   2
Atom  21O    basis set group =>   3
------------------------------------------------------------------------------
                             ORCA STARTUP CALCULATIONS
------------------------------------------------------------------------------
------------------------------------------------------------------------------
                   ___                                                        
                  /   \      - P O W E R E D   B Y -                         
                 /     \                                                     
                 |  |  |   _    _      __       _____    __    __             
                 |  |  |  | |  | |    /  \     |  _  \  |  |  /  |          
                  \  \/   | |  | |   /    \    | | | |  |  | /  /          
                 / \  \   | |__| |  /  /\  \   | |_| |  |  |/  /          
                |  |  |   |  __  | /  /__\  \  |    /   |      \           
                |  |  |   | |  | | |   __   |  |    \   |  |\   \          
                \     /   | |  | | |  |  |  |  | |\  \  |  | \   \       
                 \___/    |_|  |_| |__|  |__|  |_| \__\ |__|  \__/        
                                                                              
                      - O R C A' S   B I G   F R I E N D -                    
                                      &                                       
                       - I N T E G R A L  F E E D E R -                       
                                                                              
 v1 FN, 2020, v2 2021, v3 2022-2024                                           
------------------------------------------------------------------------------


----------------------
SHARK INTEGRAL PACKAGE
----------------------

Number of atoms                             ...     22
Number of basis functions                   ...    191
Number of shells                            ...     93
Maximum angular momentum                    ...      2
Integral batch strategy                     ... SHARK/LIBINT Hybrid
RI-J (if used) integral strategy            ... SPLIT-RIJ (Revised 2003 algorithm where possible)
Printlevel                                  ...      1
Contraction scheme used                     ... SEGMENTED contraction
Prescreening option                         ... SCHWARTZ
   Thresh                                   ... 1.000e-10
   Tcut                                     ... 1.000e-11
   Tpresel                                  ... 1.000e-11 
Coulomb Range Separation                    ... NOT USED
Exchange Range Separation                   ... NOT USED
Multipole approximations                    ... NOT USED
Finite Nucleus Model                        ... NOT USED
CABS basis                                  ... NOT available
Auxiliary Coulomb fitting basis             ... NOT available
Auxiliary J/K fitting basis                 ... NOT available
Auxiliary Correlation fitting basis         ... NOT available
Auxiliary 'external' fitting basis          ... NOT available

Checking pre-screening integrals            ... done (  0.0 sec) Dimension = 93
   => SHARK Basis and OBASIS are compatible. Storing Pre-screening
Shell pair information
Shell pair cut-off parameter TPreSel        ...   1.0e-11
Total number of shell pairs                 ...      4371
Shell pairs after pre-screening             ...      3874
Total number of primitive shell pairs       ...     20328
Primitive shell pairs kept                  ...     11936
          la=0 lb=0:   1283 shell pairs
          la=1 lb=0:   1448 shell pairs
          la=1 lb=1:    434 shell pairs
          la=2 lb=0:    423 shell pairs
          la=2 lb=1:    244 shell pairs
          la=2 lb=2:     42 shell pairs

Checking whether 4 symmetric matrices of dimension 191 fit in memory
:Max Core in MB      =   4096.00
 MB in use           =      6.36
 MB left             =   4089.64
 MB needed           =      0.56
 Data fit in memory  = YES
Calculating Nuclear repulsion               ... done (  0.0 sec) ENN=    487.646697187855 Eh

Diagonalization of the overlap matrix:
Smallest eigenvalue                        ... 2.995e-03
Time for diagonalization                   ...    0.002 sec
Threshold for overlap eigenvalues          ... 1.000e-07
Number of eigenvalues below threshold      ... 0
Time for construction of square roots      ...    0.001 sec
Total time needed                          ...    0.003 sec

-------------------
DFT GRID GENERATION
-------------------

General Integration Accuracy     IntAcc      ... 4.388
Radial Grid Type                 RadialGrid  ... OptM3 with GC (2021)
Angular Grid (max. ang.)         AngularGrid ... 4 (Lebedev-302)
Angular grid pruning method      GridPruning ... 4 (adaptive)
Weight generation scheme         WeightScheme... mBecke (2022)
Basis function cutoff            BFCut       ... 1.0000e-10
Integration weight cutoff        WCut        ... 1.0000e-14
Partially contracted basis set               ... off
Rotationally invariant grid construction     ... off
Angular grids for H and He will be reduced by one unit

Total number of grid points                  ...    95603
Total number of batches                      ...     1505
Average number of points per batch           ...       63
Average number of grid points per atom       ...     4346
Grids setup in   0.4 sec
Initializing property integral containers    ... done (  0.0 sec)

SHARK setup successfully completed in   0.4 seconds

Maximum memory used throughout the entire STARTUP-calculation: 38.3 MB
-------------------------------------------------------------------------------
                                 ORCA GUESS
                   Start orbitals & Density for SCF / CASSCF
-------------------------------------------------------------------------------

------------
SCF SETTINGS
------------
Hamiltonian:
 Ab initio Hamiltonian  Method          .... Hartree-Fock(GTOs)


General Settings:
 Integral files         IntName         .... 4
 Hartree-Fock type      HFTyp           .... RHF
 Total Charge           Charge          ....    0
 Multiplicity           Mult            ....    1
 Number of Electrons    NEL             ....   72
 Basis Dimension        Dim             ....  191
 Nuclear Repulsion      ENuc            ....    487.6466971879 Eh

Convergence Acceleration:
 AO-DIIS                CNVDIIS         .... on
   Start iteration      DIISMaxIt       ....    12
   Startup error        DIISStart       ....  0.200000
   # of expansion vecs  DIISMaxEq       ....     5
   Bias factor          DIISBfac        ....   1.050
   Max. coefficient     DIISMaxC        ....  10.000
 MO-DIIS                CNVKDIIS        .... off
 Trust-Rad. Augm. Hess. CNVTRAH         .... auto
   Auto Start mean grad. ratio tolernc. ....  1.125000
   Auto Start start iteration           ....    50
   Auto Start num. interpolation iter.  ....    10
   Max. Number of Micro iterations      ....    24
   Max. Number of Macro iterations      .... Maxiter - #DIIS iter
   Number of Davidson start vectors     ....     2
   Converg. threshold    (grad. norm)   ....   5.000e-05
   Grad. Scal. Fac. for Micro threshold ....   0.100
   Minimum threshold for Micro iter.    ....   1.000e-02
   NR start threshold (gradient norm)   ....   1.000e-04
   Initial trust radius                 ....   0.400
   Minimum AH scaling param. (alpha)    ....   1.000
   Maximum AH scaling param. (alpha)    .... 1000.000
   Quad. conv. algorithm                .... NR
   White noise on init. David. guess    .... on
   Maximum white noise                  ....   0.010
   Pseudo random numbers                .... off
   Inactive MOs                         .... canonical
   Orbital update algorithm             .... Taylor
   Preconditioner                       .... Diag
   Full preconditioner red. dimension   ....   250
 SOSCF                 CNVSOSCF           .... on
   Start iteration     SOSCFMaxIt         ....   150
   Startup grad/error  SOSCFStart         ....  0.003300
   Hessian update      SOSCFHessUp        .... L-BFGS
   Autom. constraints  SOSCFAutoConstrain .... off
 Level Shifting         CNVShift        .... on
   Level shift para.    LevelShift      ....    0.2500
   Turn off err/grad.   ShiftErr        ....    0.0010
 Zerner damping         CNVZerner       .... off
 Static damping         CNVDamp         .... on
   Fraction old density DampFac         ....    0.7000
   Max. Damping (<1)    DampMax         ....    0.9800
   Min. Damping (>=0)   DampMin         ....    0.0000
   Turn off err/grad.   DampErr         ....    0.1000

SCF Procedure:
 Maximum # iterations   MaxIter         ....   125
 SCF integral mode      SCFMode         .... Direct
   Integral package                     .... SHARK and LIBINT hybrid scheme
 Reset frequency        DirectResetFreq ....    20
 Integral Threshold     Thresh          ....  1.000e-10 Eh
 Primitive CutOff       TCut            ....  1.000e-11 Eh

Convergence Tolerance:
 Convergence Check Mode ConvCheckMode   .... Total+1el-Energy
 Convergence forced     ConvForced      .... 1
 Energy Change          TolE            ....  1.000e-06 Eh
 1-El. energy change                    ....  1.000e-03 Eh
 Orbital Gradient       TolG            ....  5.000e-05
 Orbital Rotation angle TolX            ....  5.000e-05
 DIIS Error             TolErr          ....  1.000e-06

------------------------------
INITIAL GUESS: MODEL POTENTIAL
------------------------------
Loading Hartree-Fock densities                     ... done
Calculating cut-offs                               ... done
Initializing the effective Hamiltonian             ... done
Setting up the integral package (SHARK)            ... done
Starting the Coulomb interaction                   ... done (   0.1 sec)
Making the grid                                    ... done (   0.1 sec)
Mapping shells                                     ... done
Starting the XC term evaluation                    ... done (   0.0 sec)
Transforming the Hamiltonian                       ... done (   0.0 sec)
Diagonalizing the Hamiltonian                      ... done (   0.0 sec)
Back transforming the eigenvectors                 ... done (   0.0 sec)
Now organizing SCF variables                       ... done
                      ------------------
                      INITIAL GUESS DONE (   0.2 sec)
                      ------------------
             **** ENERGY FILE WAS UPDATED (4.en.tmp) ****
Finished Guess after   0.2 sec
Maximum memory used throughout the entire GUESS-calculation: 11.5 MB

-------------------------------------------------------------------------------------------
                                      ORCA LEAN-SCF
                              memory conserving SCF solver
-------------------------------------------------------------------------------------------

----------------------------------------D-I-I-S--------------------------------------------
Iteration    Energy (Eh)           Delta-E    RMSDP     MaxDP     DIISErr   Damp  Time(sec)
-------------------------------------------------------------------------------------------
               ***  Starting incremental Fock matrix formation  ***
    1    -438.5394223966439426     0.00e+00  2.47e-03  6.35e-02  2.51e-01  0.700   1.9
    2    -438.7031155883220777    -1.64e-01  1.88e-03  4.58e-02  1.56e-01  0.700   1.7
                               ***Turning on AO-DIIS***
    3    -438.7992744091890813    -9.62e-02  1.02e-03  2.28e-02  8.78e-02  0.700   1.7
    4    -438.8596129979363809    -6.03e-02  2.29e-03  4.78e-02  6.05e-02  0.000   1.7
    5    -438.9926750917769027    -1.33e-01  2.71e-04  5.96e-03  5.53e-03  0.000   1.8
    6    -438.9931620113287067    -4.87e-04  1.31e-04  3.36e-03  3.57e-03  0.000   1.7
                              *** Initializing SOSCF ***
---------------------------------------S-O-S-C-F--------------------------------------
Iteration    Energy (Eh)           Delta-E    RMSDP     MaxDP     MaxGrad    Time(sec)
--------------------------------------------------------------------------------------
    7    -438.9932693521100759    -1.07e-04  7.21e-05  2.09e-03  1.96e-03     1.6
               *** Restarting incremental Fock matrix formation ***
    8    -438.9933014107044187    -3.21e-05  3.62e-05  8.98e-04  5.67e-04     1.9
    9    -438.9933089504282293    -7.54e-06  3.81e-05  1.11e-03  3.99e-04     1.4
   10    -438.9933117224291550    -2.77e-06  7.09e-06  2.79e-04  1.02e-04     1.4
   11    -438.9933119286283159    -2.06e-07  2.57e-06  8.36e-05  4.45e-05     1.3
                 **** Energy Check signals convergence ****

               *****************************************************
               *                     SUCCESS                       *
               *           SCF CONVERGED AFTER  11 CYCLES          *
               *****************************************************

             **** ENERGY FILE WAS UPDATED (4.en.tmp) ****

----------------
TOTAL SCF ENERGY
----------------

Total Energy       :       -438.99331196869292 Eh          -11945.61532 eV

Components:
Nuclear Repulsion  :        487.64669718785507 Eh           13269.54124 eV
Electronic Energy  :       -926.64000915654799 Eh          -25215.15656 eV
One Electron Energy:      -1565.81869185365736 Eh          -42608.09276 eV
Two Electron Energy:        639.17868269710937 Eh           17392.93620 eV

Virial components:
Potential Energy   :       -877.61739809539210 Eh          -23881.18350 eV
Kinetic Energy     :        438.62408612669918 Eh           11935.56818 eV
Virial Ratio       :          2.00084178195788

---------------
SCF CONVERGENCE
---------------

  Last Energy change         ...    2.0620e-07  Tolerance :   1.0000e-06
  Last MAX-Density change    ...    8.3597e-05  Tolerance :   1.0000e-05
  Last RMS-Density change    ...    2.5658e-06  Tolerance :   1.0000e-06
  Last DIIS Error            ...    1.9577e-03  Tolerance :   1.0000e-06
  Last Orbital Gradient      ...    4.4513e-05  Tolerance :   5.0000e-05
  Last Orbital Rotation      ...    3.0982e-05  Tolerance :   5.0000e-05


----------------
ORBITAL ENERGIES
----------------

  NO   OCC          E(Eh)            E(eV) 
   0   2.0000     -20.620025      -561.0994 
   1   2.0000     -20.553707      -559.2948 
   2   2.0000     -15.546611      -423.0448 
   3   2.0000     -11.382413      -309.7312 
   4   2.0000     -11.271279      -306.7071 
   5   2.0000     -11.226037      -305.4760 
   6   2.0000     -11.224863      -305.4441 
   7   2.0000     -11.210907      -305.0643 
   8   2.0000     -11.210759      -305.0603 
   9   2.0000      -1.469851       -39.9967 
  10   2.0000      -1.362709       -37.0812 
  11   2.0000      -1.196472       -32.5577 
  12   2.0000      -1.092942       -29.7405 
  13   2.0000      -0.993452       -27.0332 
  14   2.0000      -0.932350       -25.3705 
  15   2.0000      -0.903739       -24.5920 
  16   2.0000      -0.808270       -21.9942 
  17   2.0000      -0.769448       -20.9377 
  18   2.0000      -0.712609       -19.3911 
  19   2.0000      -0.698055       -18.9950 
  20   2.0000      -0.666324       -18.1316 
  21   2.0000      -0.638080       -17.3630 
  22   2.0000      -0.617732       -16.8093 
  23   2.0000      -0.605801       -16.4847 
  24   2.0000      -0.598171       -16.2771 
  25   2.0000      -0.580326       -15.7915 
  26   2.0000      -0.545101       -14.8329 
  27   2.0000      -0.538945       -14.6654 
  28   2.0000      -0.528862       -14.3911 
  29   2.0000      -0.506564       -13.7843 
  30   2.0000      -0.488599       -13.2955 
  31   2.0000      -0.464624       -12.6431 
  32   2.0000      -0.462013       -12.5720 
  33   2.0000      -0.454851       -12.3771 
  34   2.0000      -0.448788       -12.2121 
  35   2.0000      -0.399385       -10.8678 
  36   0.0000       0.180507         4.9118 
  37   0.0000       0.218533         5.9466 
  38   0.0000       0.233443         6.3523 
  39   0.0000       0.243595         6.6286 
  40   0.0000       0.259432         7.0595 
  41   0.0000       0.282577         7.6893 
  42   0.0000       0.291975         7.9450 
  43   0.0000       0.301103         8.1934 
  44   0.0000       0.326585         8.8868 
  45   0.0000       0.332103         9.0370 
  46   0.0000       0.334948         9.1144 
*Only the first 10 virtual orbitals were printed.

                    ********************************
                    * MULLIKEN POPULATION ANALYSIS *
                    ********************************

-----------------------
MULLIKEN ATOMIC CHARGES
-----------------------
   0 C :   -0.031989
   1 C :    0.789116
   2 H :    0.271174
   3 H :    0.282545
   4 C :   -0.219931
   5 O :   -0.635220
   6 H :    0.109053
   7 N :   -0.678741
   8 C :   -0.151365
   9 H :    0.147317
  10 H :    0.123267
  11 C :   -0.315405
  12 H :    0.110358
  13 C :   -0.318516
  14 H :    0.113655
  15 H :    0.109777
  16 H :    0.134765
  17 H :    0.111293
  18 H :    0.111826
  19 H :    0.156597
  20 H :    0.370930
  21 O :   -0.590505
Sum of atomic charges:    0.0000000

--------------------------------
MULLIKEN REDUCED ORBITAL CHARGES
--------------------------------
  0 C s       :     3.200620  s :     3.200620
      pz      :     0.999108  p :     2.761209
      px      :     0.796456
      py      :     0.965646
      dz2     :     0.012144  d :     0.070160
      dxz     :     0.017035
      dyz     :     0.009265
      dx2y2   :     0.017662
      dxy     :     0.014054

  1 C s       :     2.952907  s :     2.952907
      pz      :     0.770149  p :     2.111979
      px      :     0.653512
      py      :     0.688317
      dz2     :     0.033901  d :     0.145999
      dxz     :     0.040940
      dyz     :     0.023211
      dx2y2   :     0.026230
      dxy     :     0.021717

  2 H s       :     0.702793  s :     0.702793
      pz      :     0.006375  p :     0.026033
      px      :     0.004724
      py      :     0.014934

  3 H s       :     0.691355  s :     0.691355
      pz      :     0.014680  p :     0.026100
      px      :     0.006178
      py      :     0.005242

  4 C s       :     3.242205  s :     3.242205
      pz      :     1.063528  p :     2.929784
      px      :     0.986964
      py      :     0.879292
      dz2     :     0.013620  d :     0.047941
      dxz     :     0.007499
      dyz     :     0.005244
      dx2y2   :     0.012368
      dxy     :     0.009211

  5 O s       :     3.837504  s :     3.837504
      pz      :     1.672848  p :     4.772417
      px      :     1.355381
      py      :     1.744188
      dz2     :     0.004072  d :     0.025299
      dxz     :     0.007939
      dyz     :     0.004740
      dx2y2   :     0.005184
      dxy     :     0.003363

  6 H s       :     0.878346  s :     0.878346
      pz      :     0.002467  p :     0.012601
      px      :     0.005662
      py      :     0.004472

  7 N s       :     3.604968  s :     3.604968
      pz      :     1.440957  p :     4.038990
      px      :     1.246262
      py      :     1.351772
      dz2     :     0.013362  d :     0.034783
      dxz     :     0.003826
      dyz     :     0.000260
      dx2y2   :     0.014968
      dxy     :     0.002366

  8 C s       :     3.236853  s :     3.236853
      pz      :     0.928917  p :     2.858914
      px      :     0.968704
      py      :     0.961293
      dz2     :     0.015194  d :     0.055598
      dxz     :     0.007738
      dyz     :     0.009872
      dx2y2   :     0.009590
      dxy     :     0.013204

  9 H s       :     0.840182  s :     0.840182
      pz      :     0.003554  p :     0.012501
      px      :     0.005899
      py      :     0.003048

 10 H s       :     0.864285  s :     0.864285
      pz      :     0.008699  p :     0.012448
      px      :     0.001973
      py      :     0.001776

 11 C s       :     3.246140  s :     3.246140
      pz      :     0.930778  p :     3.027022
      px      :     1.048808
      py      :     1.047437
      dz2     :     0.011451  d :     0.042243
      dxz     :     0.005711
      dyz     :     0.008803
      dx2y2   :     0.007316
      dxy     :     0.008962

 12 H s       :     0.877057  s :     0.877057
      pz      :     0.002780  p :     0.012586
      px      :     0.005616
      py      :     0.004189

 13 C s       :     3.248200  s :     3.248200
      pz      :     1.026136  p :     3.028003
      px      :     1.048745
      py      :     0.953122
      dz2     :     0.014073  d :     0.042313
      dxz     :     0.002958
      dyz     :     0.006208
      dx2y2   :     0.007161
      dxy     :     0.011914

 14 H s       :     0.873675  s :     0.873675
      pz      :     0.002195  p :     0.012669
      px      :     0.007340
      py      :     0.003134

 15 H s       :     0.877496  s :     0.877496
      pz      :     0.003323  p :     0.012728
      px      :     0.001915
      py      :     0.007490

 16 H s       :     0.852589  s :     0.852589
      pz      :     0.002429  p :     0.012646
      px      :     0.005727
      py      :     0.004491

 17 H s       :     0.876066  s :     0.876066
      pz      :     0.008944  p :     0.012641
      px      :     0.001871
      py      :     0.001827

 18 H s       :     0.875524  s :     0.875524
      pz      :     0.002238  p :     0.012650
      px      :     0.007301
      py      :     0.003111

 19 H s       :     0.831224  s :     0.831224
      pz      :     0.008229  p :     0.012179
      px      :     0.002068
      py      :     0.001882

 20 H s       :     0.587624  s :     0.587624
      pz      :     0.016654  p :     0.041446
      px      :     0.011556
      py      :     0.013236

 21 O s       :     3.873910  s :     3.873910
      pz      :     1.412512  p :     4.683966
      px      :     1.761187
      py      :     1.510266
      dz2     :     0.011465  d :     0.032629
      dxz     :     0.007116
      dyz     :     0.008544
      dx2y2   :     0.002278
      dxy     :     0.003225



                     *******************************
                     * LOEWDIN POPULATION ANALYSIS *
                     *******************************

----------------------
LOEWDIN ATOMIC CHARGES
----------------------
   0 C :   -0.025131
   1 C :    0.230048
   2 H :    0.128740
   3 H :    0.135060
   4 C :   -0.101288
   5 O :   -0.208337
   6 H :    0.061761
   7 N :   -0.274718
   8 C :   -0.073279
   9 H :    0.076032
  10 H :    0.064730
  11 C :   -0.177695
  12 H :    0.062189
  13 C :   -0.177104
  14 H :    0.064311
  15 H :    0.061114
  16 H :    0.064502
  17 H :    0.061980
  18 H :    0.062919
  19 H :    0.077394
  20 H :    0.200654
  21 O :   -0.313882

-------------------------------
LOEWDIN REDUCED ORBITAL CHARGES
-------------------------------
  0 C s       :     2.868725  s :     2.868725
      pz      :     1.040737  p :     3.016286
      px      :     0.939833
      py      :     1.035716
      dz2     :     0.022796  d :     0.140119
      dxz     :     0.034063
      dyz     :     0.018172
      dx2y2   :     0.036282
      dxy     :     0.028806

  1 C s       :     2.849861  s :     2.849861
      pz      :     0.967425  p :     2.603830
      px      :     0.878207
      py      :     0.758199
      dz2     :     0.070400  d :     0.316260
      dxz     :     0.094700
      dyz     :     0.047399
      dx2y2   :     0.058938
      dxy     :     0.044824

  2 H s       :     0.790033  s :     0.790033
      pz      :     0.019338  p :     0.081228
      px      :     0.015390
      py      :     0.046500

  3 H s       :     0.782996  s :     0.782996
      pz      :     0.045823  p :     0.081943
      px      :     0.019804
      py      :     0.016316

  4 C s       :     2.895286  s :     2.895286
      pz      :     1.072992  p :     3.115163
      px      :     1.054227
      py      :     0.987943
      dz2     :     0.024085  d :     0.090838
      dxz     :     0.013320
      dyz     :     0.010219
      dx2y2   :     0.024742
      dxy     :     0.018472

  5 O s       :     3.459468  s :     3.459468
      pz      :     1.641178  p :     4.700701
      px      :     1.363028
      py      :     1.696495
      dz2     :     0.006554  d :     0.048168
      dxz     :     0.015495
      dyz     :     0.006053
      dx2y2   :     0.011900
      dxy     :     0.008165

  6 H s       :     0.898516  s :     0.898516
      pz      :     0.008421  p :     0.039723
      px      :     0.017153
      py      :     0.014148

  7 N s       :     3.189133  s :     3.189133
      pz      :     1.409182  p :     4.024125
      px      :     1.280456
      py      :     1.334488
      dz2     :     0.019029  d :     0.061459
      dxz     :     0.009071
      dyz     :     0.001039
      dx2y2   :     0.025157
      dxy     :     0.007164

  8 C s       :     2.872423  s :     2.872423
      pz      :     1.024451  p :     3.091252
      px      :     1.035542
      py      :     1.031258
      dz2     :     0.030347  d :     0.109604
      dxz     :     0.015197
      dyz     :     0.019692
      dx2y2   :     0.019520
      dxy     :     0.024847

  9 H s       :     0.883336  s :     0.883336
      pz      :     0.011610  p :     0.040632
      px      :     0.018506
      py      :     0.010516

 10 H s       :     0.895333  s :     0.895333
      pz      :     0.025545  p :     0.039937
      px      :     0.007574
      py      :     0.006819

 11 C s       :     2.907043  s :     2.907043
      pz      :     1.031720  p :     3.195299
      px      :     1.082907
      py      :     1.080672
      dz2     :     0.021965  d :     0.075353
      dxz     :     0.011082
      dyz     :     0.016366
      dx2y2   :     0.011624
      dxy     :     0.014316

 12 H s       :     0.898071  s :     0.898071
      pz      :     0.009470  p :     0.039740
      px      :     0.017043
      py      :     0.013227

 13 C s       :     2.908546  s :     2.908546
      pz      :     1.069813  p :     3.193122
      px      :     1.082143
      py      :     1.041166
      dz2     :     0.024084  d :     0.075436
      dxz     :     0.004649
      dyz     :     0.012164
      dx2y2   :     0.013405
      dxy     :     0.021135

 14 H s       :     0.896033  s :     0.896033
      pz      :     0.007702  p :     0.039656
      px      :     0.021775
      py      :     0.010179

 15 H s       :     0.898896  s :     0.898896
      pz      :     0.010795  p :     0.039990
      px      :     0.006915
      py      :     0.022279

 16 H s       :     0.895160  s :     0.895160
      pz      :     0.008815  p :     0.040338
      px      :     0.017535
      py      :     0.013988

 17 H s       :     0.898459  s :     0.898459
      pz      :     0.026194  p :     0.039561
      px      :     0.006757
      py      :     0.006610

 18 H s       :     0.897472  s :     0.897472
      pz      :     0.007741  p :     0.039609
      px      :     0.021643
      py      :     0.010225

 19 H s       :     0.882463  s :     0.882463
      pz      :     0.025223  p :     0.040143
      px      :     0.007277
      py      :     0.007643

 20 H s       :     0.679193  s :     0.679193
      pz      :     0.048975  p :     0.120153
      px      :     0.032303
      py      :     0.038875

 21 O s       :     3.548046  s :     3.548046
      pz      :     1.478164  p :     4.708694
      px      :     1.734415
      py      :     1.496115
      dz2     :     0.019060  d :     0.057142
      dxz     :     0.014508
      dyz     :     0.015031
      dx2y2   :     0.003954
      dxy     :     0.004589



                      *****************************
                      * MAYER POPULATION ANALYSIS *
                      *****************************

  NA   - Mulliken gross atomic population
  ZA   - Total nuclear charge
  QA   - Mulliken gross atomic charge
  VA   - Mayer's total valence
  BVA  - Mayer's bonded valence
  FA   - Mayer's free valence

  ATOM       NA         ZA         QA         VA         BVA        FA
  0 C      6.0320     6.0000    -0.0320     3.7543     3.7543    -0.0000
  1 C      5.2109     6.0000     0.7891     3.6666     3.6666     0.0000
  2 H      0.7288     1.0000     0.2712     0.9060     0.9060     0.0000
  3 H      0.7175     1.0000     0.2825     0.9059     0.9059    -0.0000
  4 C      6.2199     6.0000    -0.2199     3.7505     3.7505     0.0000
  5 O      8.6352     8.0000    -0.6352     1.8257     1.8257    -0.0000
  6 H      0.8909     1.0000     0.1091     0.9528     0.9528     0.0000
  7 N      7.6787     7.0000    -0.6787     2.7771     2.7771     0.0000
  8 C      6.1514     6.0000    -0.1514     3.7874     3.7874     0.0000
  9 H      0.8527     1.0000     0.1473     0.9519     0.9519    -0.0000
 10 H      0.8767     1.0000     0.1233     0.9533     0.9533     0.0000
 11 C      6.3154     6.0000    -0.3154     3.8391     3.8391    -0.0000
 12 H      0.8896     1.0000     0.1104     0.9533     0.9533     0.0000
 13 C      6.3185     6.0000    -0.3185     3.8434     3.8434    -0.0000
 14 H      0.8863     1.0000     0.1137     0.9541     0.9541    -0.0000
 15 H      0.8902     1.0000     0.1098     0.9535     0.9535     0.0000
 16 H      0.8652     1.0000     0.1348     0.9472     0.9472     0.0000
 17 H      0.8887     1.0000     0.1113     0.9535     0.9535    -0.0000
 18 H      0.8882     1.0000     0.1118     0.9541     0.9541     0.0000
 19 H      0.8434     1.0000     0.1566     0.9413     0.9413    -0.0000
 20 H      0.6291     1.0000     0.3709     0.8730     0.8730     0.0000
 21 O      8.5905     8.0000    -0.5905     1.8938     1.8938     0.0000

  Mayer bond orders larger than 0.100000
B(  0-C ,  1-C ) :   0.9026 B(  0-C ,  4-C ) :   0.9605 B(  0-C ,  7-N ) :   0.9989 
B(  0-C , 19-H ) :   0.9576 B(  1-C ,  5-O ) :   0.9641 B(  1-C , 21-O ) :   1.8280 
B(  2-H ,  7-N ) :   0.9107 B(  3-H ,  7-N ) :   0.8978 B(  4-C ,  8-C ) :   0.9611 
B(  4-C ,  9-H ) :   0.9630 B(  4-C , 10-H ) :   0.9683 B(  5-O , 20-H ) :   0.8402 
B(  6-H , 13-C ) :   0.9722 B(  8-C , 11-C ) :   0.9747 B(  8-C , 13-C ) :   0.9790 
B(  8-C , 16-H ) :   0.9642 B( 11-C , 12-H ) :   0.9717 B( 11-C , 14-H ) :   0.9768 
B( 11-C , 15-H ) :   0.9761 B( 13-C , 17-H ) :   0.9766 B( 13-C , 18-H ) :   0.9769 


-------
TIMINGS
-------

Total SCF time: 0 days 0 hours 0 min 19 sec 

Total time                  ....      19.329 sec
Sum of individual times     ....      18.168 sec  ( 94.0%)

SCF preparation             ....       0.016 sec  (  0.1%)
Fock matrix formation       ....      18.096 sec  ( 93.6%)
  Startup                   ....       0.001 sec  (  0.0% of F)
  Coulomb+Exchange Fock     ....      19.246 sec  (106.4% of F)
Diagonalization             ....       0.000 sec  (  0.0%)
Density matrix formation    ....       0.004 sec  (  0.0%)
Total Energy calculation    ....       0.001 sec  (  0.0%)
Population analysis         ....       0.003 sec  (  0.0%)
Orbital Transformation      ....       0.006 sec  (  0.0%)
Orbital Orthonormalization  ....       0.000 sec  (  0.0%)
DIIS solution               ....       0.031 sec  (  0.2%)
SOSCF solution              ....       0.011 sec  (  0.1%)
Finished LeanSCF after  19.3 sec

Maximum memory used throughout the entire LEANSCF-calculation: 15.1 MB

------------------------------------------------------------------------------
                                ORCA  MP2 
------------------------------------------------------------------------------

Freezing NCore=18 chemical core electrons

----------
MP2 ENERGY (disk based algorithm)
----------

Dimension of the basis                      ...  191
Memory devoted to MP2                       ... 4096 MB   
Data format for buffers                     ... DOUBLE
Compression type for matrix containers      ... UNCOMPRESSED

-------------------------
SHARK HALF TRANSFORMATION (Exchange order)
-------------------------

Number of basis functions                   ...    191
Number of operators                         ...      1
   Operator  0:    9-  35 (p-index in (p*|q*))
   Operator  0:    9-  35 (q-index in (p*|q*)
Integral generator used                     ... SHARK
Contraction scheme used                     ... SEGMENTED CONTRACTION
MaxCore in resort                           ...   4096 MB

Half transformed integrals for op=   0      ... 4.SHARK_MNPQ0.tmp
Resorted half transformed integrals         ... 4.KAO_aa.tmp

Half trafo (segmented) done. Total time = 11.7 sec. integrals= 10.6 sec trafo=  1.1 sec

----------------------
SHARK INTEGRAL SORTING (Exchange)
----------------------

Input container                             ... 4.SHARK_MNPQ0.tmp
Output container                            ... 4.KAO_aa.tmp
Range of AO-indices                         ...    0 -  190
Range of bra indices i                      ...    9 -   35
Range of ket indices j                      ...    9 -   35
Symmetric i,j range                         ... YES
Number of (i,j) pairs generated             ...  378
Max Core memory in MB                       ...   4096

Available core memory in MB                 ...   4086.21
MB needed for one item                      ...      0.28
Fixed MB needed                             ...      0.00
Number of items                             ...       378
Number of batches                           ...         1
Items treated per batch                     ...       378
Batch   0                                   ...      0-   377 (   378)
   => Closing output file and leaving
done (  0.1 sec)

SHARK half integral transformation done. Total time = 11.9 sec.


Finished integral transformation - now doing MP2 part

OPERATOR COMBINATION   0   0: ij=(  9.. 35,  9.. 35)
  Internal MO  11
  Internal MO  14
  Internal MO  17
  Internal MO  20
  Internal MO  23
  Internal MO  26
  Internal MO  29
  Internal MO  32
  Internal MO  35
-----------------------------------------------
 MP2 CORRELATION ENERGY   :     -1.368802081 Eh
-----------------------------------------------


-------
TIMINGS
-------
Total time                :   12.008 sec
Integral trafo            :   11.855 sec ( 98.7%)
K(i,j)                    :    0.128 sec (  1.1%)
T(i,j)                    :    0.004 sec (  0.0%)

---------------------------------------
MP2 TOTAL ENERGY:     -440.362114049 Eh
---------------------------------------

Maximum memory used throughout the entire MP2-calculation: 116.0 MB

-------------------------   --------------------
FINAL SINGLE POINT ENERGY      -440.362114049244
-------------------------   --------------------


------------------------------------------------------------------------------
                              ORCA PROPERTY CALCULATIONS
------------------------------------------------------------------------------

GBWName                                 ... 4.gbw
Number of atoms                         ...     22
Number of basis functions               ...    191
Max core memory                         ...   4096 MB

Electric properties:
Dipole moment                           ... YES
Quadrupole moment                       ...  NO
Static polarizability (Dipole/Dipole)   ...  NO
Static polarizability (Dipole/Quad.)    ...  NO
Static polarizability (Quad./Quad.)     ...  NO
Static polarizability (Velocity)        ...  NO
Static hyperpolarizability              ...  NO

Atomic electric properties:
Dipole moment                           ...  NO
Quadrupole moment                       ...  NO
Static polarizability                   ...  NO

Choice of electric origin               ... Center of mass
Position of electric origin             ...   -17.735909    10.526159    -2.971331

General magnetic properties:
Magnetizability                         ...  NO

EPR properties:
g-Tensor (aka g-matrix)                 ...  NO
Zero-Field splitting spin-orbit         ...  NO
Zero-field splitting spin-spin          ...  NO
Hyperfine couplings                     ...  NO (   0 nuclei)
Quadrupole couplings                    ...  NO (   0 nuclei)
Contact density                         ...  NO (   0 nuclei)

NMR properties:
Chemical shifts                         ...  NO (   0 nuclei)
Spin-rotation constants                 ...  NO (   0 nuclei)
Spin-spin couplings                     ...  NO (   0 nuclei,    0 pairs)

Choice of magnetic origin               ... GIAO
Position of magnetic origin             ...     0.000000     0.000000     0.000000

Properties with geometric perturbations:
SCF Hessian                             ...  NO
IR spectrum                             ...  NO
VCD spectrum                            ...  NO
X-ray spectroscopy properties:
SCF XES/XAS/RIXS spectra                ...  NO

SCF SOC stabilization energy            ...  NO
Diagonal Born-Oppenheimer correction    ...  NO

-------------
DIPOLE MOMENT
-------------

Method             : SCF
Type of density    : Electron Density
Multiplicity       :   1
Irrep              :   0
Energy             :  -438.9933119686929217 Eh
Basis              : AO
                                X                 Y                 Z
Electronic contribution:      0.664677034      11.204645889       5.074673786
Nuclear contribution   :     -1.280860645     -11.177604712      -5.274252789
                        -----------------------------------------
Total Dipole Moment    :     -0.616183611       0.027041177      -0.199579003
                        -----------------------------------------
Magnitude (a.u.)       :      0.648263254
Magnitude (Debye)      :      1.647754243



--------------------
Rotational spectrum 
--------------------
 
Rotational constants in cm-1:             0.076727             0.033400             0.029821 
Rotational constants in MHz :          2300.209499          1001.297356           894.003057 

Dipole components along the rotational axes: 
x,y,z [a.u.] :    -0.223900    -0.507658    -0.335257 
x,y,z [Debye]:    -0.569109    -1.290365    -0.852155 

 

Dipole moment calculation done in   0.0 sec 

Maximum memory used throughout the entire PROP-calculation: 10.0 MB

--------------------------------
SUGGESTED CITATIONS FOR THIS RUN
--------------------------------

Below you find a list of papers that are relevant to this ORCA run
We neither can nor want to force you to cite these papers, but we appreciate if you do
You receive ORCA, which is the product of decades of hard work by many enthusiastic individuals, for free
The only thing we kindly ask in return is that you cite our papers,
We deeply appreciate it, if you show your appreciation for ORCA by not just citing the generic ORCA reference.

Please note that relegating all ORCA citations to the supporting information does *not* help us.
SI sections are not indexed - citations you put there will not count into any citation statistics
But we need these citations in order to attract the funding resources that allow us to do what we are doing

Therefore, if you are a happy ORCA user, please consider citing a few of the papers listed below in the main body of your paper

In addition to the list printed below, the program has created the file 4.bibtex that contains the list in bibtex format
You can import this file easily into all common literature databanks and citation aid programs


List of essential papers. We consider these as the minimum necessary citations

  1. Neese, F.
     Software update: the ORCA program system, version 6.0
     WIRES Comput. Molec. Sci. 2025 15(1), e70019
     doi.org/10.1002/wcms.7019

List of papers to cite with high priority. The work reported in these papers was absolutely
necessary for this run to complete.
Our perspective: the developers of density functionals and basis sets usually get cited in chemistry papers
Good! But without the algorithms to do something with them, the functionals or basis sets would not do anything.
Hence, in our opinion, the algorithm design and method developments papers are equally worthy of getting cited

  1. Neese, F.
     The SHARK Integral Generation and Digestion System
     J. Comp. Chem. 2022 44(3), 381
     doi.org/10.1002/jcc.26942

List of suggested additional citations. These are papers that are important in the 'surrounding' of 
of this run, or papers that preceded the highly important papers. If you like your results we are grateful for a citation.

  1. Neese, F.
     The ORCA program system
     WIRES Comput. Molec. Sci. 2012 2(1), 73-78
     doi.org/10.1002/wcms.81
  2. Neese, F.
     Software update: the ORCA program system, version 4.0
     WIRES Comput. Molec. Sci. 2018 8(1), 1-6
     doi.org/10.1002/wcms.1327
  3. Neese, F.; Wennmohs, F.; Becker, U.; Riplinger, C.
     The ORCA quantum chemistry program package
     J. Chem. Phys. 2020 152(22), 224108
     doi.org/10.1063/5.0004608
  4. Neese, F.
     Software update: The ORCA program system—Version 5.0
     WIRES Comput. Molec. Sci. 2022 12(1), e1606
     doi.org/10.1002/wcms.1606

List of optional additional citations

  1. Neese, F.
     Approximate second-order SCF convergence for spin unrestricted wavefunctions
     Chem. Phys. Lett. 2000 325(1-3), 93-98
     doi.org/10.1016/s0009-2614(00)00662-x

Timings for individual modules:

Sum of individual times          ...       32.092 sec (=   0.535 min)
Startup calculation              ...        0.445 sec (=   0.007 min)   1.4 %
SCF iterations                   ...       19.589 sec (=   0.326 min)  61.0 %
Property calculations            ...        0.025 sec (=   0.000 min)   0.1 %
MP2 module                       ...       12.033 sec (=   0.201 min)  37.5 %
                             ****ORCA TERMINATED NORMALLY****
TOTAL RUN TIME: 0 days 0 hours 0 minutes 32 seconds 129 msec
