
                                 *****************
                                 * O   R   C   A *
                                 *****************

                                            #,                                       
                                            ###                                      
                                            ####                                     
                                            #####                                    
                                            ######                                   
                                           ########,                                 
                                     ,,################,,,,,                         
                               ,,#################################,,                 
                          ,,##########################################,,             
                       ,#########################################, ''#####,          
                    ,#############################################,,   '####,        
                  ,##################################################,,,,####,       
                ,###########''''           ''''###############################       
              ,#####''   ,,,,##########,,,,          '''####'''          '####       
            ,##' ,,,,###########################,,,                        '##       
           ' ,,###''''                  '''############,,,                           
         ,,##''                                '''############,,,,        ,,,,,,###''
      ,#''                                            '''#######################'''  
     '                                                          ''''####''''         
             ,#######,   #######,   ,#######,      ##                                
            ,#'     '#,  ##    ##  ,#'     '#,    #''#        ,####,    ,#,          
            ##       ##  ##   ,#'  ##            #'  '#       #'       ,# #          
            ##       ##  #######   ##           ,######,      #####,      #          
            '#,     ,#'  ##    ##  '#,     ,#' ,#      #,     #,   #      #          
             '#######'   ##     ##  '#######'  #'      '#     '####' #    #          



                #########################################################
                #                        -***-                          #
                #          Department of theory and spectroscopy        #
                #                                                       #
                #                      Frank Neese                      #
                #                                                       #
                #     Directorship, Architecture, Infrastructure        #
                #                    SHARK, DRIVERS                     #
                #        Core code/Algorithms in most modules           #
                #                                                       #
                #        Max Planck Institute fuer Kohlenforschung      #
                #                Kaiser Wilhelm Platz 1                 #
                #                 D-45470 Muelheim/Ruhr                 #
                #                      Germany                          #
                #                                                       #
                #                  All rights reserved                  #
                #                        -***-                          #
                #########################################################


                         Program Version 6.1.0  -  RELEASE   -
                                (GIT: $679e74b$)
                          ($2025-06-10 18:02:51 +0200$)


 With contributions from (in alphabetic order):
[Max-Planck-Institut fuer Kohlenforschung]                               
  Daniel Aravena         : Magnetic Suceptibility                        
  Michael Atanasov       : Ab Initio Ligand Field Theory (pilot matlab implementation)
  Alexander A. Auer      : GIAO ZORA, VPT2 properties, NMR spectrum      
  Ute Becker             : All parallelization in ORCA, NUMFREQ, NUMCALC 
  Giovanni Bistoni       : ED, misc. LED, open-shell LED, HFLD           
  Dmytro Bykov           : pre 5.0 version of the SCF Hessian            
  Marcos Casanova-Páez   : Triplet and SCS-CIS(D). UHF-(DLPNO)-IP/EA/STEOM-CCSD. UHF-CVS-IP/STEOM-CCSD   
  Vijay G. Chilkuri      : MRCI spin determinant printing, contributions to CSF-ICE 
  Pauline Colinet        : FMM embedding                                 
  Dipayan Datta          : RHF DLPNO-CCSD density                        
  Achintya Kumar Dutta   : EOM-CC, STEOM-CC                              
  Nicolas Foglia         : Exact transition moments, OPA infrastructure, MCD improvements    
  Dmitry Ganyushin       : Spin-Orbit,Spin-Spin,Magnetic field MRCI      
  Miquel Garcia-Rates    : C-PCM and meta-GGA Hessian, CCSD/C-PCM, Gaussian charge scheme 
  Tiago L. C. Gouveia    : GS-ROHF, GS-ROCIS                             
  Yang Guo               : DLPNO-NEVPT2, F12-NEVPT2, CIM, IAO-localization        
  Andreas Hansen         : Spin unrestricted coupled pair/coupled cluster methods 
  Ingolf Harden          : AUTO-CI MPn and infrastructure                
  Benjamin Helmich-Paris : MC-RPA, TRAH-(SCF,CASSCF), AVAS, COSX integrals, SCF dyn. polar., MC-PDFT, srDFT 
  Lee Huntington         : MR-EOM, pCC                                   
  Robert Izsak           : Overlap fitted RIJCOSX, COSX-SCS-MP3, EOM     
  Riya Kayal             : Wick's Theorem for AUTO-CI, AUTO-CI UHF-CCSDT 
  Emily Kempfer          : AUTO-CI RHF CISDT and CCSDT, approximate NEVPT4
  Christian Kollmar      : KDIIS, OOCD, Brueckner-CCSD(T), CCSD density, CASPT2, CASPT2-K, improved NEVPT2 
  Axel Koslowski         : Symmetry handling                             
  Simone Kossmann        : meta-GGA functionals, TD-DFT gradient, OOMP2, (MP2 Hessian; deprecated post 5.0) 
  Lucas Lang             : DCDCAS, Hyperfine gauge corrections, ICE-SOC+SSC
  Marvin Lechner         : AUTO-CI (C++ implementation), FIC-MRCC        
  Spencer Leger          : CASSCF response                               
  Dagmar Lenk            : GEPOL surface, SMD, ORCA-2-JSON               
  Dimitrios Liakos       : Extrapolation schemes; Compound Job, Property file
  Dimitrios Manganas     : Further ROCIS development; embedding schemes. LFT, Crystal Embedding 
  Dimitrios Pantazis     : SARC Basis sets                               
  Anastasios Papadopoulos: AUTO-CI, single reference methods and gradients 
  Taras Petrenko         : pre 6.0 DFT Hessian and TD-DFT gradient,  ECA, NRVS 
  Petra Pikulova         : Analytic Raman intensities                    
  Peter Pinski           : DLPNO-MP2, DLPNO-MP2 Gradient                 
  Shashank Vittal Rao    : ES-AILFT, MagRelax                            
  Christoph Reimann      : Effective Core Potentials                     
  Marius Retegan         : Local ZFS, SOC                                
  Christoph Riplinger    : Optimizer, TS searches, QM/MM, DLPNO-CCSD(T), (RO)-DLPNO pert. Triples 
  Michael Roemelt        : Original ROCIS implementation, recursive CI coupling coefficients
  Masaaki Saitow         : Open-shell DLPNO-CCSD energy and density      
  Barbara Sandhoefer     : DKH picture change effects                    
  Yorick L. A. Schmerwitz: GMF and freeze-and-release deltaSCF, NEB S-IDPP initial path                    
  Kantharuban Sivalingam : CASSCF convergence/infrastructure, NEVPT2, NEVPT3, NEVPT4(SD), FIC-MRCI and CEPA variants
  Bernardo de Souza      : ESD, SOC TD-DFT                               
  Georgi L. Stoychev     : AutoAux, RI-MP2 NMR, DLPNO-MP2 response, X2C  
  Van Anh Tran           : RI-MP2 g-tensors                              
  Willem Van den Heuvel  : Paramagnetic NMR                              
  Zikuan Wang            : NOTCH, Electric field optimization            
  Frank Wennmohs         : Technical directorship and infrastructure     
  Hang Xu                : AUTO-CI-Response properties                   
                                                                         
[FACCTs GmbH]                                                            
  Markus Bursch, Nicolas Foglia, Miquel Garcia-Rates, Ingolf Harden, Hagen Neugebauer, Anastasios Papadopoulos, 
  Christoph Riplinger, Bernardo de Souza, Georgi L. Stoychev                                                    
                                                                 
  APM, various basis sets, CI-OPT, improved COSX, DLPNO-Multilevel,           
  DOCKER, DRACO, updates on ESD, Fragmentator, GOAT, IRC, LR-CPCM, L-BFGS, MBIS, meta-GGA TD-DFT gradient, ML-optimized integration grids, 
  MM, NACMEs, nearIR, NEB, NEB-TS, NL-DFT gradient (VV10), 2- and 3-layer-ONIOM, interface openCOSMO-RS, QMMM,   
  Crystal-QMMM, RESP, rigid body optimization, SF, symmetry and pop. for TD-DFT, various functionals, SOLVATOR                                   
                                                                         
[Other institutions]                                                     
  V. Asgeirsson          : NEB                                           
  Christoph Bannwarth    : sTDA-DFT, sTD-DFT, PBEh-3c, B97-3c, D3        
  Giovanni Bistoni       : ETS/NOCV, ADLD/ADEX, COVALED                  
  Martin Brehm           : Molecular dynamics                            
  Ronald Cardenas        : ETS/NOCV                                      
  Martina Colucci        : COVALED                                       
  Sebastian Ehlert       : rSCAN, r2SCAN, r2SCAN-3c, D4, dhf basis sets  
  Marvin Friede          : D4 for Fr, Ra, Ac-Lr                          
  Lars Goerigk           : TD-DFT with DH, B97 family of functionals     
  Stefan Grimme          : VdW corrections, initial TS optimization, DFT functionals, gCP, sTDA/sTD-DF 
  Waldemar Hujo          : DFT-NL                                        
  H. Jonsson             : NEB                                           
  Holger Kruse           : gCP                                           
  Marcel Mueller         : wB97X-3c, vDZP basis set                      
  Hagen Neugebauer       : wr2SCAN, Native XTB                           
  Gianluca Regni         : ADLD/ADEX                                     
  Tobias Risthaus        : pre 6.0 range-separated hybrid DFT and stability analysis
  Lukas Wittmann         : regularized MP2, r2SCAN double-hybrids, wr2SCAN        
                                                                         
We gratefully acknowledge several colleagues who have allowed us to      
interface, adapt or use parts of their codes:                            
  Ed Valeev, F. Pavosevic, A. Kumar             : LibInt (2-el integral package), F12 methods 
  Garnet Chan, S. Sharma, J. Yang, R. Olivares  : DMRG                   
  Ulf Ekstrom                                   : XCFun DFT Library      
  Mihaly Kallay                                 : mrcc  (arbitrary order and MRCC methods)
  Frank Weinhold                                : gennbo (NPA and NBO analysis)           
  Simon Mueller                                 : openCOSMO-RS                            
  Christopher J. Cramer and Donald G. Truhlar   : smd solvation model                     
  S Lehtola, MJT Oliveira, MAL Marques          : LibXC Library                           
  Liviu Ungur et al                             : ANISO software                          


 Your calculation uses the libint2 library for the computation of 2-el integrals
 For citations please refer to: http://libint.valeyev.net

 Your ORCA version has been built with support for libXC version: 7.0.0
 For citations please refer to: https://libxc.gitlab.io

 This ORCA versions uses:
   CBLAS   interface :  Fast vector & matrix operations
   LAPACKE interface :  Fast linear algebra routines
   SCALAPACK package :  Parallel linear algebra routines
   Shared memory     :  Shared parallel matrices
   BLAS/LAPACK       :  OpenBLAS 0.3.29  USE64BITINT DYNAMIC_ARCH NO_AFFINITY Haswell SINGLE_THREADED
        Core in use  :  Haswell
   Copyright (c) 2011-2014, The OpenBLAS Project


  ***********************************
  * Starting time: Thu Aug 14 00:53:41 2025
  * Host name:     CHEMLAB02
  * Process ID:    1542776
  * Working dir.:  /home/vivek/mm-project/vivek/MP2/e/4
  ***********************************



***************************************
The coordinates will be read from file: /home/vivek/mm-project/vivek/xtb-goat/e/E_CONF/4.xyz
***************************************


================================================================================

----- Orbital basis set information -----
Your calculation utilizes the basis: 6-31G**
   H-He, Li-Ne : W. J. Hehre, R. Ditchfield and J.A. Pople, J. Chem. Phys. 56, 2257 (1972).
                 Note: He and Ne are unpublished basis sets taken from the Gaussian program.
                 Note: Li and B from J. D. Dill and J. A. Pople, J. Chem. Phys. 62, 2921 (1975).
   Na - Ar     : M. M. Francl, W. J. Pietro, W. J. Hehre, J. S. Binkley, M. S. Gordon, 
                 D. J. DeFrees and J. A. Pople, J. Chem. Phys. 77, 3654 (1982).
   K - Zn      : V. A. Rassolov, J. A. Pople, M. A. Ratner, and T. L. Windus, J. Chem. Phys. 109, 1223 (1998).

================================================================================
                                        WARNINGS
                       Please study these warnings very carefully!
================================================================================


WARNING: No MP2 level density has been requested!
         To calculate MP2 level properties use
         %mp2 Density relaxed end
         or
         %mp2 Density unrelaxed end

WARNING: Post HF methods need fully converged wavefunctions
  ===> : Setting SCFConvForced true
         You can overwrite this default with %scf ConvForced false 


================================================================================
                                       INPUT FILE
================================================================================
NAME = 4.inp
|  1> ! MP2 6-31G** 
|  2> 
|  3> * xyzfile 0 1 /home/vivek/mm-project/vivek/xtb-goat/e/E_CONF/4.xyz
|  4> 
|  5>                          ****END OF INPUT****
================================================================================

                       ****************************
                       * Single Point Calculation *
                       ****************************

---------------------------------
CARTESIAN COORDINATES (ANGSTROEM)
---------------------------------
  C     -2.403654   -0.712675   -0.366593
  C     -1.955428    0.366790   -1.324185
  H      0.699481    2.894841    1.424932
  H     -0.926922    2.996535    1.610625
  O     -3.568183   -0.409543    0.208246
  C     -1.660356    1.672308   -0.578392
  H     -1.072933    0.017376   -1.860526
  H     -2.767490    0.539010   -2.032008
  C     -0.360018    1.612043    0.234896
  H     -1.568332    2.494143   -1.288208
  H     -2.487147    1.893962    0.098749
  C     -0.420229    0.443088    1.216626
  O     -1.212818    0.358624    2.120095
  N     -0.184407    2.878560    0.927623
  H     -3.808532   -1.075885    0.870803
  O      0.537891   -0.450650    0.991892
  H      0.494651    1.456527   -0.430731
  O     -1.808529   -1.731573   -0.133650
  H      0.443979   -1.224159    1.571702

----------------------------
CARTESIAN COORDINATES (A.U.)
----------------------------
  NO LB      ZA    FRAG     MASS         X           Y           Z
   0 C     6.0000    0    12.011   -4.542248   -1.346760   -0.692761
   1 C     6.0000    0    12.011   -3.695223    0.693133   -2.502348
   2 H     1.0000    0     1.008    1.321828    5.470456    2.692732
   3 H     1.0000    0     1.008   -1.751628    5.662631    3.043640
   4 O     8.0000    0    15.999   -6.742889   -0.773924    0.393528
   5 C     6.0000    0    12.011   -3.137618    3.160205   -1.093003
   6 H     1.0000    0     1.008   -2.027549    0.032837   -3.515885
   7 H     1.0000    0     1.008   -5.229797    1.018580   -3.839938
   8 C     6.0000    0    12.011   -0.680335    3.046319    0.443890
   9 H     1.0000    0     1.008   -2.963717    4.713247   -2.434360
  10 H     1.0000    0     1.008   -4.700027    3.579070    0.186609
  11 C     6.0000    0    12.011   -0.794118    0.837315    2.299091
  12 O     8.0000    0    15.999   -2.291894    0.677701    4.006399
  13 N     7.0000    0    14.007   -0.348479    5.439689    1.752953
  14 H     1.0000    0     1.008   -7.197082   -2.033127    1.645579
  15 O     8.0000    0    15.999    1.016467   -0.851605    1.874404
  16 H     1.0000    0     1.008    0.934755    2.752438   -0.813963
  17 O     8.0000    0    15.999   -3.417624   -3.272198   -0.252561
  18 H     1.0000    0     1.008    0.838998   -2.313325    2.970087

--------------------------------
INTERNAL COORDINATES (ANGSTROEM)
--------------------------------
 C      0   0   0     0.000000000000     0.00000000     0.00000000
 C      1   0   0     1.511004511064     0.00000000     0.00000000
 H      2   1   0     4.582273337415   100.70744613     0.00000000
 H      3   2   1     1.640125068741    61.80937980   285.66531391
 O      1   2   3     1.333587914604   111.70467439    93.34183091
 C      2   1   3     1.532204966989   110.93831832   331.60326501
 H      2   1   3     1.090206087448   108.84052174    93.88289281
 H      2   1   3     1.090924542069   107.64735173   212.49229206
 C      6   2   1     1.534910318419   112.80533707    73.04627722
 H      6   2   1     1.089824734811   109.98469100   193.23651746
 H      6   2   1     1.091436869851   109.21640308   312.02708537
 C      9   6   2     1.527702079081   109.70345161   303.37692876
 O     12   9   6     1.204818470217   124.15662669   296.41070917
 N      3   2   1     1.014318042035    36.10995306   250.75624581
 H      5   1   2     0.969927590907   110.77356084   184.47983924
 O     12   9   6     1.329386399569   112.17142095   118.81177166
 H      9   6   2     1.094396395961   110.17645082    62.43398889
 O      1   2   3     1.202742765617   125.53248198   273.11746248
 H     16  12   9     0.971244183558   111.39605890   184.84305238

---------------------------
INTERNAL COORDINATES (A.U.)
---------------------------
 C      0   0   0     0.000000000000     0.00000000     0.00000000
 C      1   0   0     2.855384713031     0.00000000     0.00000000
 H      2   1   0     8.659241678483   100.70744613     0.00000000
 H      3   2   1     3.099387205299    61.80937980   285.66531391
 O      1   2   3     2.520115934108   111.70467439    93.34183091
 C      2   1   3     2.895447768642   110.93831832   331.60326501
 H      2   1   3     2.060190934810   108.84052174    93.88289281
 H      2   1   3     2.061548617284   107.64735173   212.49229206
 C      6   2   1     2.900560141942   112.80533707    73.04627722
 H      6   2   1     2.059470282766   109.98469100   193.23651746
 H      6   2   1     2.062516776483   109.21640308   312.02708537
 C      9   6   2     2.886938543685   109.70345161   303.37692876
 O     12   9   6     2.276776949801   124.15662669   296.41070917
 N      3   2   1     1.916783312142    36.10995306   250.75624581
 H      5   1   2     1.832897516549   110.77356084   184.47983924
 O     12   9   6     2.512176221346   112.17142095   118.81177166
 H      9   6   2     2.068109470316   110.17645082    62.43398889
 O      1   2   3     2.272854436571   125.53248198   273.11746248
 H     16  12   9     1.835385516089   111.39605890   184.84305238

---------------------
BASIS SET INFORMATION
---------------------
There are 4 groups of distinct atoms

 Group   1 Type C   : 10s4p1d contracted to 3s2p1d pattern {631/31/1}
 Group   2 Type H   : 4s1p contracted to 2s1p pattern {31/1}
 Group   3 Type O   : 10s4p1d contracted to 3s2p1d pattern {631/31/1}
 Group   4 Type N   : 10s4p1d contracted to 3s2p1d pattern {631/31/1}

Atom   0C    basis set group =>   1
Atom   1C    basis set group =>   1
Atom   2H    basis set group =>   2
Atom   3H    basis set group =>   2
Atom   4O    basis set group =>   3
Atom   5C    basis set group =>   1
Atom   6H    basis set group =>   2
Atom   7H    basis set group =>   2
Atom   8C    basis set group =>   1
Atom   9H    basis set group =>   2
Atom  10H    basis set group =>   2
Atom  11C    basis set group =>   1
Atom  12O    basis set group =>   3
Atom  13N    basis set group =>   4
Atom  14H    basis set group =>   2
Atom  15O    basis set group =>   3
Atom  16H    basis set group =>   2
Atom  17O    basis set group =>   3
Atom  18H    basis set group =>   2
------------------------------------------------------------------------------
                             ORCA STARTUP CALCULATIONS
------------------------------------------------------------------------------
------------------------------------------------------------------------------
                   ___                                                        
                  /   \      - P O W E R E D   B Y -                         
                 /     \                                                     
                 |  |  |   _    _      __       _____    __    __             
                 |  |  |  | |  | |    /  \     |  _  \  |  |  /  |          
                  \  \/   | |  | |   /    \    | | | |  |  | /  /          
                 / \  \   | |__| |  /  /\  \   | |_| |  |  |/  /          
                |  |  |   |  __  | /  /__\  \  |    /   |      \           
                |  |  |   | |  | | |   __   |  |    \   |  |\   \          
                \     /   | |  | | |  |  |  |  | |\  \  |  | \   \       
                 \___/    |_|  |_| |__|  |__|  |_| \__\ |__|  \__/        
                                                                              
                      - O R C A' S   B I G   F R I E N D -                    
                                      &                                       
                       - I N T E G R A L  F E E D E R -                       
                                                                              
 v1 FN, 2020, v2 2021, v3 2022-2024                                           
------------------------------------------------------------------------------


----------------------
SHARK INTEGRAL PACKAGE
----------------------

Number of atoms                             ...     19
Number of basis functions                   ...    185
Number of shells                            ...     87
Maximum angular momentum                    ...      2
Integral batch strategy                     ... SHARK/LIBINT Hybrid
RI-J (if used) integral strategy            ... SPLIT-RIJ (Revised 2003 algorithm where possible)
Printlevel                                  ...      1
Contraction scheme used                     ... SEGMENTED contraction
Prescreening option                         ... SCHWARTZ
   Thresh                                   ... 1.000e-10
   Tcut                                     ... 1.000e-11
   Tpresel                                  ... 1.000e-11 
Coulomb Range Separation                    ... NOT USED
Exchange Range Separation                   ... NOT USED
Multipole approximations                    ... NOT USED
Finite Nucleus Model                        ... NOT USED
CABS basis                                  ... NOT available
Auxiliary Coulomb fitting basis             ... NOT available
Auxiliary J/K fitting basis                 ... NOT available
Auxiliary Correlation fitting basis         ... NOT available
Auxiliary 'external' fitting basis          ... NOT available

Checking pre-screening integrals            ... done (  0.0 sec) Dimension = 87
   => SHARK Basis and OBASIS are compatible. Storing Pre-screening
Shell pair information
Shell pair cut-off parameter TPreSel        ...   1.0e-11
Total number of shell pairs                 ...      3828
Shell pairs after pre-screening             ...      3475
Total number of primitive shell pairs       ...     19347
Primitive shell pairs kept                  ...     11373
          la=0 lb=0:   1052 shell pairs
          la=1 lb=0:   1254 shell pairs
          la=1 lb=1:    398 shell pairs
          la=2 lb=0:    449 shell pairs
          la=2 lb=1:    269 shell pairs
          la=2 lb=2:     53 shell pairs

Checking whether 4 symmetric matrices of dimension 185 fit in memory
:Max Core in MB      =   4096.00
 MB in use           =      5.96
 MB left             =   4090.04
 MB needed           =      0.53
 Data fit in memory  = YES
Calculating Nuclear repulsion               ... done (  0.0 sec) ENN=    585.456807533265 Eh

Diagonalization of the overlap matrix:
Smallest eigenvalue                        ... 2.894e-03
Time for diagonalization                   ...    0.002 sec
Threshold for overlap eigenvalues          ... 1.000e-07
Number of eigenvalues below threshold      ... 0
Time for construction of square roots      ...    0.001 sec
Total time needed                          ...    0.002 sec

-------------------
DFT GRID GENERATION
-------------------

General Integration Accuracy     IntAcc      ... 4.388
Radial Grid Type                 RadialGrid  ... OptM3 with GC (2021)
Angular Grid (max. ang.)         AngularGrid ... 4 (Lebedev-302)
Angular grid pruning method      GridPruning ... 4 (adaptive)
Weight generation scheme         WeightScheme... mBecke (2022)
Basis function cutoff            BFCut       ... 1.0000e-10
Integration weight cutoff        WCut        ... 1.0000e-14
Partially contracted basis set               ... off
Rotationally invariant grid construction     ... off
Angular grids for H and He will be reduced by one unit

Total number of grid points                  ...    89129
Total number of batches                      ...     1403
Average number of points per batch           ...       63
Average number of grid points per atom       ...     4691
Grids setup in   0.4 sec
Initializing property integral containers    ... done (  0.0 sec)

SHARK setup successfully completed in   0.4 seconds

Maximum memory used throughout the entire STARTUP-calculation: 35.6 MB
-------------------------------------------------------------------------------
                                 ORCA GUESS
                   Start orbitals & Density for SCF / CASSCF
-------------------------------------------------------------------------------

------------
SCF SETTINGS
------------
Hamiltonian:
 Ab initio Hamiltonian  Method          .... Hartree-Fock(GTOs)


General Settings:
 Integral files         IntName         .... 4
 Hartree-Fock type      HFTyp           .... RHF
 Total Charge           Charge          ....    0
 Multiplicity           Mult            ....    1
 Number of Electrons    NEL             ....   78
 Basis Dimension        Dim             ....  185
 Nuclear Repulsion      ENuc            ....    585.4568075333 Eh

Convergence Acceleration:
 AO-DIIS                CNVDIIS         .... on
   Start iteration      DIISMaxIt       ....    12
   Startup error        DIISStart       ....  0.200000
   # of expansion vecs  DIISMaxEq       ....     5
   Bias factor          DIISBfac        ....   1.050
   Max. coefficient     DIISMaxC        ....  10.000
 MO-DIIS                CNVKDIIS        .... off
 Trust-Rad. Augm. Hess. CNVTRAH         .... auto
   Auto Start mean grad. ratio tolernc. ....  1.125000
   Auto Start start iteration           ....    50
   Auto Start num. interpolation iter.  ....    10
   Max. Number of Micro iterations      ....    24
   Max. Number of Macro iterations      .... Maxiter - #DIIS iter
   Number of Davidson start vectors     ....     2
   Converg. threshold    (grad. norm)   ....   5.000e-05
   Grad. Scal. Fac. for Micro threshold ....   0.100
   Minimum threshold for Micro iter.    ....   1.000e-02
   NR start threshold (gradient norm)   ....   1.000e-04
   Initial trust radius                 ....   0.400
   Minimum AH scaling param. (alpha)    ....   1.000
   Maximum AH scaling param. (alpha)    .... 1000.000
   Quad. conv. algorithm                .... NR
   White noise on init. David. guess    .... on
   Maximum white noise                  ....   0.010
   Pseudo random numbers                .... off
   Inactive MOs                         .... canonical
   Orbital update algorithm             .... Taylor
   Preconditioner                       .... Diag
   Full preconditioner red. dimension   ....   250
 SOSCF                 CNVSOSCF           .... on
   Start iteration     SOSCFMaxIt         ....   150
   Startup grad/error  SOSCFStart         ....  0.003300
   Hessian update      SOSCFHessUp        .... L-BFGS
   Autom. constraints  SOSCFAutoConstrain .... off
 Level Shifting         CNVShift        .... on
   Level shift para.    LevelShift      ....    0.2500
   Turn off err/grad.   ShiftErr        ....    0.0010
 Zerner damping         CNVZerner       .... off
 Static damping         CNVDamp         .... on
   Fraction old density DampFac         ....    0.7000
   Max. Damping (<1)    DampMax         ....    0.9800
   Min. Damping (>=0)   DampMin         ....    0.0000
   Turn off err/grad.   DampErr         ....    0.1000

SCF Procedure:
 Maximum # iterations   MaxIter         ....   125
 SCF integral mode      SCFMode         .... Direct
   Integral package                     .... SHARK and LIBINT hybrid scheme
 Reset frequency        DirectResetFreq ....    20
 Integral Threshold     Thresh          ....  1.000e-10 Eh
 Primitive CutOff       TCut            ....  1.000e-11 Eh

Convergence Tolerance:
 Convergence Check Mode ConvCheckMode   .... Total+1el-Energy
 Convergence forced     ConvForced      .... 1
 Energy Change          TolE            ....  1.000e-06 Eh
 1-El. energy change                    ....  1.000e-03 Eh
 Orbital Gradient       TolG            ....  5.000e-05
 Orbital Rotation angle TolX            ....  5.000e-05
 DIIS Error             TolErr          ....  1.000e-06

------------------------------
INITIAL GUESS: MODEL POTENTIAL
------------------------------
Loading Hartree-Fock densities                     ... done
Calculating cut-offs                               ... done
Initializing the effective Hamiltonian             ... done
Setting up the integral package (SHARK)            ... done
Starting the Coulomb interaction                   ... done (   0.1 sec)
Making the grid                                    ... done (   0.1 sec)
Mapping shells                                     ... done
Starting the XC term evaluation                    ... done (   0.0 sec)
Transforming the Hamiltonian                       ... done (   0.0 sec)
Diagonalizing the Hamiltonian                      ... done (   0.0 sec)
Back transforming the eigenvectors                 ... done (   0.0 sec)
Now organizing SCF variables                       ... done
                      ------------------
                      INITIAL GUESS DONE (   0.2 sec)
                      ------------------
             **** ENERGY FILE WAS UPDATED (4.en.tmp) ****
Finished Guess after   0.2 sec
Maximum memory used throughout the entire GUESS-calculation: 11.4 MB

-------------------------------------------------------------------------------------------
                                      ORCA LEAN-SCF
                              memory conserving SCF solver
-------------------------------------------------------------------------------------------

----------------------------------------D-I-I-S--------------------------------------------
Iteration    Energy (Eh)           Delta-E    RMSDP     MaxDP     DIISErr   Damp  Time(sec)
-------------------------------------------------------------------------------------------
               ***  Starting incremental Fock matrix formation  ***
    1    -548.1150500571546900     0.00e+00  2.53e-03  6.10e-02  2.55e-01  0.700   1.9
    2    -548.2660947295775031    -1.51e-01  1.86e-03  4.43e-02  1.60e-01  0.700   1.7
                               ***Turning on AO-DIIS***
    3    -548.3535935994535748    -8.75e-02  1.01e-03  2.16e-02  9.16e-02  0.700   1.7
    4    -548.4087922083921285    -5.52e-02  2.32e-03  4.63e-02  6.20e-02  0.000   1.7
    5    -548.5322489253579761    -1.23e-01  3.01e-04  4.28e-03  4.89e-03  0.000   1.7
                              *** Initializing SOSCF ***
---------------------------------------S-O-S-C-F--------------------------------------
Iteration    Energy (Eh)           Delta-E    RMSDP     MaxDP     MaxGrad    Time(sec)
--------------------------------------------------------------------------------------
    6    -548.5328650556810999    -6.16e-04  1.43e-04  1.96e-03  2.22e-03     1.6
               *** Restarting incremental Fock matrix formation ***
    7    -548.5330118966468262    -1.47e-04  9.35e-05  1.32e-03  1.74e-03     1.9
    8    -548.5330617219673286    -4.98e-05  1.07e-04  1.66e-03  5.40e-04     1.5
    9    -548.5330791426116548    -1.74e-05  2.08e-05  3.66e-04  2.26e-04     1.5
   10    -548.5330810443898599    -1.90e-06  6.06e-06  1.02e-04  4.23e-05     1.3
   11    -548.5330811863558438    -1.42e-07  3.09e-06  5.78e-05  1.60e-05     1.2
                 **** Energy Check signals convergence ****

               *****************************************************
               *                     SUCCESS                       *
               *           SCF CONVERGED AFTER  11 CYCLES          *
               *****************************************************

             **** ENERGY FILE WAS UPDATED (4.en.tmp) ****

----------------
TOTAL SCF ENERGY
----------------

Total Energy       :       -548.53308120801864 Eh          -14926.34398 eV

Components:
Nuclear Repulsion  :        585.45680753326531 Eh           15931.08965 eV
Electronic Energy  :      -1133.98988874128395 Eh          -30857.43363 eV
One Electron Energy:      -1914.44771895869940 Eh          -52094.77088 eV
Two Electron Energy:        780.45783021741545 Eh           21237.33725 eV

Virial components:
Potential Energy   :      -1096.36519336856827 Eh          -29833.61362 eV
Kinetic Energy     :        547.83211216054974 Eh           14907.26964 eV
Virial Ratio       :          2.00127953260115

---------------
SCF CONVERGENCE
---------------

  Last Energy change         ...    1.4197e-07  Tolerance :   1.0000e-06
  Last MAX-Density change    ...    5.7762e-05  Tolerance :   1.0000e-05
  Last RMS-Density change    ...    3.0893e-06  Tolerance :   1.0000e-06
  Last DIIS Error            ...    2.2228e-03  Tolerance :   1.0000e-06
  Last Orbital Gradient      ...    1.6048e-05  Tolerance :   5.0000e-05
  Last Orbital Rotation      ...    5.1498e-05  Tolerance :   5.0000e-05


----------------
ORBITAL ENERGIES
----------------

  NO   OCC          E(Eh)            E(eV) 
   0   2.0000     -20.614454      -560.9478 
   1   2.0000     -20.612545      -560.8959 
   2   2.0000     -20.553168      -559.2801 
   3   2.0000     -20.550500      -559.2075 
   4   2.0000     -15.557960      -423.3536 
   5   2.0000     -11.386538      -309.8434 
   6   2.0000     -11.383050      -309.7486 
   7   2.0000     -11.278427      -306.9016 
   8   2.0000     -11.249780      -306.1221 
   9   2.0000     -11.243577      -305.9533 
  10   2.0000      -1.470679       -40.0192 
  11   2.0000      -1.464234       -39.8438 
  12   2.0000      -1.362329       -37.0709 
  13   2.0000      -1.359680       -36.9988 
  14   2.0000      -1.205624       -32.8067 
  15   2.0000      -1.085150       -29.5284 
  16   2.0000      -0.975660       -26.5491 
  17   2.0000      -0.901374       -24.5276 
  18   2.0000      -0.825093       -22.4519 
  19   2.0000      -0.791368       -21.5342 
  20   2.0000      -0.722732       -19.6665 
  21   2.0000      -0.700257       -19.0550 
  22   2.0000      -0.695798       -18.9336 
  23   2.0000      -0.683239       -18.5919 
  24   2.0000      -0.670838       -18.2544 
  25   2.0000      -0.652428       -17.7535 
  26   2.0000      -0.618853       -16.8399 
  27   2.0000      -0.609195       -16.5770 
  28   2.0000      -0.595712       -16.2101 
  29   2.0000      -0.576282       -15.6814 
  30   2.0000      -0.560089       -15.2408 
  31   2.0000      -0.540345       -14.7035 
  32   2.0000      -0.518133       -14.0991 
  33   2.0000      -0.501617       -13.6497 
  34   2.0000      -0.474764       -12.9190 
  35   2.0000      -0.472683       -12.8624 
  36   2.0000      -0.460059       -12.5189 
  37   2.0000      -0.441028       -12.0010 
  38   2.0000      -0.400786       -10.9059 
  39   0.0000       0.161820         4.4033 
  40   0.0000       0.196880         5.3574 
  41   0.0000       0.221715         6.0332 
  42   0.0000       0.235682         6.4132 
  43   0.0000       0.246071         6.6959 
  44   0.0000       0.258434         7.0323 
  45   0.0000       0.271665         7.3924 
  46   0.0000       0.301698         8.2096 
  47   0.0000       0.313620         8.5340 
  48   0.0000       0.330042         8.9809 
  49   0.0000       0.338826         9.2199 
*Only the first 10 virtual orbitals were printed.

                    ********************************
                    * MULLIKEN POPULATION ANALYSIS *
                    ********************************

-----------------------
MULLIKEN ATOMIC CHARGES
-----------------------
   0 C :    0.787505
   1 C :   -0.308734
   2 H :    0.275783
   3 H :    0.284800
   4 O :   -0.627793
   5 C :   -0.238053
   6 H :    0.166074
   7 H :    0.164523
   8 C :   -0.014059
   9 H :    0.154965
  10 H :    0.161721
  11 C :    0.787825
  12 O :   -0.604090
  13 N :   -0.687561
  14 H :    0.376523
  15 O :   -0.625687
  16 H :    0.162421
  17 O :   -0.593873
  18 H :    0.377710
Sum of atomic charges:    0.0000000

--------------------------------
MULLIKEN REDUCED ORBITAL CHARGES
--------------------------------
  0 C s       :     2.959463  s :     2.959463
      pz      :     0.696450  p :     2.103698
      px      :     0.625357
      py      :     0.781890
      dz2     :     0.015149  d :     0.149334
      dxz     :     0.024249
      dyz     :     0.030662
      dx2y2   :     0.046272
      dxy     :     0.033001

  1 C s       :     3.264860  s :     3.264860
      pz      :     0.970979  p :     2.998152
      px      :     1.097231
      py      :     0.929941
      dz2     :     0.002280  d :     0.045722
      dxz     :     0.013182
      dyz     :     0.013849
      dx2y2   :     0.009761
      dxy     :     0.006650

  2 H s       :     0.698076  s :     0.698076
      pz      :     0.007454  p :     0.026141
      px      :     0.013148
      py      :     0.005539

  3 H s       :     0.689136  s :     0.689136
      pz      :     0.009856  p :     0.026064
      px      :     0.010499
      py      :     0.005709

  4 O s       :     3.834844  s :     3.834844
      pz      :     1.570784  p :     4.767652
      px      :     1.510891
      py      :     1.685976
      dz2     :     0.002055  d :     0.025297
      dxz     :     0.003685
      dyz     :     0.007074
      dx2y2   :     0.007753
      dxy     :     0.004730

  5 C s       :     3.250401  s :     3.250401
      pz      :     1.017581  p :     2.939594
      px      :     0.963180
      py      :     0.958834
      dz2     :     0.002540  d :     0.048057
      dxz     :     0.014447
      dyz     :     0.013697
      dx2y2   :     0.013418
      dxy     :     0.003956

  6 H s       :     0.821378  s :     0.821378
      pz      :     0.003351  p :     0.012549
      px      :     0.006753
      py      :     0.002445

  7 H s       :     0.822522  s :     0.822522
      pz      :     0.004895  p :     0.012955
      px      :     0.005923
      py      :     0.002137

  8 C s       :     3.197646  s :     3.197646
      pz      :     0.907323  p :     2.746125
      px      :     1.049493
      py      :     0.789308
      dz2     :     0.006553  d :     0.070289
      dxz     :     0.014896
      dyz     :     0.022026
      dx2y2   :     0.020978
      dxy     :     0.005836

  9 H s       :     0.832425  s :     0.832425
      pz      :     0.004625  p :     0.012610
      px      :     0.001749
      py      :     0.006235

 10 H s       :     0.825575  s :     0.825575
      pz      :     0.004651  p :     0.012703
      px      :     0.006229
      py      :     0.001823

 11 C s       :     2.966707  s :     2.966707
      pz      :     0.756087  p :     2.097522
      px      :     0.615200
      py      :     0.726235
      dz2     :     0.030553  d :     0.147946
      dxz     :     0.023359
      dyz     :     0.032992
      dx2y2   :     0.027253
      dxy     :     0.033789

 12 O s       :     3.882584  s :     3.882584
      pz      :     1.440654  p :     4.688980
      px      :     1.497748
      py      :     1.750578
      dz2     :     0.010478  d :     0.032526
      dxz     :     0.009048
      dyz     :     0.004638
      dx2y2   :     0.004481
      dxy     :     0.003882

 13 N s       :     3.610861  s :     3.610861
      pz      :     1.418294  p :     4.042078
      px      :     1.186279
      py      :     1.437505
      dz2     :     0.002742  d :     0.034622
      dxz     :     0.015036
      dyz     :     0.004057
      dx2y2   :     0.010765
      dxy     :     0.002022

 14 H s       :     0.581751  s :     0.581751
      pz      :     0.017349  p :     0.041726
      px      :     0.007953
      py      :     0.016425

 15 O s       :     3.838166  s :     3.838166
      pz      :     1.724429  p :     4.761881
      px      :     1.652338
      py      :     1.385113
      dz2     :     0.003043  d :     0.025641
      dxz     :     0.003520
      dyz     :     0.007522
      dx2y2   :     0.004880
      dxy     :     0.006676

 16 H s       :     0.825578  s :     0.825578
      pz      :     0.004349  p :     0.012001
      px      :     0.006361
      py      :     0.001292

 17 O s       :     3.878454  s :     3.878454
      pz      :     1.621880  p :     4.682746
      px      :     1.642204
      py      :     1.418662
      dz2     :     0.003652  d :     0.032673
      dxz     :     0.003521
      dyz     :     0.007081
      dx2y2   :     0.009732
      dxy     :     0.008686

 18 H s       :     0.580821  s :     0.580821
      pz      :     0.014411  p :     0.041469
      px      :     0.006948
      py      :     0.020109



                     *******************************
                     * LOEWDIN POPULATION ANALYSIS *
                     *******************************

----------------------
LOEWDIN ATOMIC CHARGES
----------------------
   0 C :    0.233530
   1 C :   -0.132525
   2 H :    0.130783
   3 H :    0.135767
   4 O :   -0.201152
   5 C :   -0.099098
   6 H :    0.085946
   7 H :    0.091968
   8 C :   -0.019058
   9 H :    0.080544
  10 H :    0.081542
  11 C :    0.220761
  12 O :   -0.319723
  13 N :   -0.273837
  14 H :    0.203908
  15 O :   -0.192640
  16 H :    0.077915
  17 O :   -0.309695
  18 H :    0.205064

-------------------------------
LOEWDIN REDUCED ORBITAL CHARGES
-------------------------------
  0 C s       :     2.840575  s :     2.840575
      pz      :     0.799170  p :     2.604428
      px      :     0.840842
      py      :     0.964416
      dz2     :     0.033509  d :     0.321466
      dxz     :     0.050036
      dyz     :     0.063686
      dx2y2   :     0.097601
      dxy     :     0.076635

  1 C s       :     2.895949  s :     2.895949
      pz      :     1.043674  p :     3.150178
      px      :     1.082684
      py      :     1.023819
      dz2     :     0.004634  d :     0.086398
      dxz     :     0.022677
      dyz     :     0.027792
      dx2y2   :     0.018568
      dxy     :     0.012727

  2 H s       :     0.787577  s :     0.787577
      pz      :     0.024366  p :     0.081641
      px      :     0.038721
      py      :     0.018554

  3 H s       :     0.782093  s :     0.782093
      pz      :     0.031628  p :     0.082140
      px      :     0.031282
      py      :     0.019230

  4 O s       :     3.453762  s :     3.453762
      pz      :     1.539628  p :     4.699334
      px      :     1.508745
      py      :     1.650961
      dz2     :     0.004217  d :     0.048056
      dxz     :     0.010622
      dyz     :     0.011166
      dx2y2   :     0.012917
      dxy     :     0.009133

  5 C s       :     2.891794  s :     2.891794
      pz      :     1.053928  p :     3.116446
      px      :     1.036260
      py      :     1.026258
      dz2     :     0.005217  d :     0.090858
      dxz     :     0.026508
      dyz     :     0.025193
      dx2y2   :     0.025625
      dxy     :     0.008317

  6 H s       :     0.873263  s :     0.873263
      pz      :     0.011798  p :     0.040791
      px      :     0.020698
      py      :     0.008296

  7 H s       :     0.866866  s :     0.866866
      pz      :     0.015671  p :     0.041166
      px      :     0.017927
      py      :     0.007568

  8 C s       :     2.871607  s :     2.871607
      pz      :     1.000462  p :     3.007290
      px      :     1.062451
      py      :     0.944377
      dz2     :     0.013467  d :     0.140161
      dxz     :     0.027955
      dyz     :     0.045366
      dx2y2   :     0.042121
      dxy     :     0.011252

  9 H s       :     0.878759  s :     0.878759
      pz      :     0.014983  p :     0.040697
      px      :     0.006755
      py      :     0.018959

 10 H s       :     0.876953  s :     0.876953
      pz      :     0.014743  p :     0.041506
      px      :     0.019385
      py      :     0.007378

 11 C s       :     2.850478  s :     2.850478
      pz      :     0.910008  p :     2.608478
      px      :     0.826049
      py      :     0.872421
      dz2     :     0.063190  d :     0.320283
      dxz     :     0.054526
      dyz     :     0.069514
      dx2y2   :     0.058046
      dxy     :     0.075008

 12 O s       :     3.547632  s :     3.547632
      pz      :     1.483749  p :     4.714963
      px      :     1.520437
      py      :     1.710777
      dz2     :     0.014360  d :     0.057127
      dxz     :     0.021159
      dyz     :     0.007795
      dx2y2   :     0.007618
      dxy     :     0.006195

 13 N s       :     3.190072  s :     3.190072
      pz      :     1.401002  p :     4.022598
      px      :     1.173139
      py      :     1.448457
      dz2     :     0.004473  d :     0.061167
      dxz     :     0.023179
      dyz     :     0.008614
      dx2y2   :     0.019374
      dxy     :     0.005527

 14 H s       :     0.675447  s :     0.675447
      pz      :     0.048349  p :     0.120646
      px      :     0.023849
      py      :     0.048448

 15 O s       :     3.453226  s :     3.453226
      pz      :     1.683791  p :     4.690155
      px      :     1.637505
      py      :     1.368859
      dz2     :     0.005448  d :     0.049259
      dxz     :     0.005338
      dyz     :     0.013380
      dx2y2   :     0.010215
      dxy     :     0.014878

 16 H s       :     0.882369  s :     0.882369
      pz      :     0.014790  p :     0.039716
      px      :     0.019852
      py      :     0.005074

 17 O s       :     3.546719  s :     3.546719
      pz      :     1.593870  p :     4.705875
      px      :     1.631956
      py      :     1.480049
      dz2     :     0.007206  d :     0.057101
      dxz     :     0.004653
      dyz     :     0.011027
      dx2y2   :     0.015635
      dxy     :     0.018580

 18 H s       :     0.674807  s :     0.674807
      pz      :     0.043149  p :     0.120129
      px      :     0.022499
      py      :     0.054482



                      *****************************
                      * MAYER POPULATION ANALYSIS *
                      *****************************

  NA   - Mulliken gross atomic population
  ZA   - Total nuclear charge
  QA   - Mulliken gross atomic charge
  VA   - Mayer's total valence
  BVA  - Mayer's bonded valence
  FA   - Mayer's free valence

  ATOM       NA         ZA         QA         VA         BVA        FA
  0 C      5.2125     6.0000     0.7875     3.7182     3.7182    -0.0000
  1 C      6.3087     6.0000    -0.3087     3.7495     3.7495     0.0000
  2 H      0.7242     1.0000     0.2758     0.9025     0.9025     0.0000
  3 H      0.7152     1.0000     0.2848     0.9045     0.9045     0.0000
  4 O      8.6278     8.0000    -0.6278     1.8339     1.8339    -0.0000
  5 C      6.2381     6.0000    -0.2381     3.7715     3.7715     0.0000
  6 H      0.8339     1.0000     0.1661     0.9437     0.9437     0.0000
  7 H      0.8355     1.0000     0.1645     0.9438     0.9438    -0.0000
  8 C      6.0141     6.0000    -0.0141     3.7477     3.7477     0.0000
  9 H      0.8450     1.0000     0.1550     0.9470     0.9470     0.0000
 10 H      0.8383     1.0000     0.1617     0.9465     0.9465     0.0000
 11 C      5.2122     6.0000     0.7878     3.6526     3.6526     0.0000
 12 O      8.6041     8.0000    -0.6041     1.8565     1.8565    -0.0000
 13 N      7.6876     7.0000    -0.6876     2.7669     2.7669     0.0000
 14 H      0.6235     1.0000     0.3765     0.8691     0.8691     0.0000
 15 O      8.6257     8.0000    -0.6257     1.8537     1.8537     0.0000
 16 H      0.8376     1.0000     0.1624     0.9389     0.9389    -0.0000
 17 O      8.5939     8.0000    -0.5939     1.8774     1.8774     0.0000
 18 H      0.6223     1.0000     0.3777     0.8681     0.8681     0.0000

  Mayer bond orders larger than 0.100000
B(  0-C ,  1-C ) :   0.9433 B(  0-C ,  4-O ) :   0.9848 B(  0-C , 17-O ) :   1.7981 
B(  1-C ,  5-C ) :   0.9470 B(  1-C ,  6-H ) :   0.9644 B(  1-C ,  7-H ) :   0.9570 
B(  2-H , 13-N ) :   0.9080 B(  3-H , 13-N ) :   0.8958 B(  4-O , 14-H ) :   0.8389 
B(  5-C ,  8-C ) :   0.9673 B(  5-C ,  9-H ) :   0.9671 B(  5-C , 10-H ) :   0.9536 
B(  8-C , 11-C ) :   0.8950 B(  8-C , 13-N ) :   0.9871 B(  8-C , 16-H ) :   0.9583 
B( 11-C , 12-O ) :   1.7785 B( 11-C , 15-O ) :   0.9917 B( 15-O , 18-H ) :   0.8360 


-------
TIMINGS
-------

Total SCF time: 0 days 0 hours 0 min 18 sec 

Total time                  ....      18.801 sec
Sum of individual times     ....      17.663 sec  ( 93.9%)

SCF preparation             ....       0.017 sec  (  0.1%)
Fock matrix formation       ....      17.598 sec  ( 93.6%)
  Startup                   ....       0.001 sec  (  0.0% of F)
  Coulomb+Exchange Fock     ....      18.726 sec  (106.4% of F)
Diagonalization             ....       0.000 sec  (  0.0%)
Density matrix formation    ....       0.004 sec  (  0.0%)
Total Energy calculation    ....       0.001 sec  (  0.0%)
Population analysis         ....       0.003 sec  (  0.0%)
Orbital Transformation      ....       0.005 sec  (  0.0%)
Orbital Orthonormalization  ....       0.000 sec  (  0.0%)
DIIS solution               ....       0.024 sec  (  0.1%)
SOSCF solution              ....       0.011 sec  (  0.1%)
Finished LeanSCF after  18.8 sec

Maximum memory used throughout the entire LEANSCF-calculation: 15.0 MB

------------------------------------------------------------------------------
                                ORCA  MP2 
------------------------------------------------------------------------------

Freezing NCore=20 chemical core electrons

----------
MP2 ENERGY (disk based algorithm)
----------

Dimension of the basis                      ...  185
Memory devoted to MP2                       ... 4096 MB   
Data format for buffers                     ... DOUBLE
Compression type for matrix containers      ... UNCOMPRESSED

-------------------------
SHARK HALF TRANSFORMATION (Exchange order)
-------------------------

Number of basis functions                   ...    185
Number of operators                         ...      1
   Operator  0:   10-  38 (p-index in (p*|q*))
   Operator  0:   10-  38 (q-index in (p*|q*)
Integral generator used                     ... SHARK
Contraction scheme used                     ... SEGMENTED CONTRACTION
MaxCore in resort                           ...   4096 MB

Half transformed integrals for op=   0      ... 4.SHARK_MNPQ0.tmp
Resorted half transformed integrals         ... 4.KAO_aa.tmp

Half trafo (segmented) done. Total time = 11.1 sec. integrals= 10.1 sec trafo=  0.9 sec

----------------------
SHARK INTEGRAL SORTING (Exchange)
----------------------

Input container                             ... 4.SHARK_MNPQ0.tmp
Output container                            ... 4.KAO_aa.tmp
Range of AO-indices                         ...    0 -  184
Range of bra indices i                      ...   10 -   38
Range of ket indices j                      ...   10 -   38
Symmetric i,j range                         ... YES
Number of (i,j) pairs generated             ...  435
Max Core memory in MB                       ...   4096

Available core memory in MB                 ...   4086.37
MB needed for one item                      ...      0.26
Fixed MB needed                             ...      0.00
Number of items                             ...       435
Number of batches                           ...         1
Items treated per batch                     ...       435
Batch   0                                   ...      0-   434 (   435)
   => Closing output file and leaving
done (  0.1 sec)

SHARK half integral transformation done. Total time = 11.3 sec.


Finished integral transformation - now doing MP2 part

OPERATOR COMBINATION   0   0: ij=( 10.. 38, 10.. 38)
  Internal MO  12
  Internal MO  15
  Internal MO  18
  Internal MO  21
  Internal MO  24
  Internal MO  27
  Internal MO  30
  Internal MO  33
  Internal MO  36
-----------------------------------------------
 MP2 CORRELATION ENERGY   :     -1.548123959 Eh
-----------------------------------------------


-------
TIMINGS
-------
Total time                :   11.449 sec
Integral trafo            :   11.299 sec ( 98.7%)
K(i,j)                    :    0.123 sec (  1.1%)
T(i,j)                    :    0.004 sec (  0.0%)

---------------------------------------
MP2 TOTAL ENERGY:     -550.081205167 Eh
---------------------------------------

Maximum memory used throughout the entire MP2-calculation: 124.3 MB

-------------------------   --------------------
FINAL SINGLE POINT ENERGY      -550.081205166567
-------------------------   --------------------


------------------------------------------------------------------------------
                              ORCA PROPERTY CALCULATIONS
------------------------------------------------------------------------------

GBWName                                 ... 4.gbw
Number of atoms                         ...     19
Number of basis functions               ...    185
Max core memory                         ...   4096 MB

Electric properties:
Dipole moment                           ... YES
Quadrupole moment                       ...  NO
Static polarizability (Dipole/Dipole)   ...  NO
Static polarizability (Dipole/Quad.)    ...  NO
Static polarizability (Quad./Quad.)     ...  NO
Static polarizability (Velocity)        ...  NO
Static hyperpolarizability              ...  NO

Atomic electric properties:
Dipole moment                           ...  NO
Quadrupole moment                       ...  NO
Static polarizability                   ...  NO

Choice of electric origin               ... Center of mass
Position of electric origin             ...    -2.468028     0.710013     0.695108

General magnetic properties:
Magnetizability                         ...  NO

EPR properties:
g-Tensor (aka g-matrix)                 ...  NO
Zero-Field splitting spin-orbit         ...  NO
Zero-field splitting spin-spin          ...  NO
Hyperfine couplings                     ...  NO (   0 nuclei)
Quadrupole couplings                    ...  NO (   0 nuclei)
Contact density                         ...  NO (   0 nuclei)

NMR properties:
Chemical shifts                         ...  NO (   0 nuclei)
Spin-rotation constants                 ...  NO (   0 nuclei)
Spin-spin couplings                     ...  NO (   0 nuclei,    0 pairs)

Choice of magnetic origin               ... GIAO
Position of magnetic origin             ...     0.000000     0.000000     0.000000

Properties with geometric perturbations:
SCF Hessian                             ...  NO
IR spectrum                             ...  NO
VCD spectrum                            ...  NO
X-ray spectroscopy properties:
SCF XES/XAS/RIXS spectra                ...  NO

SCF SOC stabilization energy            ...  NO
Diagonal Born-Oppenheimer correction    ...  NO

-------------
DIPOLE MOMENT
-------------

Method             : SCF
Type of density    : Electron Density
Multiplicity       :   1
Irrep              :   0
Energy             :  -548.5330812080186433 Eh
Basis              : AO
                                X                 Y                 Z
Electronic contribution:     -0.655919330      -5.932186012       2.959234215
Nuclear contribution   :      0.707867145       6.160669399      -3.109920011
                        -----------------------------------------
Total Dipole Moment    :      0.051947815       0.228483387      -0.150685796
                        -----------------------------------------
Magnitude (a.u.)       :      0.278584714
Magnitude (Debye)      :      0.708106068



--------------------
Rotational spectrum 
--------------------
 
Rotational constants in cm-1:             0.063023             0.038236             0.031495 
Rotational constants in MHz :          1889.369147          1146.281657           944.187771 

Dipole components along the rotational axes: 
x,y,z [a.u.] :     0.142933    -0.218507    -0.097130 
x,y,z [Debye]:     0.363308    -0.555401    -0.246884 

 

Dipole moment calculation done in   0.0 sec 

Maximum memory used throughout the entire PROP-calculation: 9.8 MB

--------------------------------
SUGGESTED CITATIONS FOR THIS RUN
--------------------------------

Below you find a list of papers that are relevant to this ORCA run
We neither can nor want to force you to cite these papers, but we appreciate if you do
You receive ORCA, which is the product of decades of hard work by many enthusiastic individuals, for free
The only thing we kindly ask in return is that you cite our papers,
We deeply appreciate it, if you show your appreciation for ORCA by not just citing the generic ORCA reference.

Please note that relegating all ORCA citations to the supporting information does *not* help us.
SI sections are not indexed - citations you put there will not count into any citation statistics
But we need these citations in order to attract the funding resources that allow us to do what we are doing

Therefore, if you are a happy ORCA user, please consider citing a few of the papers listed below in the main body of your paper

In addition to the list printed below, the program has created the file 4.bibtex that contains the list in bibtex format
You can import this file easily into all common literature databanks and citation aid programs


List of essential papers. We consider these as the minimum necessary citations

  1. Neese, F.
     Software update: the ORCA program system, version 6.0
     WIRES Comput. Molec. Sci. 2025 15(1), e70019
     doi.org/10.1002/wcms.7019

List of papers to cite with high priority. The work reported in these papers was absolutely
necessary for this run to complete.
Our perspective: the developers of density functionals and basis sets usually get cited in chemistry papers
Good! But without the algorithms to do something with them, the functionals or basis sets would not do anything.
Hence, in our opinion, the algorithm design and method developments papers are equally worthy of getting cited

  1. Neese, F.
     The SHARK Integral Generation and Digestion System
     J. Comp. Chem. 2022 44(3), 381
     doi.org/10.1002/jcc.26942

List of suggested additional citations. These are papers that are important in the 'surrounding' of 
of this run, or papers that preceded the highly important papers. If you like your results we are grateful for a citation.

  1. Neese, F.
     The ORCA program system
     WIRES Comput. Molec. Sci. 2012 2(1), 73-78
     doi.org/10.1002/wcms.81
  2. Neese, F.
     Software update: the ORCA program system, version 4.0
     WIRES Comput. Molec. Sci. 2018 8(1), 1-6
     doi.org/10.1002/wcms.1327
  3. Neese, F.; Wennmohs, F.; Becker, U.; Riplinger, C.
     The ORCA quantum chemistry program package
     J. Chem. Phys. 2020 152(22), 224108
     doi.org/10.1063/5.0004608
  4. Neese, F.
     Software update: The ORCA program system—Version 5.0
     WIRES Comput. Molec. Sci. 2022 12(1), e1606
     doi.org/10.1002/wcms.1606

List of optional additional citations

  1. Neese, F.
     Approximate second-order SCF convergence for spin unrestricted wavefunctions
     Chem. Phys. Lett. 2000 325(1-3), 93-98
     doi.org/10.1016/s0009-2614(00)00662-x

Timings for individual modules:

Sum of individual times          ...       30.984 sec (=   0.516 min)
Startup calculation              ...        0.436 sec (=   0.007 min)   1.4 %
SCF iterations                   ...       19.051 sec (=   0.318 min)  61.5 %
Property calculations            ...        0.024 sec (=   0.000 min)   0.1 %
MP2 module                       ...       11.473 sec (=   0.191 min)  37.0 %
                             ****ORCA TERMINATED NORMALLY****
TOTAL RUN TIME: 0 days 0 hours 0 minutes 31 seconds 21 msec
