                                 *****************
                                 * O   R   C   A *
                                 *****************

                       *****************************
                       * Geometry Optimization Run *
                       *****************************

Geometry optimization settings:
Update method            Update   .... BFGS
Choice of coordinates    CoordSys .... (2022) Redundant Internals
Initial Hessian          InHess   .... Almloef's Model
Max. no of cycles        MaxIter  .... 14000

Convergence Tolerances:
Energy Change            TolE     ....  5.0000e-06 Eh
Max. Gradient            TolMAXG  ....  3.0000e-04 Eh/bohr
RMS Gradient             TolRMSG  ....  1.0000e-04 Eh/bohr
Max. Displacement        TolMAXD  ....  4.0000e-03 bohr
RMS Displacement         TolRMSD  ....  2.0000e-03 bohr
Strict Convergence                .... True

------------------------------------------------------------------------------
                        ORCA OPTIMIZATION COORDINATE SETUP
------------------------------------------------------------------------------

The optimization will be done in redundant internal coordinates (2022)
Making redundant internal coordinates   ...  (2022 redundants) done
Evaluating the initial hessian          ...  (Almloef) done
Evaluating the coordinates              ...  done
Calculating the B-matrix                .... done
Calculating the G-matrix                .... done
The number of degrees of freedom        ....   57

    -----------------------------------------------------------------
                    Redundant Internal Coordinates


    -----------------------------------------------------------------
         Definition                    Initial Value    Approx d2E/dq
    -----------------------------------------------------------------
      1. B(H   2,C   1)                  1.0887         0.361761   
      2. B(C   5,C   1)                  1.5296         0.374104   
      3. B(C   5,H   0)                  1.0995         0.347727   
      4. B(S   7,H   6)                  2.6972         0.010000   
      5. B(S   7,H   3)                  1.3333         0.397190   
      6. B(S   7,C   1)                  1.8321         0.332030   
      7. B(N   8,H   6)                  1.0157         0.423752   
      8. B(N   8,C   5)                  1.4584         0.435231   
      9. B(H   9,N   8)                  1.0152         0.424475   
     10. B(C  10,C   5)                  1.5433         0.355733   
     11. B(C  10,O   4)                  1.3264         0.706899   
     12. B(H  11,C   1)                  1.0885         0.362129   
     13. B(O  12,C  10)                  1.1960         1.141145   
     14. B(H  13,N   8)                  1.8960         0.016695   
     15. B(H  13,O   4)                  0.9839         0.476195   
     16. A(H   2,C   1,C   5)          109.2788         0.324639   
     17. A(H   2,C   1,H  11)          109.5850         0.291307   
     18. A(C   5,C   1,S   7)          112.6922         0.374973   
     19. A(H   2,C   1,S   7)          105.9352         0.334463   
     20. A(C   5,C   1,H  11)          111.1965         0.324694   
     21. A(S   7,C   1,H  11)          107.9904         0.334520   
     22. A(C  10,O   4,H  13)          107.8445         0.372882   
     23. A(C   1,C   5,N   8)          111.0014         0.370756   
     24. A(C   1,C   5,C  10)          105.9839         0.360416   
     25. A(H   0,C   5,N   8)          114.1571         0.328688   
     26. A(H   0,C   5,C  10)          108.6625         0.319892   
     27. A(N   8,C   5,C  10)          108.1229         0.367564   
     28. A(H   0,C   5,C   1)          108.5724         0.322539   
     29. A(C   1,S   7,H   3)           96.7387         0.364130   
     30. A(H   6,N   8,H   9)          107.1152         0.301320   
     31. A(C   5,N   8,H   9)          110.2728         0.336834   
     32. A(C   5,N   8,H   6)          110.2216         0.336738   
     33. A(O   4,C  10,C   5)          112.8535         0.399885   
     34. A(C   5,C  10,O  12)          123.0972         0.435477   
     35. A(O   4,C  10,O  12)          124.0182         0.490409   
     36. D(N   8,C   5,C   1,H   2)    178.2594         0.011173   
     37. D(H   0,C   5,C   1,H   2)    -55.4819         0.011173   
     38. D(N   8,C   5,C   1,S   7)    -64.2550         0.011173   
     39. D(H   0,C   5,C   1,S   7)     62.0037         0.011173   
     40. D(H   0,C   5,C   1,H  11)   -176.5818         0.011173   
     41. D(N   8,C   5,C   1,H  11)     57.1595         0.011173   
     42. D(H   3,S   7,C   1,H  11)    -34.0738         0.010000   
     43. D(H   3,S   7,C   1,C   5)     89.1451         0.010000   
     44. D(H   3,S   7,C   1,H   2)   -151.4117         0.010000   
     45. D(H   9,N   8,C   5,C   1)    164.7174         0.017309   
     46. D(H   9,N   8,C   5,H   0)     41.6179         0.017309   
     47. D(H   6,N   8,C   5,C  10)    162.5064         0.017309   
     48. D(H   6,N   8,C   5,H   0)    -76.4422         0.017309   
     49. D(H   9,N   8,C   5,C  10)    -79.4336         0.017309   
     50. D(H   6,N   8,C   5,C   1)     46.6573         0.017309   
     51. D(O  12,C  10,C   5,C   1)    -78.4185         0.010000   
     52. D(O  12,C  10,C   5,H   0)     38.0973         0.010000   
     53. D(O   4,C  10,C   5,N   8)    -19.4538         0.010000   
     54. D(O   4,C  10,C   5,C   1)     99.6251         0.010000   
     55. D(O   4,C  10,C   5,H   0)   -143.8591         0.010000   
     56. D(O  12,C  10,O   4,H  13)   -178.1844         0.037492   
     57. D(C   5,C  10,O   4,H  13)      3.7929         0.037492   
    -----------------------------------------------------------------

Number of atoms                         .... 14
Number of degrees of freedom            .... 57


         *************************************************************
         *                GEOMETRY OPTIMIZATION CYCLE   1            *
         *************************************************************
------------------------------------------------------------------------------
                         ORCA GEOMETRY RELAXATION STEP
------------------------------------------------------------------------------

Reading the OPT-File                    .... done

---------------------------------------------
FINAL SINGLE POINT ENERGY       -24.279084989030
---------------------------------------------

Getting information on internals        .... done
Copying old internal coords+grads       .... done
Making the new internal coordinates     .... (2022 redundants) done
Validating the new internal coordinates .... (2022 redundants) done
Calculating the B-matrix                .... done
Calculating the G,G- and P matrices     .... done
Transforming gradient to internals      .... done
Projecting the internal gradient        .... done
Number of atoms                         ....  14
Number of internal coordinates          ....  57
Current Energy                          ....   -24.279084989 Eh
Current gradient norm                   ....     0.000181232 Eh/bohr
Maximum allowed component of the step   ....  0.300
Current trust radius                    ....  0.300
Evaluating the initial hessian          ....  (Almloef) done
Projecting the Hessian                  .... done
Forming the augmented Hessian           .... done
Diagonalizing the augmented Hessian     .... done
Last element of RFO vector              ....  0.999998765
Lowest eigenvalues of augmented Hessian:
 -0.000000069  0.010000000  0.010568079  0.010779658  0.017101942
Length of the computed step             ....  0.001571331
The final length of the internal step   ....  0.001571331
Converting the step to Cartesian space:
 Initial RMS(Int)=    0.0002081279
Transforming coordinates:
 Iter   0:  RMS(Cart)=    0.0003344833 RMS(Int)=    0.0002081486
done
Storing new coordinates                 .... done

                                .--------------------.
          ----------------------|Geometry convergence|-------------------------
          Item                value                   Tolerance       Converged
          ---------------------------------------------------------------------
          RMS gradient        0.0000126902            0.0001000000      YES
          MAX gradient        0.0000304081            0.0003000000      YES
          RMS step            0.0002081279            0.0020000000      YES
          MAX step            0.0007060033            0.0040000000      YES
          -------------------------------------------------------------------------
          ........................................................
          Max(Bonds)      0.0004      Max(Angles)    0.01
          Max(Dihed)        0.04      Max(Improp)    0.00
          ---------------------------------------------------------------------

			-----------------------
			     GOAT ITER   1       
			-----------------------

	Minimum found after 1 optimization iterations! E = -24.279085

	No previous minimum found yet, adding first to c.goat.0.1.ensembleen.tmp.

	Number of GOAT steps per global cycle: 20

	Current MaxEn         : 42.00 kcal/mol
	Current Temperature   : 1451.98 K
	Current UphillGradComp: 1.00

Geometry step timings:
Preparation and reading OPT file:      0.000 s ( 0.485 %)
Internal coordinates            :      0.000 s ( 0.435 %)
B/P matrices and projection     :      0.001 s ( 7.591 %)
Hessian update/contruction      :      0.000 s ( 2.497 %)
Making the step                 :      0.000 s ( 4.895 %)
Converting the step to Cartesian:      0.000 s ( 0.733 %)
Storing new data                :      0.000 s ( 0.348 %)
Checking convergence            :      0.000 s ( 0.398 %)
GOAT stuff                      :      0.000 s ( 3.578 %)
Final printing                  :      0.006 s (79.028 %)
Total time                      :      0.008 s

Time for energy+gradient        :      0.089 s
Time for complete geometry iter :      0.098 s

         *************************************************************
         *                GEOMETRY OPTIMIZATION CYCLE   2            *
         *************************************************************
---------------------------------
CARTESIAN COORDINATES (ANGSTROEM)
---------------------------------
  H    -1.542641    0.446857   -0.847518
  C    -2.736092    2.119115   -0.215502
  H    -2.739741    2.537550   -1.220635
  H    -4.440664    1.368700    1.280678
  O     0.276992    2.488439    0.874904
  C    -1.519405    1.206489   -0.052904
  H    -2.365762    0.305064    1.576112
  S    -4.322710    1.220218   -0.039080
  N    -1.454870    0.656685    1.296374
  H    -0.809891   -0.126763    1.326589
  C    -0.282751    2.105101   -0.264887
  H    -2.723539    2.925621    0.515365
  O     0.100081    2.444959   -1.345825
  H    -0.205743    2.048500    1.610803

----------------------------
CARTESIAN COORDINATES (A.U.)
----------------------------
  NO LB    ZA    FRAG    MASS        X           Y           Z
   0 H   1.0000    1     1.008   -2.915169    0.844438   -1.601577
   1 C   6.0000    1    12.011   -5.170464    4.004547   -0.407241
   2 H   1.0000    1     1.008   -5.177361    4.795275   -2.306665
   3 H   1.0000    1     1.008   -8.391638    2.586468    2.420131
   4 O   8.0000    1    15.999    0.523439    4.702469    1.653330
   5 C   6.0000    1    12.011   -2.871259    2.279934   -0.099974
   6 H   1.0000    1     1.008   -4.470642    0.576488    2.978420
   7 S  16.0000    1    32.060   -8.168738    2.305877   -0.073850
   8 N   7.0000    1    14.007   -2.749306    1.240954    2.449791
   9 H   1.0000    1     1.008   -1.530472   -0.239547    2.506889
  10 C   6.0000    1    12.011   -0.534321    3.978064   -0.500564
  11 H   1.0000    1     1.008   -5.146743    5.528623    0.973899
  12 O   8.0000    1    15.999    0.189125    4.620302   -2.543241
  13 H   1.0000    1     1.008   -0.388797    3.871103    3.043977

------------------------------------------------------------------------------
                         ORCA GEOMETRY RELAXATION STEP
------------------------------------------------------------------------------

Reading the OPT-File                    .... done

---------------------------------------------
FINAL SINGLE POINT ENERGY       -24.279085037950
---------------------------------------------

Getting information on internals        .... done
Copying old internal coords+grads       .... done
Making the new internal coordinates     .... (2022 redundants) done
Validating the new internal coordinates .... (2022 redundants) done
Calculating the B-matrix                .... done
Calculating the G,G- and P matrices     .... done
Transforming gradient to internals      .... done
Projecting the internal gradient        .... done
Number of atoms                         ....  14
Number of internal coordinates          ....  57
Current Energy                          ....   -24.279085038 Eh
Current gradient norm                   ....     0.000109139 Eh/bohr
Maximum allowed component of the step   ....  0.300
Current trust radius                    ....  0.300
Updating the Hessian (BFGS)             .... done
Making initial random step              .... (random uniform) done
Converting the step to Cartesian space:
 Initial RMS(Int)=    0.0437161970
Transforming coordinates:
 Iter   0:  RMS(Cart)=    0.0540037189 RMS(Int)=    0.0358364951
 Iter   5:  RMS(Cart)=    0.0000001936 RMS(Int)=    0.0000001848
Imposing constraints:
 Iter   0:  RMS(Cart)=    0.0057359780 RMS(Int)=    0.0003263975
 Iter   5:  RMS(Cart)=    0.0000000614 RMS(Int)=    0.0000000037
CONVERGED
done
Storing new coordinates                 .... done
Current trust radius                    ....     0.3000
Energy difference                       ....     0.0000 kcal/mol
Maximum difference                      ....     0.4200 kcal/mol
New trust radius                        ....     0.4500

                                .--------------------.
          ----------------------|Geometry convergence|-------------------------
          Item                value                   Tolerance       Converged
          ---------------------------------------------------------------------
          Energy change      -0.0000000489            0.0000050000      YES
          RMS gradient        0.0000079630            0.0001000000      YES
          MAX gradient        0.0000246377            0.0003000000      YES
          RMS step            0.0437161970            0.0020000000      NO
          MAX step            0.0834837171            0.0040000000      NO
          -------------------------------------------------------------------------
          ........................................................
          Max(Bonds)      0.0350      Max(Angles)    4.78
          Max(Dihed)        4.71      Max(Improp)    0.00
          ---------------------------------------------------------------------

Geometry step timings:
Preparation and reading OPT file:      0.000 s ( 2.757 %)
Internal coordinates            :      0.000 s ( 2.910 %)
B/P matrices and projection     :      0.000 s (47.167 %)
Hessian update/contruction      :      0.000 s (17.458 %)
Making the step                 :      0.000 s ( 9.801 %)
Converting the step to Cartesian:      0.000 s (10.873 %)
Storing new data                :      0.000 s ( 1.838 %)
Checking convergence            :      0.000 s ( 3.675 %)
GOAT stuff                      :      0.000 s ( 0.153 %)
Final printing                  :      0.000 s ( 3.216 %)
Total time                      :      0.001 s

Time for energy+gradient        :      0.042 s
Time for complete geometry iter :      0.043 s

         *************************************************************
         *                GEOMETRY OPTIMIZATION CYCLE   3            *
         *************************************************************
---------------------------------
CARTESIAN COORDINATES (ANGSTROEM)
---------------------------------
  H    -1.505040    0.420655   -0.863446
  C    -2.729030    2.127715   -0.201218
  H    -2.752657    2.575084   -1.193536
  H    -4.553859    1.316274    1.255343
  O     0.299779    2.508522    0.853148
  C    -1.524998    1.192130   -0.080234
  H    -2.349701    0.338097    1.619155
  S    -4.325365    1.240505   -0.056057
  N    -1.452845    0.674429    1.281301
  H    -0.811149   -0.108389    1.359548
  C    -0.287196    2.095690   -0.262385
  H    -2.734275    2.918529    0.546688
  O     0.112462    2.431299   -1.338550
  H    -0.152862    2.015996    1.574717

----------------------------
CARTESIAN COORDINATES (A.U.)
----------------------------
  NO LB    ZA    FRAG    MASS        X           Y           Z
   0 H   1.0000    1     1.008   -2.844113    0.794922   -1.631677
   1 C   6.0000    1    12.011   -5.157120    4.020799   -0.380247
   2 H   1.0000    1     1.008   -5.201768    4.866203   -2.255456
   3 H   1.0000    1     1.008   -8.605547    2.487398    2.372255
   4 O   8.0000    1    15.999    0.566501    4.740419    1.612217
   5 C   6.0000    1    12.011   -2.881829    2.252799   -0.151621
   6 H   1.0000    1     1.008   -4.440291    0.638910    3.059759
   7 S  16.0000    1    32.060   -8.173756    2.344215   -0.105932
   8 N   7.0000    1    14.007   -2.745479    1.274486    2.421309
   9 H   1.0000    1     1.008   -1.532849   -0.204826    2.569173
  10 C   6.0000    1    12.011   -0.542722    3.960279   -0.495835
  11 H   1.0000    1     1.008   -5.167031    5.515221    1.033090
  12 O   8.0000    1    15.999    0.212522    4.594489   -2.529492
  13 H   1.0000    1     1.008   -0.288867    3.809680    2.975783

------------------------------------------------------------------------------
                         ORCA GEOMETRY RELAXATION STEP
------------------------------------------------------------------------------

Reading the OPT-File                    .... done

---------------------------------------------
FINAL SINGLE POINT ENERGY       -24.276507776960
---------------------------------------------

Getting information on internals        .... done
Copying old internal coords+grads       .... done
Making the new internal coordinates     .... (2022 redundants) done
Validating the new internal coordinates .... (2022 redundants) done
Calculating the B-matrix                .... done
Calculating the G,G- and P matrices     .... done
Transforming gradient to internals      .... done
Projecting the internal gradient        .... done
Number of atoms                         ....  14
Number of internal coordinates          ....  57
Current Energy                          ....   -24.276507777 Eh
Current gradient norm                   ....     0.030242107 Eh/bohr
Maximum allowed component of the step   ....  0.300
Current trust radius                    ....  0.450
Updating the Hessian (BFGS)             .... done
Making uphill step                      .... done
Uphill step size                        .... 0.449562
Converting the step to Cartesian space:
 Initial RMS(Int)=    0.0595459337
Transforming coordinates:
 Iter   0:  RMS(Cart)=    0.0870377346 RMS(Int)=    0.8240031065
 Iter   5:  RMS(Cart)=    0.0000001616 RMS(Int)=    0.0000001423
Imposing constraints:
 Iter   0:  RMS(Cart)=    0.0006535897 RMS(Int)=    0.0000413876
CONVERGED
done
Storing new coordinates                 .... done
Current trust radius                    ....     0.4500
Energy difference                       ....     1.6173 kcal/mol
Maximum difference                      ....     0.4200 kcal/mol
New trust radius                        ....     0.3000

                                .--------------------.
          ----------------------|Geometry convergence|-------------------------
          Item                value                   Tolerance       Converged
          ---------------------------------------------------------------------
          Energy change       0.0025772610            0.0000050000      NO
          RMS gradient        0.0037094821            0.0001000000      NO
          MAX gradient        0.0120523054            0.0003000000      NO
          RMS step            0.0595459337            0.0020000000      NO
          MAX step            0.2469655638            0.0040000000      NO
          -------------------------------------------------------------------------
          ........................................................
          Max(Bonds)      0.1307      Max(Angles)    3.17
          Max(Dihed)        7.50      Max(Improp)    0.00
          ---------------------------------------------------------------------

Geometry step timings:
Preparation and reading OPT file:      0.000 s ( 2.033 %)
Internal coordinates            :      0.000 s ( 1.819 %)
B/P matrices and projection     :      0.001 s (33.119 %)
Hessian update/contruction      :      0.000 s (12.948 %)
Making the step                 :      0.001 s (36.597 %)
Converting the step to Cartesian:      0.000 s ( 7.116 %)
Storing new data                :      0.000 s ( 1.284 %)
Checking convergence            :      0.000 s ( 2.354 %)
GOAT stuff                      :      0.000 s ( 0.054 %)
Final printing                  :      0.000 s ( 2.622 %)
Total time                      :      0.002 s

Time for energy+gradient        :      0.032 s
Time for complete geometry iter :      0.035 s

         *************************************************************
         *                GEOMETRY OPTIMIZATION CYCLE   4            *
         *************************************************************
---------------------------------
CARTESIAN COORDINATES (ANGSTROEM)
---------------------------------
  H    -1.487371    0.396341   -0.845095
  C    -2.729819    2.130967   -0.160111
  H    -2.727641    2.648705   -1.117887
  H    -4.665946    1.291547    1.148344
  O     0.281775    2.540122    0.813142
  C    -1.534563    1.180254   -0.075519
  H    -2.302399    0.402510    1.695365
  S    -4.339810    1.256800   -0.143999
  N    -1.414270    0.683121    1.290273
  H    -0.791080   -0.114224    1.371367
  C    -0.306345    2.090382   -0.287418
  H    -2.758187    2.867832    0.640516
  O     0.103024    2.380137   -1.373213
  H    -0.094105    1.992040    1.538709

----------------------------
CARTESIAN COORDINATES (A.U.)
----------------------------
  NO LB    ZA    FRAG    MASS        X           Y           Z
   0 H   1.0000    1     1.008   -2.810723    0.748977   -1.596998
   1 C   6.0000    1    12.011   -5.158611    4.026945   -0.302565
   2 H   1.0000    1     1.008   -5.154494    5.005327   -2.112500
   3 H   1.0000    1     1.008   -8.817360    2.440670    2.170056
   4 O   8.0000    1    15.999    0.532478    4.800135    1.536616
   5 C   6.0000    1    12.011   -2.899903    2.230356   -0.142710
   6 H   1.0000    1     1.008   -4.350903    0.760634    3.203776
   7 S  16.0000    1    32.060   -8.201053    2.375009   -0.272118
   8 N   7.0000    1    14.007   -2.672583    1.290911    2.438263
   9 H   1.0000    1     1.008   -1.494924   -0.215852    2.591508
  10 C   6.0000    1    12.011   -0.578908    3.950250   -0.543142
  11 H   1.0000    1     1.008   -5.212217    5.419418    1.210399
  12 O   8.0000    1    15.999    0.194686    4.497808   -2.594997
  13 H   1.0000    1     1.008   -0.177832    3.764410    2.907738

------------------------------------------------------------------------------
                         ORCA GEOMETRY RELAXATION STEP
------------------------------------------------------------------------------

Reading the OPT-File                    .... done

---------------------------------------------
FINAL SINGLE POINT ENERGY       -24.273965279690
---------------------------------------------

Getting information on internals        .... done
Copying old internal coords+grads       .... done
Making the new internal coordinates     .... (2022 redundants) done
Validating the new internal coordinates .... (2022 redundants) done
Calculating the B-matrix                .... done
Calculating the G,G- and P matrices     .... done
Transforming gradient to internals      .... done
Projecting the internal gradient        .... done
Number of atoms                         ....  14
Number of internal coordinates          ....  57
Current Energy                          ....   -24.273965280 Eh
Current gradient norm                   ....     0.037235295 Eh/bohr
Maximum allowed component of the step   ....  0.300
Current trust radius                    ....  0.300
Updating the Hessian (BFGS)             .... done
Making uphill step                      .... done
Uphill step size                        .... 0.299636
Converting the step to Cartesian space:
 Initial RMS(Int)=    0.0396878109
Transforming coordinates:
 Iter   0:  RMS(Cart)=    0.0570928155 RMS(Int)=    0.0398486751
 Iter   5:  RMS(Cart)=    0.0000000111 RMS(Int)=    0.0000000084
Imposing constraints:
 Iter   0:  RMS(Cart)=    0.0003072107 RMS(Int)=    0.0000197468
CONVERGED
done
Storing new coordinates                 .... done
Current trust radius                    ....     0.3000
Energy difference                       ....     1.5954 kcal/mol
Maximum difference                      ....     0.4200 kcal/mol
New trust radius                        ....     0.3000

                                .--------------------.
          ----------------------|Geometry convergence|-------------------------
          Item                value                   Tolerance       Converged
          ---------------------------------------------------------------------
          Energy change       0.0025424973            0.0000050000      NO
          RMS gradient        0.0043657691            0.0001000000      NO
          MAX gradient        0.0142377710            0.0003000000      NO
          RMS step            0.0396878109            0.0020000000      NO
          MAX step            0.1726701388            0.0040000000      NO
          -------------------------------------------------------------------------
          ........................................................
          Max(Bonds)      0.0914      Max(Angles)    2.01
          Max(Dihed)        4.45      Max(Improp)    0.00
          ---------------------------------------------------------------------

Geometry step timings:
Preparation and reading OPT file:      0.000 s ( 1.763 %)
Internal coordinates            :      0.000 s ( 1.582 %)
B/P matrices and projection     :      0.001 s (30.199 %)
Hessian update/contruction      :      0.000 s (13.517 %)
Making the step                 :      0.001 s (38.110 %)
Converting the step to Cartesian:      0.000 s ( 7.731 %)
Storing new data                :      0.000 s ( 1.447 %)
Checking convergence            :      0.000 s ( 2.170 %)
GOAT stuff                      :      0.000 s ( 0.045 %)
Final printing                  :      0.000 s ( 3.436 %)
Total time                      :      0.002 s

Time for energy+gradient        :      0.027 s
Time for complete geometry iter :      0.031 s

         *************************************************************
         *                GEOMETRY OPTIMIZATION CYCLE   5            *
         *************************************************************
---------------------------------
CARTESIAN COORDINATES (ANGSTROEM)
---------------------------------
  H    -1.499735    0.390497   -0.823247
  C    -2.732335    2.129391   -0.133720
  H    -2.696230    2.693625   -1.064165
  H    -4.693227    1.294692    1.072513
  O     0.254124    2.557900    0.789233
  C    -1.537666    1.177340   -0.056154
  H    -2.268392    0.443269    1.742820
  S    -4.343410    1.260744   -0.213643
  N    -1.382610    0.681264    1.306515
  H    -0.782445   -0.135739    1.361374
  C    -0.317246    2.086876   -0.311248
  H    -2.771736    2.822496    0.704630
  O     0.085166    2.343899   -1.407830
  H    -0.080994    2.000282    1.527396

----------------------------
CARTESIAN COORDINATES (A.U.)
----------------------------
  NO LB    ZA    FRAG    MASS        X           Y           Z
   0 H   1.0000    1     1.008   -2.834089    0.737932   -1.555712
   1 C   6.0000    1    12.011   -5.163364    4.023966   -0.252694
   2 H   1.0000    1     1.008   -5.095136    5.090214   -2.010981
   3 H   1.0000    1     1.008   -8.868913    2.446613    2.026756
   4 O   8.0000    1    15.999    0.480224    4.833731    1.491433
   5 C   6.0000    1    12.011   -2.905769    2.224850   -0.106115
   6 H   1.0000    1     1.008   -4.286640    0.837657    3.293453
   7 S  16.0000    1    32.060   -8.207855    2.382460   -0.403726
   8 N   7.0000    1    14.007   -2.612754    1.287402    2.468955
   9 H   1.0000    1     1.008   -1.478607   -0.256510    2.572624
  10 C   6.0000    1    12.011   -0.599509    3.943623   -0.588173
  11 H   1.0000    1     1.008   -5.237822    5.333745    1.331557
  12 O   8.0000    1    15.999    0.160941    4.429327   -2.660414
  13 H   1.0000    1     1.008   -0.153056    3.779986    2.886360

------------------------------------------------------------------------------
                         ORCA GEOMETRY RELAXATION STEP
------------------------------------------------------------------------------

Reading the OPT-File                    .... done

---------------------------------------------
FINAL SINGLE POINT ENERGY       -24.274574108090
---------------------------------------------

Getting information on internals        .... done
Copying old internal coords+grads       .... done
Making the new internal coordinates     .... (2022 redundants) done
Validating the new internal coordinates .... (2022 redundants) done
Calculating the B-matrix                .... done
Calculating the G,G- and P matrices     .... done
Transforming gradient to internals      .... done
Projecting the internal gradient        .... done
Number of atoms                         ....  14
Number of internal coordinates          ....  57
Current Energy                          ....   -24.274574108 Eh
Current gradient norm                   ....     0.028340020 Eh/bohr
Maximum allowed component of the step   ....  0.300
Current trust radius                    ....  0.300
Updating the Hessian (BFGS)             .... done
Making uphill step                      .... done
Uphill step size                        .... 0.299421
Converting the step to Cartesian space:
 Initial RMS(Int)=    0.0396593373
Transforming coordinates:
 Iter   0:  RMS(Cart)=    0.0583444285 RMS(Int)=    0.0397545041
 Iter   5:  RMS(Cart)=    0.0000000209 RMS(Int)=    0.0000000163
Imposing constraints:
 Iter   0:  RMS(Cart)=    0.0002567395 RMS(Int)=    0.0000166131
CONVERGED
done
Storing new coordinates                 .... done
Current trust radius                    ....     0.3000
Energy difference                       ....     0.3820 kcal/mol
Maximum difference                      ....     0.4200 kcal/mol
New trust radius                        ....     0.4500

                                .--------------------.
          ----------------------|Geometry convergence|-------------------------
          Item                value                   Tolerance       Converged
          ---------------------------------------------------------------------
          Energy change      -0.0006088284            0.0000050000      NO
          RMS gradient        0.0031648702            0.0001000000      NO
          MAX gradient        0.0094184207            0.0003000000      NO
          RMS step            0.0396593373            0.0020000000      NO
          MAX step            0.1707956725            0.0040000000      NO
          -------------------------------------------------------------------------
          ........................................................
          Max(Bonds)      0.0904      Max(Angles)    2.20
          Max(Dihed)        4.77      Max(Improp)    0.00
          ---------------------------------------------------------------------

Geometry step timings:
Preparation and reading OPT file:      0.000 s ( 2.221 %)
Internal coordinates            :      0.000 s ( 1.728 %)
B/P matrices and projection     :      0.001 s (32.527 %)
Hessian update/contruction      :      0.000 s (13.376 %)
Making the step                 :      0.001 s (35.094 %)
Converting the step to Cartesian:      0.000 s ( 8.193 %)
Storing new data                :      0.000 s ( 1.481 %)
Checking convergence            :      0.000 s ( 2.369 %)
GOAT stuff                      :      0.000 s ( 0.049 %)
Final printing                  :      0.000 s ( 2.912 %)
Total time                      :      0.002 s

Time for energy+gradient        :      0.028 s
Time for complete geometry iter :      0.031 s

         *************************************************************
         *                GEOMETRY OPTIMIZATION CYCLE   6            *
         *************************************************************
---------------------------------
CARTESIAN COORDINATES (ANGSTROEM)
---------------------------------
  H    -1.533669    0.391902   -0.801992
  C    -2.734092    2.127238   -0.109607
  H    -2.661064    2.737887   -1.008031
  H    -4.705289    1.292008    0.998716
  O     0.236434    2.573268    0.763668
  C    -1.537227    1.177866   -0.033071
  H    -2.231282    0.485417    1.791446
  S    -4.339206    1.261184   -0.282984
  N    -1.350273    0.678717    1.324463
  H    -0.787793   -0.166264    1.342468
  C    -0.320863    2.078862   -0.333769
  H    -2.784988    2.771584    0.766181
  O     0.068438    2.306153   -1.441593
  H    -0.085861    2.030713    1.518577

----------------------------
CARTESIAN COORDINATES (A.U.)
----------------------------
  NO LB    ZA    FRAG    MASS        X           Y           Z
   0 H   1.0000    1     1.008   -2.898215    0.740587   -1.515545
   1 C   6.0000    1    12.011   -5.166685    4.019896   -0.207127
   2 H   1.0000    1     1.008   -5.028682    5.173857   -1.904903
   3 H   1.0000    1     1.008   -8.891708    2.441542    1.887299
   4 O   8.0000    1    15.999    0.446795    4.862771    1.443124
   5 C   6.0000    1    12.011   -2.904937    2.225844   -0.062494
   6 H   1.0000    1     1.008   -4.216513    0.917305    3.385343
   7 S  16.0000    1    32.060   -8.199910    2.383292   -0.534762
   8 N   7.0000    1    14.007   -2.551647    1.282589    2.502873
   9 H   1.0000    1     1.008   -1.488712   -0.314193    2.536897
  10 C   6.0000    1    12.011   -0.606343    3.928480   -0.630731
  11 H   1.0000    1     1.008   -5.262865    5.237535    1.447872
  12 O   8.0000    1    15.999    0.129329    4.357997   -2.724216
  13 H   1.0000    1     1.008   -0.162253    3.837492    2.869695

------------------------------------------------------------------------------
                         ORCA GEOMETRY RELAXATION STEP
------------------------------------------------------------------------------

Reading the OPT-File                    .... done

---------------------------------------------
FINAL SINGLE POINT ENERGY       -24.275310002000
---------------------------------------------

Getting information on internals        .... done
Copying old internal coords+grads       .... done
Making the new internal coordinates     .... (2022 redundants) done
Validating the new internal coordinates .... (2022 redundants) done
Calculating the B-matrix                .... done
Calculating the G,G- and P matrices     .... done
Transforming gradient to internals      .... done
Projecting the internal gradient        .... done
Number of atoms                         ....  14
Number of internal coordinates          ....  57
Current Energy                          ....   -24.275310002 Eh
Current gradient norm                   ....     0.019290084 Eh/bohr
Maximum allowed component of the step   ....  0.300
Current trust radius                    ....  0.450
Updating the Hessian (BFGS)             .... done
Making uphill step                      .... done
Uphill step size                        .... 0.449548
Converting the step to Cartesian space:
 Initial RMS(Int)=    0.0595441300
Transforming coordinates:
 Iter   0:  RMS(Cart)=    0.0921471695 RMS(Int)=    0.0597968730
 Iter   5:  RMS(Cart)=    0.0000002744 RMS(Int)=    0.0000002045
Imposing constraints:
 Iter   0:  RMS(Cart)=    0.0004356559 RMS(Int)=    0.0000321255
CONVERGED
done
Storing new coordinates                 .... done
Current trust radius                    ....     0.4500
Energy difference                       ....     0.4618 kcal/mol
Maximum difference                      ....     0.4200 kcal/mol
New trust radius                        ....     0.3000

                                .--------------------.
          ----------------------|Geometry convergence|-------------------------
          Item                value                   Tolerance       Converged
          ---------------------------------------------------------------------
          Energy change      -0.0007358939            0.0000050000      NO
          RMS gradient        0.0021446462            0.0001000000      NO
          MAX gradient        0.0058081267            0.0003000000      NO
          RMS step            0.0595441300            0.0020000000      NO
          MAX step            0.2582354580            0.0040000000      NO
          -------------------------------------------------------------------------
          ........................................................
          Max(Bonds)      0.1367      Max(Angles)    2.40
          Max(Dihed)        7.81      Max(Improp)    0.00
          ---------------------------------------------------------------------

Geometry step timings:
Preparation and reading OPT file:      0.000 s ( 2.033 %)
Internal coordinates            :      0.000 s ( 1.626 %)
B/P matrices and projection     :      0.000 s (31.707 %)
Hessian update/contruction      :      0.000 s (13.720 %)
Making the step                 :      0.000 s (38.415 %)
Converting the step to Cartesian:      0.000 s ( 6.504 %)
Storing new data                :      0.000 s ( 1.220 %)
Checking convergence            :      0.000 s ( 2.236 %)
GOAT stuff                      :      0.000 s ( 0.102 %)
Final printing                  :      0.000 s ( 2.439 %)
Total time                      :      0.001 s

Time for energy+gradient        :      0.021 s
Time for complete geometry iter :      0.023 s

         *************************************************************
         *                GEOMETRY OPTIMIZATION CYCLE   7            *
         *************************************************************
---------------------------------
CARTESIAN COORDINATES (ANGSTROEM)
---------------------------------
  H    -1.591240    0.392755   -0.771560
  C    -2.734788    2.126277   -0.069696
  H    -2.615048    2.810616   -0.907989
  H    -4.744248    1.259947    0.878278
  O     0.240077    2.587820    0.716106
  C    -1.535451    1.179141   -0.005089
  H    -2.170456    0.558159    1.864938
  S    -4.322905    1.269591   -0.386671
  N    -1.305732    0.683046    1.346990
  H    -0.810387   -0.202972    1.329496
  C    -0.320672    2.060675   -0.364201
  H    -2.816575    2.690286    0.857655
  O     0.044423    2.252969   -1.486797
  H    -0.083734    2.078225    1.493014

----------------------------
CARTESIAN COORDINATES (A.U.)
----------------------------
  NO LB    ZA    FRAG    MASS        X           Y           Z
   0 H   1.0000    1     1.008   -3.007009    0.742200   -1.458038
   1 C   6.0000    1    12.011   -5.168000    4.018081   -0.131707
   2 H   1.0000    1     1.008   -4.941725    5.311295   -1.715850
   3 H   1.0000    1     1.008   -8.965330    2.380955    1.659706
   4 O   8.0000    1    15.999    0.453680    4.890271    1.353244
   5 C   6.0000    1    12.011   -2.901582    2.228253   -0.009617
   6 H   1.0000    1     1.008   -4.101567    1.054767    3.524223
   7 S  16.0000    1    32.060   -8.169106    2.399179   -0.730703
   8 N   7.0000    1    14.007   -2.467476    1.290770    2.545443
   9 H   1.0000    1     1.008   -1.531409   -0.383561    2.512383
  10 C   6.0000    1    12.011   -0.605981    3.894112   -0.688241
  11 H   1.0000    1     1.008   -5.322556    5.083905    1.620734
  12 O   8.0000    1    15.999    0.083948    4.257493   -2.809638
  13 H   1.0000    1     1.008   -0.158234    3.927277    2.821388

------------------------------------------------------------------------------
                         ORCA GEOMETRY RELAXATION STEP
------------------------------------------------------------------------------

Reading the OPT-File                    .... done

---------------------------------------------
FINAL SINGLE POINT ENERGY       -24.274999361210
---------------------------------------------

Getting information on internals        .... done
Copying old internal coords+grads       .... done
Making the new internal coordinates     .... (2022 redundants) done
Validating the new internal coordinates .... (2022 redundants) done
Calculating the B-matrix                .... done
Calculating the G,G- and P matrices     .... done
Transforming gradient to internals      .... done
Projecting the internal gradient        .... done
Number of atoms                         ....  14
Number of internal coordinates          ....  57
Current Energy                          ....   -24.274999361 Eh
Current gradient norm                   ....     0.014556108 Eh/bohr
Maximum allowed component of the step   ....  0.300
Current trust radius                    ....  0.300
Updating the Hessian (BFGS)             .... done
Making uphill step                      .... done
Uphill step size                        .... 0.299448
Converting the step to Cartesian space:
 Initial RMS(Int)=    0.0396628758
Transforming coordinates:
 Iter   0:  RMS(Cart)=    0.0642561491 RMS(Int)=    0.0397567826
 Iter   5:  RMS(Cart)=    0.0000000226 RMS(Int)=    0.0000000169
Imposing constraints:
 Iter   0:  RMS(Cart)=    0.0002003558 RMS(Int)=    0.0000133770
CONVERGED
done
Storing new coordinates                 .... done
Current trust radius                    ....     0.3000
Energy difference                       ....     0.1949 kcal/mol
Maximum difference                      ....     0.4200 kcal/mol
New trust radius                        ....     0.4500

                                .--------------------.
          ----------------------|Geometry convergence|-------------------------
          Item                value                   Tolerance       Converged
          ---------------------------------------------------------------------
          Energy change       0.0003106408            0.0000050000      NO
          RMS gradient        0.0017955304            0.0001000000      NO
          MAX gradient        0.0055376901            0.0003000000      NO
          RMS step            0.0396628758            0.0020000000      NO
          MAX step            0.1729774911            0.0040000000      NO
          -------------------------------------------------------------------------
          ........................................................
          Max(Bonds)      0.0915      Max(Angles)    1.96
          Max(Dihed)        5.63      Max(Improp)    0.00
          ---------------------------------------------------------------------

Geometry step timings:
Preparation and reading OPT file:      0.000 s ( 2.345 %)
Internal coordinates            :      0.000 s ( 1.812 %)
B/P matrices and projection     :      0.001 s (34.542 %)
Hessian update/contruction      :      0.000 s (15.299 %)
Making the step                 :      0.001 s (32.836 %)
Converting the step to Cartesian:      0.000 s ( 6.930 %)
Storing new data                :      0.000 s ( 1.386 %)
Checking convergence            :      0.000 s ( 1.919 %)
GOAT stuff                      :      0.000 s ( 0.053 %)
Final printing                  :      0.000 s ( 2.772 %)
Total time                      :      0.002 s

Time for energy+gradient        :      0.028 s
Time for complete geometry iter :      0.031 s

         *************************************************************
         *                GEOMETRY OPTIMIZATION CYCLE   8            *
         *************************************************************
---------------------------------
CARTESIAN COORDINATES (ANGSTROEM)
---------------------------------
  H    -1.636653    0.396523   -0.746241
  C    -2.737177    2.126963   -0.043562
  H    -2.592206    2.858933   -0.836402
  H    -4.777601    1.220571    0.789931
  O     0.271239    2.582993    0.679935
  C    -1.533678    1.184636    0.013540
  H    -2.129503    0.608721    1.913521
  S    -4.306822    1.277008   -0.456224
  N    -1.280300    0.691663    1.362531
  H    -0.833102   -0.219278    1.332498
  C    -0.317216    2.048201   -0.381717
  H    -2.850544    2.638060    0.910747
  O     0.022070    2.228390   -1.514372
  H    -0.065240    2.103150    1.470289

----------------------------
CARTESIAN COORDINATES (A.U.)
----------------------------
  NO LB    ZA    FRAG    MASS        X           Y           Z
   0 H   1.0000    1     1.008   -3.092827    0.749320   -1.410192
   1 C   6.0000    1    12.011   -5.172515    4.019378   -0.082320
   2 H   1.0000    1     1.008   -4.898559    5.402601   -1.580570
   3 H   1.0000    1     1.008   -9.028358    2.306546    1.492754
   4 O   8.0000    1    15.999    0.512567    4.881149    1.284890
   5 C   6.0000    1    12.011   -2.898232    2.238637    0.025586
   6 H   1.0000    1     1.008   -4.024178    1.150316    3.616030
   7 S  16.0000    1    32.060   -8.138714    2.413196   -0.862138
   8 N   7.0000    1    14.007   -2.419417    1.307054    2.574810
   9 H   1.0000    1     1.008   -1.574336   -0.414375    2.518057
  10 C   6.0000    1    12.011   -0.599451    3.870539   -0.721340
  11 H   1.0000    1     1.008   -5.386748    4.985212    1.721062
  12 O   8.0000    1    15.999    0.041707    4.211047   -2.861748
  13 H   1.0000    1     1.008   -0.123285    3.974377    2.778443

------------------------------------------------------------------------------
                         ORCA GEOMETRY RELAXATION STEP
------------------------------------------------------------------------------

Reading the OPT-File                    .... done

---------------------------------------------
FINAL SINGLE POINT ENERGY       -24.274702993920
---------------------------------------------

Getting information on internals        .... done
Copying old internal coords+grads       .... done
Making the new internal coordinates     .... (2022 redundants) done
Validating the new internal coordinates .... (2022 redundants) done
Calculating the B-matrix                .... done
Calculating the G,G- and P matrices     .... done
Transforming gradient to internals      .... done
Projecting the internal gradient        .... done
Number of atoms                         ....  14
Number of internal coordinates          ....  57
Current Energy                          ....   -24.274702994 Eh
Current gradient norm                   ....     0.011662805 Eh/bohr
Maximum allowed component of the step   ....  0.300
Current trust radius                    ....  0.450
Updating the Hessian (BFGS)             .... done
Making uphill step                      .... done
Uphill step size                        .... 0.449598
Converting the step to Cartesian space:
 Initial RMS(Int)=    0.0595507000
Transforming coordinates:
 Iter   0:  RMS(Cart)=    0.0997333149 RMS(Int)=    0.0598443603
 Iter   5:  RMS(Cart)=    0.0000002231 RMS(Int)=    0.0000001682
Imposing constraints:
 Iter   0:  RMS(Cart)=    0.0001548090 RMS(Int)=    0.0000109219
CONVERGED
done
Storing new coordinates                 .... done
Current trust radius                    ....     0.4500
Energy difference                       ....     0.1860 kcal/mol
Maximum difference                      ....     0.4200 kcal/mol
New trust radius                        ....     0.6750

                                .--------------------.
          ----------------------|Geometry convergence|-------------------------
          Item                value                   Tolerance       Converged
          ---------------------------------------------------------------------
          Energy change       0.0002963673            0.0000050000      NO
          RMS gradient        0.0014868603            0.0001000000      NO
          MAX gradient        0.0045233924            0.0003000000      NO
          RMS step            0.0595507000            0.0020000000      NO
          MAX step            0.2726123321            0.0040000000      NO
          -------------------------------------------------------------------------
          ........................................................
          Max(Bonds)      0.1443      Max(Angles)    1.72
          Max(Dihed)        8.15      Max(Improp)    0.00
          ---------------------------------------------------------------------

Geometry step timings:
Preparation and reading OPT file:      0.000 s ( 1.681 %)
Internal coordinates            :      0.000 s ( 1.448 %)
B/P matrices and projection     :      0.001 s (31.294 %)
Hessian update/contruction      :      0.000 s (13.405 %)
Making the step                 :      0.001 s (35.497 %)
Converting the step to Cartesian:      0.000 s ( 7.753 %)
Storing new data                :      0.000 s ( 1.495 %)
Checking convergence            :      0.000 s ( 3.083 %)
GOAT stuff                      :      0.000 s ( 0.047 %)
Final printing                  :      0.000 s ( 4.297 %)
Total time                      :      0.002 s

Time for energy+gradient        :      0.029 s
Time for complete geometry iter :      0.032 s

         *************************************************************
         *                GEOMETRY OPTIMIZATION CYCLE   9            *
         *************************************************************
---------------------------------
CARTESIAN COORDINATES (ANGSTROEM)
---------------------------------
  H    -1.688787    0.393997   -0.702207
  C    -2.743010    2.127734   -0.004202
  H    -2.567109    2.926267   -0.723088
  H    -4.829261    1.158778    0.642989
  O     0.323163    2.562728    0.623663
  C    -1.534842    1.190695    0.039795
  H    -2.066394    0.688984    1.985837
  S    -4.279715    1.301677   -0.563369
  N    -1.246543    0.711416    1.386708
  H    -0.861218   -0.227401    1.357579
  C    -0.319736    2.030566   -0.407292
  H    -2.912178    2.559595    0.980509
  O    -0.032221    2.211681   -1.554037
  H    -0.008885    2.109819    1.431589

----------------------------
CARTESIAN COORDINATES (A.U.)
----------------------------
  NO LB    ZA    FRAG    MASS        X           Y           Z
   0 H   1.0000    1     1.008   -3.191345    0.744547   -1.326979
   1 C   6.0000    1    12.011   -5.183539    4.020835   -0.007941
   2 H   1.0000    1     1.008   -4.851133    5.529843   -1.366438
   3 H   1.0000    1     1.008   -9.125980    2.189773    1.215073
   4 O   8.0000    1    15.999    0.610690    4.842854    1.178552
   5 C   6.0000    1    12.011   -2.900431    2.250087    0.075202
   6 H   1.0000    1     1.008   -3.904920    1.301990    3.752689
   7 S  16.0000    1    32.060   -8.087489    2.459812   -1.064614
   8 N   7.0000    1    14.007   -2.355626    1.344382    2.620499
   9 H   1.0000    1     1.008   -1.627466   -0.429725    2.565452
  10 C   6.0000    1    12.011   -0.604213    3.837213   -0.769671
  11 H   1.0000    1     1.008   -5.503218    4.836934    1.852893
  12 O   8.0000    1    15.999   -0.060889    4.179471   -2.936704
  13 H   1.0000    1     1.008   -0.016790    3.986980    2.705311

------------------------------------------------------------------------------
                         ORCA GEOMETRY RELAXATION STEP
------------------------------------------------------------------------------

Reading the OPT-File                    .... done

---------------------------------------------
FINAL SINGLE POINT ENERGY       -24.273747145040
---------------------------------------------

Getting information on internals        .... done
Copying old internal coords+grads       .... done
Making the new internal coordinates     .... (2022 redundants) done
Validating the new internal coordinates .... (2022 redundants) done
Calculating the B-matrix                .... done
Calculating the G,G- and P matrices     .... done
Transforming gradient to internals      .... done
Projecting the internal gradient        .... done
Number of atoms                         ....  14
Number of internal coordinates          ....  57
Current Energy                          ....   -24.273747145 Eh
Current gradient norm                   ....     0.010738954 Eh/bohr
Maximum allowed component of the step   ....  0.300
Current trust radius                    ....  0.675
Updating the Hessian (BFGS)             .... done
Making uphill step                      .... done
Uphill step size                        .... 0.604560
Converting the step to Cartesian space:
 Initial RMS(Int)=    0.0800759017
Transforming coordinates:
 Iter   0:  RMS(Cart)=    0.1466905492 RMS(Int)=    0.0804469254
 Iter   5:  RMS(Cart)=    0.0000023799 RMS(Int)=    0.0000017777
Imposing constraints:
 Iter   0:  RMS(Cart)=    0.0022775547 RMS(Int)=    0.0002286362
 Iter   5:  RMS(Cart)=    0.0000002177 RMS(Int)=    0.0000000213
CONVERGED
done
Storing new coordinates                 .... done
Current trust radius                    ....     0.6750
Energy difference                       ....     0.5998 kcal/mol
Maximum difference                      ....     0.4200 kcal/mol
New trust radius                        ....     0.4500

                                .--------------------.
          ----------------------|Geometry convergence|-------------------------
          Item                value                   Tolerance       Converged
          ---------------------------------------------------------------------
          Energy change       0.0009558489            0.0000050000      NO
          RMS gradient        0.0013120995            0.0001000000      NO
          MAX gradient        0.0039931420            0.0003000000      NO
          RMS step            0.0800759017            0.0020000000      NO
          MAX step            0.3000000000            0.0040000000      NO
          -------------------------------------------------------------------------
          ........................................................
          Max(Bonds)      0.1588      Max(Angles)    1.38
          Max(Dihed)       11.79      Max(Improp)    0.00
          ---------------------------------------------------------------------

Geometry step timings:
Preparation and reading OPT file:      0.000 s ( 1.837 %)
Internal coordinates            :      0.000 s ( 1.633 %)
B/P matrices and projection     :      0.001 s (30.408 %)
Hessian update/contruction      :      0.000 s (11.939 %)
Making the step                 :      0.001 s (38.469 %)
Converting the step to Cartesian:      0.000 s ( 8.878 %)
Storing new data                :      0.000 s ( 1.224 %)
Checking convergence            :      0.000 s ( 2.398 %)
GOAT stuff                      :      0.000 s ( 0.051 %)
Final printing                  :      0.000 s ( 3.163 %)
Total time                      :      0.002 s

Time for energy+gradient        :      0.035 s
Time for complete geometry iter :      0.038 s

         *************************************************************
         *                GEOMETRY OPTIMIZATION CYCLE  10            *
         *************************************************************
---------------------------------
CARTESIAN COORDINATES (ANGSTROEM)
---------------------------------
  H    -1.743800    0.387766   -0.634736
  C    -2.755283    2.130667    0.057040
  H    -2.549485    3.018939   -0.537949
  H    -4.867400    1.057925    0.425710
  O     0.402718    2.513545    0.536075
  C    -1.539461    1.202702    0.074572
  H    -1.995705    0.818322    2.061973
  S    -4.226887    1.350884   -0.706385
  N    -1.210780    0.749040    1.421108
  H    -0.906275   -0.219438    1.415609
  C    -0.332868    2.011405   -0.446855
  H    -3.009988    2.438367    1.069573
  O    -0.117585    2.191723   -1.609451
  H     0.086063    2.094687    1.368190

----------------------------
CARTESIAN COORDINATES (A.U.)
----------------------------
  NO LB    ZA    FRAG    MASS        X           Y           Z
   0 H   1.0000    1     1.008   -3.295304    0.732772   -1.199477
   1 C   6.0000    1    12.011   -5.206730    4.026377    0.107790
   2 H   1.0000    1     1.008   -4.817829    5.704968   -1.016577
   3 H   1.0000    1     1.008   -9.198054    1.999189    0.804476
   4 O   8.0000    1    15.999    0.761027    4.749912    1.013035
   5 C   6.0000    1    12.011   -2.909159    2.272777    0.140921
   6 H   1.0000    1     1.008   -3.771335    1.546404    3.896564
   7 S  16.0000    1    32.060   -7.987659    2.552800   -1.334874
   8 N   7.0000    1    14.007   -2.288042    1.415480    2.685505
   9 H   1.0000    1     1.008   -1.712612   -0.414677    2.675114
  10 C   6.0000    1    12.011   -0.629029    3.801004   -0.844434
  11 H   1.0000    1     1.008   -5.688053    4.607846    2.021200
  12 O   8.0000    1    15.999   -0.222203    4.141757   -3.041422
  13 H   1.0000    1     1.008    0.162636    3.958385    2.585504

------------------------------------------------------------------------------
                         ORCA GEOMETRY RELAXATION STEP
------------------------------------------------------------------------------

Reading the OPT-File                    .... done

---------------------------------------------
FINAL SINGLE POINT ENERGY       -24.272366836300
---------------------------------------------

Getting information on internals        .... done
Copying old internal coords+grads       .... done
Making the new internal coordinates     .... (2022 redundants) done
Validating the new internal coordinates .... (2022 redundants) done
Calculating the B-matrix                .... done
Calculating the G,G- and P matrices     .... done
Transforming gradient to internals      .... done
Projecting the internal gradient        .... done
Number of atoms                         ....  14
Number of internal coordinates          ....  57
Current Energy                          ....   -24.272366836 Eh
Current gradient norm                   ....     0.011001427 Eh/bohr
Maximum allowed component of the step   ....  0.300
Current trust radius                    ....  0.450
Updating the Hessian (BFGS)             .... done
Making uphill step                      .... done
Uphill step size                        .... 0.449530
Converting the step to Cartesian space:
 Initial RMS(Int)=    0.0595417543
Transforming coordinates:
 Iter   0:  RMS(Cart)=    0.1030995758 RMS(Int)=    0.0596888731
 Iter   5:  RMS(Cart)=    0.0000002186 RMS(Int)=    0.0000001837
Imposing constraints:
 Iter   0:  RMS(Cart)=    0.0013377600 RMS(Int)=    0.0001475339
 Iter   5:  RMS(Cart)=    0.0000002025 RMS(Int)=    0.0000000221
CONVERGED
done
Storing new coordinates                 .... done
Current trust radius                    ....     0.4500
Energy difference                       ....     0.8662 kcal/mol
Maximum difference                      ....     0.4200 kcal/mol
New trust radius                        ....     0.3000

                                .--------------------.
          ----------------------|Geometry convergence|-------------------------
          Item                value                   Tolerance       Converged
          ---------------------------------------------------------------------
          Energy change       0.0013803087            0.0000050000      NO
          RMS gradient        0.0013812216            0.0001000000      NO
          MAX gradient        0.0061430904            0.0003000000      NO
          RMS step            0.0595417543            0.0020000000      NO
          MAX step            0.2677814577            0.0040000000      NO
          -------------------------------------------------------------------------
          ........................................................
          Max(Bonds)      0.1417      Max(Angles)    0.71
          Max(Dihed)        7.85      Max(Improp)    0.00
          ---------------------------------------------------------------------

Geometry step timings:
Preparation and reading OPT file:      0.000 s ( 1.723 %)
Internal coordinates            :      0.000 s ( 1.477 %)
B/P matrices and projection     :      0.000 s (28.794 %)
Hessian update/contruction      :      0.000 s (16.243 %)
Making the step                 :      0.000 s (35.521 %)
Converting the step to Cartesian:      0.000 s ( 7.055 %)
Storing new data                :      0.000 s ( 1.231 %)
Checking convergence            :      0.000 s ( 1.969 %)
GOAT stuff                      :      0.000 s ( 0.082 %)
Final printing                  :      0.000 s ( 5.742 %)
Total time                      :      0.001 s

Time for energy+gradient        :      0.035 s
Time for complete geometry iter :      0.037 s

         *************************************************************
         *                GEOMETRY OPTIMIZATION CYCLE  11            *
         *************************************************************
---------------------------------
CARTESIAN COORDINATES (ANGSTROEM)
---------------------------------
  H    -1.774474    0.376206   -0.574775
  C    -2.769173    2.130067    0.092068
  H    -2.545967    3.065909   -0.417610
  H    -4.883128    1.001121    0.261938
  O     0.458344    2.464456    0.473273
  C    -1.547462    1.209798    0.105360
  H    -1.934042    0.891412    2.122705
  S    -4.193759    1.406998   -0.804718
  N    -1.182538    0.776302    1.449202
  H    -0.915642   -0.203132    1.462510
  C    -0.350868    1.997680   -0.468364
  H    -3.087896    2.361947    1.106674
  O    -0.200432    2.197311   -1.637982
  H     0.160300    2.070460    1.324192

----------------------------
CARTESIAN COORDINATES (A.U.)
----------------------------
  NO LB    ZA    FRAG    MASS        X           Y           Z
   0 H   1.0000    1     1.008   -3.353269    0.710927   -1.086167
   1 C   6.0000    1    12.011   -5.232978    4.025244    0.173984
   2 H   1.0000    1     1.008   -4.811180    5.793728   -0.789169
   3 H   1.0000    1     1.008   -9.227774    1.891844    0.494991
   4 O   8.0000    1    15.999    0.866145    4.657147    0.894357
   5 C   6.0000    1    12.011   -2.924279    2.286187    0.199101
   6 H   1.0000    1     1.008   -3.654810    1.684524    4.011331
   7 S  16.0000    1    32.060   -7.925056    2.658841   -1.520696
   8 N   7.0000    1    14.007   -2.234673    1.466999    2.738595
   9 H   1.0000    1     1.008   -1.730313   -0.383863    2.763744
  10 C   6.0000    1    12.011   -0.663044    3.775068   -0.885079
  11 H   1.0000    1     1.008   -5.835277    4.463434    2.091310
  12 O   8.0000    1    15.999   -0.378762    4.152315   -3.095338
  13 H   1.0000    1     1.008    0.302924    3.912602    2.502361

------------------------------------------------------------------------------
                         ORCA GEOMETRY RELAXATION STEP
------------------------------------------------------------------------------

Reading the OPT-File                    .... done

---------------------------------------------
FINAL SINGLE POINT ENERGY       -24.271760851510
---------------------------------------------

Getting information on internals        .... done
Copying old internal coords+grads       .... done
Making the new internal coordinates     .... (2022 redundants) done
Validating the new internal coordinates .... (2022 redundants) done
Calculating the B-matrix                .... done
Calculating the G,G- and P matrices     .... done
Transforming gradient to internals      .... done
Projecting the internal gradient        .... done
Number of atoms                         ....  14
Number of internal coordinates          ....  57
Current Energy                          ....   -24.271760852 Eh
Current gradient norm                   ....     0.012440567 Eh/bohr
Maximum allowed component of the step   ....  0.300
Current trust radius                    ....  0.300
Updating the Hessian (BFGS)             .... done
Making uphill step                      .... done
Uphill step size                        .... 0.299320
Converting the step to Cartesian space:
 Initial RMS(Int)=    0.0396458847
Transforming coordinates:
 Iter   0:  RMS(Cart)=    0.0716563671 RMS(Int)=    0.0396695311
 Iter   5:  RMS(Cart)=    0.0000000334 RMS(Int)=    0.0000000309
Imposing constraints:
 Iter   0:  RMS(Cart)=    0.0011611350 RMS(Int)=    0.0001360749
 Iter   5:  RMS(Cart)=    0.0000002251 RMS(Int)=    0.0000000263
CONVERGED
done
Storing new coordinates                 .... done
Current trust radius                    ....     0.3000
Energy difference                       ....     0.3803 kcal/mol
Maximum difference                      ....     0.4200 kcal/mol
New trust radius                        ....     0.4500

                                .--------------------.
          ----------------------|Geometry convergence|-------------------------
          Item                value                   Tolerance       Converged
          ---------------------------------------------------------------------
          Energy change       0.0006059848            0.0000050000      NO
          RMS gradient        0.0013954769            0.0001000000      NO
          MAX gradient        0.0064779741            0.0003000000      NO
          RMS step            0.0396458847            0.0020000000      NO
          MAX step            0.1627788361            0.0040000000      NO
          -------------------------------------------------------------------------
          ........................................................
          Max(Bonds)      0.0861      Max(Angles)    0.34
          Max(Dihed)        5.10      Max(Improp)    0.00
          ---------------------------------------------------------------------

Geometry step timings:
Preparation and reading OPT file:      0.000 s ( 1.762 %)
Internal coordinates            :      0.000 s ( 1.388 %)
B/P matrices and projection     :      0.001 s (28.831 %)
Hessian update/contruction      :      0.000 s (11.426 %)
Making the step                 :      0.001 s (40.043 %)
Converting the step to Cartesian:      0.000 s ( 9.130 %)
Storing new data                :      0.000 s ( 1.442 %)
Checking convergence            :      0.000 s ( 2.670 %)
GOAT stuff                      :      0.000 s ( 0.053 %)
Final printing                  :      0.000 s ( 3.203 %)
Total time                      :      0.002 s

Time for energy+gradient        :      0.035 s
Time for complete geometry iter :      0.037 s

         *************************************************************
         *                GEOMETRY OPTIMIZATION CYCLE  12            *
         *************************************************************
---------------------------------
CARTESIAN COORDINATES (ANGSTROEM)
---------------------------------
  H    -1.790950    0.368222   -0.532999
  C    -2.779676    2.131797    0.115378
  H    -2.546331    3.094014   -0.337478
  H    -4.873062    0.954855    0.150240
  O     0.493454    2.421787    0.429099
  C    -1.555076    1.215353    0.127096
  H    -1.899236    0.944044    2.160462
  S    -4.168529    1.451589   -0.866918
  N    -1.168073    0.799712    1.470401
  H    -0.920718   -0.184530    1.498448
  C    -0.367653    1.989910   -0.482692
  H    -3.139763    2.312663    1.126517
  O    -0.264646    2.208753   -1.654011
  H     0.213525    2.038366    1.290931

----------------------------
CARTESIAN COORDINATES (A.U.)
----------------------------
  NO LB    ZA    FRAG    MASS        X           Y           Z
   0 H   1.0000    1     1.008   -3.384405    0.695838   -1.007221
   1 C   6.0000    1    12.011   -5.252827    4.028512    0.218033
   2 H   1.0000    1     1.008   -4.811868    5.846840   -0.637741
   3 H   1.0000    1     1.008   -9.208753    1.804415    0.283912
   4 O   8.0000    1    15.999    0.932492    4.576515    0.810879
   5 C   6.0000    1    12.011   -2.938668    2.296685    0.240176
   6 H   1.0000    1     1.008   -3.589036    1.783984    4.082681
   7 S  16.0000    1    32.060   -7.877378    2.743107   -1.638237
   8 N   7.0000    1    14.007   -2.207338    1.511236    2.778656
   9 H   1.0000    1     1.008   -1.739906   -0.348710    2.831656
  10 C   6.0000    1    12.011   -0.694763    3.760385   -0.912155
  11 H   1.0000    1     1.008   -5.933292    4.370300    2.128809
  12 O   8.0000    1    15.999   -0.500108    4.173938   -3.125627
  13 H   1.0000    1     1.008    0.403503    3.851953    2.439506

------------------------------------------------------------------------------
                         ORCA GEOMETRY RELAXATION STEP
------------------------------------------------------------------------------

Reading the OPT-File                    .... done

---------------------------------------------
FINAL SINGLE POINT ENERGY       -24.271615923680
---------------------------------------------

Getting information on internals        .... done
Copying old internal coords+grads       .... done
Making the new internal coordinates     .... (2022 redundants) done
Validating the new internal coordinates .... (2022 redundants) done
Calculating the B-matrix                .... done
Calculating the G,G- and P matrices     .... done
Transforming gradient to internals      .... done
Projecting the internal gradient        .... done
Number of atoms                         ....  14
Number of internal coordinates          ....  57
Current Energy                          ....   -24.271615924 Eh
Current gradient norm                   ....     0.012874004 Eh/bohr
Maximum allowed component of the step   ....  0.300
Current trust radius                    ....  0.450
Updating the Hessian (BFGS)             .... done
Making uphill step                      .... done
Uphill step size                        .... 0.449519
Converting the step to Cartesian space:
 Initial RMS(Int)=    0.0595402292
Transforming coordinates:
 Iter   0:  RMS(Cart)=    0.1098956558 RMS(Int)=    0.0595923481
 Iter   5:  RMS(Cart)=    0.0000005469 RMS(Int)=    0.0000004885
Imposing constraints:
 Iter   0:  RMS(Cart)=    0.0017378460 RMS(Int)=    0.0002311535
 Iter   5:  RMS(Cart)=    0.0000005396 RMS(Int)=    0.0000000706
CONVERGED
done
Storing new coordinates                 .... done
Current trust radius                    ....     0.4500
Energy difference                       ....     0.0909 kcal/mol
Maximum difference                      ....     0.4200 kcal/mol
New trust radius                        ....     0.6750

                                .--------------------.
          ----------------------|Geometry convergence|-------------------------
          Item                value                   Tolerance       Converged
          ---------------------------------------------------------------------
          Energy change       0.0001449278            0.0000050000      NO
          RMS gradient        0.0013871777            0.0001000000      NO
          MAX gradient        0.0064849968            0.0003000000      NO
          RMS step            0.0595402292            0.0020000000      NO
          MAX step            0.2363965565            0.0040000000      NO
          -------------------------------------------------------------------------
          ........................................................
          Max(Bonds)      0.1251      Max(Angles)    0.58
          Max(Dihed)        7.99      Max(Improp)    0.00
          ---------------------------------------------------------------------

Geometry step timings:
Preparation and reading OPT file:      0.000 s ( 2.175 %)
Internal coordinates            :      0.000 s ( 1.592 %)
B/P matrices and projection     :      0.001 s (35.650 %)
Hessian update/contruction      :      0.000 s (11.777 %)
Making the step                 :      0.001 s (34.377 %)
Converting the step to Cartesian:      0.000 s ( 8.117 %)
Storing new data                :      0.000 s ( 1.592 %)
Checking convergence            :      0.000 s ( 2.016 %)
GOAT stuff                      :      0.000 s ( 0.053 %)
Final printing                  :      0.000 s ( 2.599 %)
Total time                      :      0.002 s

Time for energy+gradient        :      0.029 s
Time for complete geometry iter :      0.032 s

         *************************************************************
         *                GEOMETRY OPTIMIZATION CYCLE  13            *
         *************************************************************
---------------------------------
CARTESIAN COORDINATES (ANGSTROEM)
---------------------------------
  H    -1.820780    0.357656   -0.469122
  C    -2.796189    2.132926    0.153891
  H    -2.551642    3.130948   -0.206028
  H    -4.842188    0.890025   -0.028040
  O     0.535488    2.360470    0.359080
  C    -1.566707    1.222988    0.159878
  H    -1.839107    1.028503    2.215269
  S    -4.124113    1.527071   -0.953384
  N    -1.143957    0.834627    1.500571
  H    -0.931540   -0.156745    1.553123
  C    -0.394485    1.975281   -0.504728
  H    -3.216038    2.231687    1.153266
  O    -0.357237    2.217557   -1.675372
  H     0.281760    1.993541    1.236070

----------------------------
CARTESIAN COORDINATES (A.U.)
----------------------------
  NO LB    ZA    FRAG    MASS        X           Y           Z
   0 H   1.0000    1     1.008   -3.440775    0.675873   -0.886513
   1 C   6.0000    1    12.011   -5.284032    4.030647    0.290812
   2 H   1.0000    1     1.008   -4.821904    5.916634   -0.389337
   3 H   1.0000    1     1.008   -9.150410    1.681904   -0.052987
   4 O   8.0000    1    15.999    1.011927    4.460642    0.678563
   5 C   6.0000    1    12.011   -2.960648    2.311112    0.302126
   6 H   1.0000    1     1.008   -3.475409    1.943589    4.186252
   7 S  16.0000    1    32.060   -7.793444    2.885745   -1.801634
   8 N   7.0000    1    14.007   -2.161766    1.577217    2.835669
   9 H   1.0000    1     1.008   -1.760356   -0.296205    2.934977
  10 C   6.0000    1    12.011   -0.745468    3.732740   -0.953798
  11 H   1.0000    1     1.008   -6.077430    4.217277    2.179357
  12 O   8.0000    1    15.999   -0.675081    4.190575   -3.165994
  13 H   1.0000    1     1.008    0.532450    3.767246    2.335834

------------------------------------------------------------------------------
                         ORCA GEOMETRY RELAXATION STEP
------------------------------------------------------------------------------

Reading the OPT-File                    .... done

---------------------------------------------
FINAL SINGLE POINT ENERGY       -24.271480285900
---------------------------------------------

Getting information on internals        .... done
Copying old internal coords+grads       .... done
Making the new internal coordinates     .... (2022 redundants) done
Validating the new internal coordinates .... (2022 redundants) done
Calculating the B-matrix                .... done
Calculating the G,G- and P matrices     .... done
Transforming gradient to internals      .... done
Projecting the internal gradient        .... done
Number of atoms                         ....  14
Number of internal coordinates          ....  57
Current Energy                          ....   -24.271480286 Eh
Current gradient norm                   ....     0.013940603 Eh/bohr
Maximum allowed component of the step   ....  0.300
Current trust radius                    ....  0.675
Updating the Hessian (BFGS)             .... done
Making uphill step                      .... done
Uphill step size                        .... 0.622900
Converting the step to Cartesian space:
 Initial RMS(Int)=    0.0825051123
Transforming coordinates:
 Iter   0:  RMS(Cart)=    0.1578616510 RMS(Int)=    0.0826097809
 Iter   5:  RMS(Cart)=    0.0000054414 RMS(Int)=    0.0000044755
Imposing constraints:
 Iter   0:  RMS(Cart)=    0.0024490957 RMS(Int)=    0.0003812517
 Iter   5:  RMS(Cart)=    0.0000014286 RMS(Int)=    0.0000002173
CONVERGED
done
Storing new coordinates                 .... done
Current trust radius                    ....     0.6750
Energy difference                       ....     0.0851 kcal/mol
Maximum difference                      ....     0.4200 kcal/mol
New trust radius                        ....     0.7000

                                .--------------------.
          ----------------------|Geometry convergence|-------------------------
          Item                value                   Tolerance       Converged
          ---------------------------------------------------------------------
          Energy change       0.0001356378            0.0000050000      NO
          RMS gradient        0.0014459232            0.0001000000      NO
          MAX gradient        0.0064359651            0.0003000000      NO
          RMS step            0.0825051123            0.0020000000      NO
          MAX step            0.3000000000            0.0040000000      NO
          -------------------------------------------------------------------------
          ........................................................
          Max(Bonds)      0.1588      Max(Angles)    0.80
          Max(Dihed)       11.75      Max(Improp)    0.00
          ---------------------------------------------------------------------

Geometry step timings:
Preparation and reading OPT file:      0.000 s ( 2.371 %)
Internal coordinates            :      0.000 s ( 2.047 %)
B/P matrices and projection     :      0.000 s (40.409 %)
Hessian update/contruction      :      0.000 s (14.009 %)
Making the step                 :      0.000 s (21.875 %)
Converting the step to Cartesian:      0.000 s (10.453 %)
Storing new data                :      0.000 s ( 1.832 %)
Checking convergence            :      0.000 s ( 3.556 %)
GOAT stuff                      :      0.000 s ( 0.108 %)
Final printing                  :      0.000 s ( 3.341 %)
Total time                      :      0.001 s

Time for energy+gradient        :      0.019 s
Time for complete geometry iter :      0.021 s

         *************************************************************
         *                GEOMETRY OPTIMIZATION CYCLE  14            *
         *************************************************************
---------------------------------
CARTESIAN COORDINATES (ANGSTROEM)
---------------------------------
  H    -1.862058    0.339588   -0.377377
  C    -2.820697    2.128098    0.214021
  H    -2.570194    3.165392   -0.001988
  H    -4.770308    0.826128   -0.295525
  O     0.571897    2.284349    0.255742
  C    -1.583166    1.229156    0.205617
  H    -1.742291    1.152869    2.283751
  S    -4.050041    1.649839   -1.057388
  N    -1.106884    0.881128    1.539420
  H    -0.948019   -0.117107    1.634233
  C    -0.438270    1.950517   -0.536410
  H    -3.320855    2.103487    1.180465
  O    -0.482947    2.211555   -1.702752
  H     0.357098    1.941536    1.152663

----------------------------
CARTESIAN COORDINATES (A.U.)
----------------------------
  NO LB    ZA    FRAG    MASS        X           Y           Z
   0 H   1.0000    1     1.008   -3.518779    0.641729   -0.713138
[...]
----------------------------
  NO LB    ZA    FRAG    MASS        X           Y           Z
   0 H   1.0000    1     1.008   -3.310194    1.091585   -1.421651
   1 C   6.0000    1    12.011   -5.278007    4.343676    0.053105
   2 H   1.0000    1     1.008   -5.415773    5.271320   -1.778477
   3 H   1.0000    1     1.008   -7.603378    0.510316   -0.006837
   4 O   8.0000    1    15.999    1.048425    4.090756    1.205578
   5 C   6.0000    1    12.011   -3.058393    2.498278    0.081189
   6 H   1.0000    1     1.008   -4.270031    1.491410    3.643466
   7 S  16.0000    1    32.060   -8.295495    2.816768    0.748116
   8 N   7.0000    1    14.007   -2.682994    1.382471    2.567708
   9 H   1.0000    1     1.008   -2.156916   -0.454353    2.450822
  10 C   6.0000    1    12.011   -0.667213    4.030375   -0.618055
  11 H   1.0000    1     1.008   -5.011258    5.767236    1.519172
  12 O   8.0000    1    15.999   -0.433204    5.067158   -2.613133
  13 H   1.0000    1     1.008    0.332084    3.187999    2.662321

------------------------------------------------------------------------------
                         ORCA GEOMETRY RELAXATION STEP
------------------------------------------------------------------------------

Reading the OPT-File                    .... done

---------------------------------------------
FINAL SINGLE POINT ENERGY       -24.278267582400
---------------------------------------------

Getting information on internals        .... done
Copying old internal coords+grads       .... done
Making the new internal coordinates     .... (2022 redundants) done
Validating the new internal coordinates .... (2022 redundants) done
Calculating the B-matrix                .... done
Calculating the G,G- and P matrices     .... done
Transforming gradient to internals      .... done
Projecting the internal gradient        .... done
Number of atoms                         ....  14
Number of internal coordinates          ....  57
Current Energy                          ....   -24.278267582 Eh
Current gradient norm                   ....     0.011112807 Eh/bohr
Maximum allowed component of the step   ....  0.300
Current trust radius                    ....  0.300
Evaluating the initial hessian          ....  (Almloef) done
Projecting the Hessian                  .... done
Forming the augmented Hessian           .... done
Diagonalizing the augmented Hessian     .... done
Last element of RFO vector              ....  0.951355414
Lowest eigenvalues of augmented Hessian:
 -0.001370634  0.010060022  0.010770138  0.011212664  0.017515563
Length of the computed step             ....  0.323849068
Warning: the length of the step is outside the trust region - taking restricted step instead
The input lambda is                     ....     0.009000
   iter:   5  x=    0.003053  g=  227.882488 f(x)=     0.470029
   iter:  10  x=   -0.002287  g=   14.452388 f(x)=     0.000023
The output lambda is                    ....    -0.002287 (12 iterations)
The final length of the internal step   ....  0.300000000
Converting the step to Cartesian space:
 Initial RMS(Int)=    0.0397359707
Transforming coordinates:
 Iter   0:  RMS(Cart)=    0.0651336566 RMS(Int)=    0.0396956417
 Iter   5:  RMS(Cart)=    0.0000037174 RMS(Int)=    0.0000033664
done
Storing new coordinates                 .... done
The predicted energy change is          ....    -0.000743718
Previously predicted energy change      ....    -0.001300383
Actually observed energy change         ....    -0.000848544
Ratio of predicted to observed change   ....     0.652533545
New trust radius                        ....     0.300000000

                                .--------------------.
          ----------------------|Geometry convergence|-------------------------
          Item                value                   Tolerance       Converged
          ---------------------------------------------------------------------
          Energy change      -0.0008485436            0.0000050000      NO
          RMS gradient        0.0011418355            0.0001000000      NO
          MAX gradient        0.0032354754            0.0003000000      NO
          RMS step            0.0397359707            0.0020000000      NO
          MAX step            0.1624339617            0.0040000000      NO
          -------------------------------------------------------------------------
          ........................................................
          Max(Bonds)      0.0067      Max(Angles)    0.36
          Max(Dihed)        9.31      Max(Improp)    0.00
          ---------------------------------------------------------------------

Geometry step timings:
Preparation and reading OPT file:      0.000 s ( 1.838 %)
Internal coordinates            :      0.000 s ( 1.602 %)
B/P matrices and projection     :      0.001 s (29.642 %)
Hessian update/contruction      :      0.000 s (18.049 %)
Making the step                 :      0.001 s (42.130 %)
Converting the step to Cartesian:      0.000 s ( 2.309 %)
Storing new data                :      0.000 s ( 0.848 %)
Checking convergence            :      0.000 s ( 1.320 %)
GOAT stuff                      :      0.000 s ( 0.047 %)
Final printing                  :      0.000 s ( 2.168 %)
Total time                      :      0.002 s

Time for energy+gradient        :      0.026 s
Time for complete geometry iter :      0.029 s

         *************************************************************
         *                GEOMETRY OPTIMIZATION CYCLE  97            *
         *************************************************************
---------------------------------
CARTESIAN COORDINATES (ANGSTROEM)
---------------------------------
  H    -1.762580    0.562670   -0.732788
  C    -2.786614    2.287290    0.053653
  H    -2.866378    2.782736   -0.913264
  H    -4.104036    0.314256   -0.162557
  O     0.545440    2.199512    0.630622
  C    -1.613564    1.314310    0.055996
  H    -2.227667    0.793295    1.949686
  S    -4.383807    1.474844    0.433023
  N    -1.395101    0.730934    1.374039
  H    -1.121841   -0.242366    1.315069
  C    -0.352550    2.125990   -0.338707
  H    -2.641272    3.038130    0.831696
  O    -0.223381    2.630716   -1.416064
  H     0.166616    1.734217    1.414069

----------------------------
CARTESIAN COORDINATES (A.U.)
----------------------------
  NO LB    ZA    FRAG    MASS        X           Y           Z
   0 H   1.0000    1     1.008   -3.330793    1.063291   -1.384768
   1 C   6.0000    1    12.011   -5.265938    4.322352    0.101390
   2 H   1.0000    1     1.008   -5.416670    5.258610   -1.725819
   3 H   1.0000    1     1.008   -7.755504    0.593859   -0.307189
   4 O   8.0000    1    15.999    1.030732    4.156476    1.191703
   5 C   6.0000    1    12.011   -3.049195    2.483685    0.105817
   6 H   1.0000    1     1.008   -4.209681    1.499110    3.684373
   7 S  16.0000    1    32.060   -8.284195    2.787052    0.818295
   8 N   7.0000    1    14.007   -2.636358    1.381266    2.596557
   9 H   1.0000    1     1.008   -2.119972   -0.458005    2.485121
  10 C   6.0000    1    12.011   -0.666223    4.017539   -0.640064
  11 H   1.0000    1     1.008   -4.991280    5.741234    1.571678
  12 O   8.0000    1    15.999   -0.422130    4.971332   -2.675972
  13 H   1.0000    1     1.008    0.314859    3.277195    2.672204

------------------------------------------------------------------------------
                         ORCA GEOMETRY RELAXATION STEP
------------------------------------------------------------------------------

Reading the OPT-File                    .... done

---------------------------------------------
FINAL SINGLE POINT ENERGY       -24.279435154560
---------------------------------------------

Getting information on internals        .... done
Copying old internal coords+grads       .... done
Making the new internal coordinates     .... (2022 redundants) done
Validating the new internal coordinates .... (2022 redundants) done
Calculating the B-matrix                .... done
Calculating the G,G- and P matrices     .... done
Transforming gradient to internals      .... done
Projecting the internal gradient        .... done
Number of atoms                         ....  14
Number of internal coordinates          ....  57
Current Energy                          ....   -24.279435155 Eh
Current gradient norm                   ....     0.006528947 Eh/bohr
Maximum allowed component of the step   ....  0.300
Current trust radius                    ....  0.300
Updating the Hessian (BFGS)             .... done
Forming the augmented Hessian           .... done
Diagonalizing the augmented Hessian     .... done
Last element of RFO vector              ....  0.778525239
Lowest eigenvalues of augmented Hessian:
 -0.002923132  0.004328790  0.010492629  0.011257202  0.017570266
Length of the computed step             ....  0.806156650
Warning: the length of the step is outside the trust region - taking restricted step instead
The input lambda is                     ....     0.000479
   iter:   5  x=   -0.005377  g=  222.123382 f(x)=     0.448462
   iter:  10  x=   -0.010402  g=   15.033743 f(x)=     0.000017
The output lambda is                    ....    -0.010402 (12 iterations)
The final length of the internal step   ....  0.300000000
Converting the step to Cartesian space:
 Initial RMS(Int)=    0.0397359707
Transforming coordinates:
 Iter   0:  RMS(Cart)=    0.0592876994 RMS(Int)=    0.8310427014
 Iter   5:  RMS(Cart)=    0.0000032952 RMS(Int)=    0.0000030060
done
Storing new coordinates                 .... done
The predicted energy change is          ....    -0.001026750
Previously predicted energy change      ....    -0.000743718
Actually observed energy change         ....    -0.001167572
Ratio of predicted to observed change   ....     1.569912553
New trust radius                        ....     0.200000000

                                .--------------------.
          ----------------------|Geometry convergence|-------------------------
          Item                value                   Tolerance       Converged
          ---------------------------------------------------------------------
          Energy change      -0.0011675722            0.0000050000      NO
          RMS gradient        0.0006158259            0.0001000000      NO
          MAX gradient        0.0021589454            0.0003000000      NO
          RMS step            0.0397359707            0.0020000000      NO
          MAX step            0.1670740660            0.0040000000      NO
          -------------------------------------------------------------------------
          ........................................................
          Max(Bonds)      0.0126      Max(Angles)    0.46
          Max(Dihed)        9.57      Max(Improp)    0.00
          ---------------------------------------------------------------------

Geometry step timings:
Preparation and reading OPT file:      0.000 s ( 2.486 %)
Internal coordinates            :      0.000 s ( 1.482 %)
B/P matrices and projection     :      0.001 s (30.210 %)
Hessian update/contruction      :      0.000 s (14.293 %)
Making the step                 :      0.001 s (40.010 %)
Converting the step to Cartesian:      0.000 s ( 3.920 %)
Storing new data                :      0.000 s ( 1.816 %)
Checking convergence            :      0.000 s ( 2.390 %)
GOAT stuff                      :      0.000 s ( 0.096 %)
Final printing                  :      0.000 s ( 3.250 %)
Total time                      :      0.002 s

Time for energy+gradient        :      0.028 s
Time for complete geometry iter :      0.031 s

         *************************************************************
         *                GEOMETRY OPTIMIZATION CYCLE  98            *
         *************************************************************
---------------------------------
CARTESIAN COORDINATES (ANGSTROEM)
---------------------------------
  H    -1.765862    0.542144   -0.711926
  C    -2.780356    2.271475    0.069561
  H    -2.869438    2.765459   -0.897787
  H    -4.189434    0.381125   -0.300571
  O     0.533656    2.233413    0.627260
  C    -1.606089    1.303703    0.067002
  H    -2.201311    0.797468    1.966441
  S    -4.372790    1.453802    0.468767
  N    -1.370406    0.734570    1.389909
  H    -1.095125   -0.238252    1.338998
  C    -0.350281    2.118584   -0.347493
  H    -2.637863    3.024110    0.846182
  O    -0.228234    2.606012   -1.433878
  H     0.166799    1.752921    1.412008

----------------------------
CARTESIAN COORDINATES (A.U.)
----------------------------
  NO LB    ZA    FRAG    MASS        X           Y           Z
   0 H   1.0000    1     1.008   -3.336996    1.024503   -1.345346
   1 C   6.0000    1    12.011   -5.254111    4.292465    0.131452
   2 H   1.0000    1     1.008   -5.422453    5.225961   -1.696571
   3 H   1.0000    1     1.008   -7.916883    0.720222   -0.567998
   4 O   8.0000    1    15.999    1.008463    4.220538    1.185349
   5 C   6.0000    1    12.011   -3.035068    2.463642    0.126616
   6 H   1.0000    1     1.008   -4.159876    1.506996    3.716036
   7 S  16.0000    1    32.060   -8.263376    2.747288    0.885842
   8 N   7.0000    1    14.007   -2.589691    1.388136    2.626548
   9 H   1.0000    1     1.008   -2.069487   -0.450230    2.530340
  10 C   6.0000    1    12.011   -0.661934    4.003544   -0.656667
  11 H   1.0000    1     1.008   -4.984839    5.714739    1.599052
  12 O   8.0000    1    15.999   -0.431301    4.924649   -2.709636
  13 H   1.0000    1     1.008    0.315204    3.312541    2.668308

------------------------------------------------------------------------------
                         ORCA GEOMETRY RELAXATION STEP
------------------------------------------------------------------------------

Reading the OPT-File                    .... done

---------------------------------------------
FINAL SINGLE POINT ENERGY       -24.280413981940
---------------------------------------------

Getting information on internals        .... done
Copying old internal coords+grads       .... done
Making the new internal coordinates     .... (2022 redundants) done
Validating the new internal coordinates .... (2022 redundants) done
Calculating the B-matrix                .... done
Calculating the G,G- and P matrices     .... done
Transforming gradient to internals      .... done
Projecting the internal gradient        .... done
Number of atoms                         ....  14
Number of internal coordinates          ....  57
Current Energy                          ....   -24.280413982 Eh
Current gradient norm                   ....     0.005425127 Eh/bohr
Maximum allowed component of the step   ....  0.300
Current trust radius                    ....  0.200
Updating the Hessian (BFGS)             .... done
Forming the augmented Hessian           .... done
Diagonalizing the augmented Hessian     .... done
Last element of RFO vector              ....  0.821012644
Lowest eigenvalues of augmented Hessian:
 -0.002046514  0.004115228  0.010541939  0.011280381  0.017597874
Length of the computed step             ....  0.695372980
Warning: the length of the step is outside the trust region - taking restricted step instead
The input lambda is                     ....     0.001110
   iter:   5  x=   -0.004975  g=  141.004429 f(x)=     0.306668
   iter:  10  x=   -0.012398  g=    5.500713 f(x)=     0.000097
The output lambda is                    ....    -0.012398 (13 iterations)
The final length of the internal step   ....  0.200000000
Converting the step to Cartesian space:
 Initial RMS(Int)=    0.0264906471
Transforming coordinates:
 Iter   0:  RMS(Cart)=    0.0385746559 RMS(Int)=    0.8292355224
 Iter   5:  RMS(Cart)=    0.0000002604 RMS(Int)=    0.0000002474
done
Storing new coordinates                 .... done
The predicted energy change is          ....    -0.000552685
Previously predicted energy change      ....    -0.001026750
Actually observed energy change         ....    -0.000978827
Ratio of predicted to observed change   ....     0.953325518
New trust radius                        ....     0.300000000

                                .--------------------.
          ----------------------|Geometry convergence|-------------------------
          Item                value                   Tolerance       Converged
          ---------------------------------------------------------------------
          Energy change      -0.0009788274            0.0000050000      NO
          RMS gradient        0.0005757406            0.0001000000      NO
          MAX gradient        0.0017685871            0.0003000000      NO
          RMS step            0.0264906471            0.0020000000      NO
          MAX step            0.1104850507            0.0040000000      NO
          -------------------------------------------------------------------------
          ........................................................
          Max(Bonds)      0.0100      Max(Angles)    0.43
          Max(Dihed)        6.33      Max(Improp)    0.00
          ---------------------------------------------------------------------

Geometry step timings:
Preparation and reading OPT file:      0.000 s ( 2.081 %)
Internal coordinates            :      0.000 s ( 1.665 %)
B/P matrices and projection     :      0.000 s (33.299 %)
Hessian update/contruction      :      0.000 s (11.446 %)
Making the step                 :      0.000 s (40.479 %)
Converting the step to Cartesian:      0.000 s ( 4.266 %)
Storing new data                :      0.000 s ( 1.353 %)
Checking convergence            :      0.000 s ( 2.185 %)
GOAT stuff                      :      0.000 s ( 0.104 %)
Final printing                  :      0.000 s ( 3.122 %)
Total time                      :      0.001 s

Time for energy+gradient        :      0.033 s
Time for complete geometry iter :      0.035 s

         *************************************************************
         *                GEOMETRY OPTIMIZATION CYCLE  99            *
         *************************************************************
---------------------------------
CARTESIAN COORDINATES (ANGSTROEM)
---------------------------------
  H    -1.764130    0.531310   -0.699382
  C    -2.779388    2.261354    0.078815
  H    -2.877225    2.753450   -0.888333
  H    -4.243029    0.437121   -0.380654
  O     0.526981    2.251126    0.626746
  C    -1.601151    1.298039    0.073082
  H    -2.184796    0.794460    1.974674
  S    -4.362641    1.436419    0.492256
  N    -1.353224    0.736605    1.397110
  H    -1.072474   -0.234995    1.348353
  C    -0.351090    2.118647   -0.349239
  H    -2.642900    3.015237    0.854941
  O    -0.223024    2.576994   -1.447487
  H     0.161356    1.770767    1.413590

----------------------------
CARTESIAN COORDINATES (A.U.)
----------------------------
  NO LB    ZA    FRAG    MASS        X           Y           Z
   0 H   1.0000    1     1.008   -3.333723    1.004030   -1.321640
   1 C   6.0000    1    12.011   -5.252283    4.273340    0.148938
   2 H   1.0000    1     1.008   -5.437166    5.203267   -1.678706
   3 H   1.0000    1     1.008   -8.018162    0.826039   -0.719331
   4 O   8.0000    1    15.999    0.995850    4.254011    1.184379
   5 C   6.0000    1    12.011   -3.025737    2.452939    0.138106
   6 H   1.0000    1     1.008   -4.128667    1.501312    3.731592
   7 S  16.0000    1    32.060   -8.244196    2.714439    0.930229
   8 N   7.0000    1    14.007   -2.557222    1.391982    2.640155
   9 H   1.0000    1     1.008   -2.026683   -0.444076    2.548019
  10 C   6.0000    1    12.011   -0.663463    4.003662   -0.659965
  11 H   1.0000    1     1.008   -4.994357    5.697972    1.615605
  12 O   8.0000    1    15.999   -0.421455    4.869813   -2.735354
  13 H   1.0000    1     1.008    0.304918    3.346265    2.671299

