14
Energy -24.2790849890
1 -1.54264101378179629975 0.44685709738042328487 -0.84751814048130180712
6 -2.73609162407573247577 2.11911504712952769580 -0.21550241435223527198
1 -2.73974126444029941752 2.53755006794409032622 -1.22063462265735434009
1 -4.44066369442372721466 1.36869966279016552768 1.28067809508256980067
8 0.27699204218448680859 2.48843939540469971661 0.87490440447933925938
6 -1.51940497734694424103 1.20648932234011474485 -0.05290398873898457394
1 -2.36576196610937294906 0.30506443634514623930 1.57611198143752218037
16 -4.32270993693616389919 1.22021759431583709521 -0.03907986257653155854
7 -1.45487001274347571567 0.65668483706264380029 1.29637366776465690066
1 -0.80989064403522392777 -0.12676260213560175405 1.32658875532617148707
6 -0.28275054968065815864 2.10510064188958345710 -0.26488684241927534790
1 -2.72353920323786802271 2.92562117719007774852 0.51536517009486682017
8 0.10008051302841912411 2.44495870373315993263 -1.34582523168152867754
1 -0.20574266840163549230 2.04849961861013207809 1.61080302872208314113
14
Energy -24.2817815936
1 -1.81880784782672488831 0.70177616845332424500 -0.86391171648733544597
6 -2.77487495699814212813 2.24466628766117759497 0.29497640962641386020
1 -2.94249654208665356592 2.90935103433016273300 -0.55029762951393734749
1 -4.47877806524995936144 0.84483741741330276032 -0.59325396738629398996
8 0.47220213447187930900 2.31665495104011442962 0.68923319395776627694
6 -1.59550551045009236795 1.31319728983370276332 0.02286069842692510165
1 -2.10964132754638100664 0.32649155188762157831 1.74064480618723904648
16 -4.31529971275932577868 1.32145524443431883199 0.63922060752830089925
7 -1.26844020017493175345 0.53801968199930283454 1.21218098460971646091
1 -0.82631849291869508001 -0.34106508261531609527 0.96808294345400902614
6 -0.38699307236348184924 2.22026114345179115261 -0.31135153397810388931
1 -2.59031780538432299110 2.83458994873882197396 1.19298087715158951383
8 -0.27541381808549597610 2.78933740091374549053 -1.35842294402844188106
1 0.14395021737232882586 1.72696196245793087698 1.41153127045214943358
14
Energy -24.2813478710
1 -1.72620437898941303523 0.71888825018672863898 -0.83672808082727800905
6 -2.81846142075365957425 2.21454736630568227440 0.25729425139583889104
1 -2.97957843860137083780 2.86009247315773551534 -0.60409512333647075177
1 -4.42531950424664088928 0.73668457052870517376 -0.68501415434251877734
8 0.60523950015962080240 2.16929384658098545202 0.59145713273415378985
6 -1.58029687051998424252 1.34721150379071352710 0.05023538310796157175
1 -1.87582642897440843299 0.72290314423102108865 1.98526651182482494207
16 -4.32249908104313451673 1.21697071293422376392 0.55209476653746625274
7 -1.23075947907651439550 0.54992402004627360945 1.22192412446609166565
1 -1.24514809695276951196 -0.44278051717001642995 1.02706286610614672128
6 -0.39073835464312672849 2.29759775337464366984 -0.26379656749233126867
1 -2.70438862636755183999 2.83048254595562287506 1.15012666276868658066
8 -0.40479459902457448628 3.05981804687254133057 -1.18731319626021170066
1 0.33204077903353529377 1.46490128320514290117 1.23595942331763697375
14
Energy -24.2790843191
1 -1.72155389944806125335 0.87301029842752542187 -1.15326332134496101212
6 -2.77842659033834227245 2.24829947120780326841 0.11657925508315497565
1 -2.89285042628358723960 2.96303178734844596676 -0.69673066068690991948
1 -4.30647470566718926221 1.04162677850843232719 1.50086495294878585760
8 0.35797609397605889558 2.28919377197795981260 0.87451370195509992023
6 -1.57821264899849489360 1.34479776475589596352 -0.17045613511882290458
1 -2.24126843620884264041 -0.03174510676091270994 1.18909100278107482396
16 -4.35747260693943783139 1.32291374788739490853 0.19858138708550196472
7 -1.36230403292907875645 0.39952210078023064899 0.91899200163226613114
1 -0.74235948712725718934 -0.34669485388534221348 0.61992294798837022096
6 -0.35191977442276167753 2.27878055399846779494 -0.24586398770002865222
1 -2.65261009831560423677 2.78265209760927811899 1.05653258311528408520
8 -0.09808261384883697198 2.94704375151531561272 -1.20482666502109125872
1 -0.04117577344855952171 1.63410283662951139050 1.49053693728226610560
