14
Energy -24.2790849890
1 -1.54264101378179629975 0.44685709738042328487 -0.84751814048130180712
6 -2.73609162407573247577 2.11911504712952769580 -0.21550241435223527198
1 -2.73974126444029941752 2.53755006794409032622 -1.22063462265735434009
1 -4.44066369442372721466 1.36869966279016552768 1.28067809508256980067
8 0.27699204218448680859 2.48843939540469971661 0.87490440447933925938
6 -1.51940497734694424103 1.20648932234011474485 -0.05290398873898457394
1 -2.36576196610937294906 0.30506443634514623930 1.57611198143752218037
16 -4.32270993693616389919 1.22021759431583709521 -0.03907986257653155854
7 -1.45487001274347571567 0.65668483706264380029 1.29637366776465690066
1 -0.80989064403522392777 -0.12676260213560175405 1.32658875532617148707
6 -0.28275054968065815864 2.10510064188958345710 -0.26488684241927534790
1 -2.72353920323786802271 2.92562117719007774852 0.51536517009486682017
8 0.10008051302841912411 2.44495870373315993263 -1.34582523168152867754
1 -0.20574266840163549230 2.04849961861013207809 1.61080302872208314113
14
Energy -24.2790847553
1 -1.59895239661618004945 0.51952475502770978366 -0.92157610586152705068
6 -2.74309131913484138821 2.16615507056603595615 -0.14667926767125255560
1 -2.77161645227861708207 2.64792851717206056961 -1.12265575784048521335
1 -4.41043614742191891764 1.34682159006295232295 1.35475109033129670344
8 0.30800675107723496371 2.42213734119643708809 0.86488508805514274780
6 -1.53741029716478050382 1.22700601991347757469 -0.08218297919273061247
1 -2.34593033337177647724 0.23715815086896416264 1.51466823581693543765
16 -4.33852049755033242207 1.28231671016487336345 0.02495087116210538761
7 -1.43879582178594223052 0.59209092523607409486 1.22715711260776605407
1 -0.80643382057168999655 -0.20110265644523103723 1.18694005770291544088
6 -0.29327778642189228364 2.11894755610352891750 -0.27795767450014130517
1 -2.69326563203113034106 2.92439926281472795111 0.63270773044483696879
8 0.06129758253981642396 2.51989108938763628487 -1.34750783769307913573
1 -0.15830882926793790610 1.94326066793075358241 1.58697343663821865967
14
Energy -24.2805646139
1 -1.47131216464487035722 0.62865253979317503585 -0.81750338099071229170
6 -2.84485607716699906433 2.13929655123228101843 -0.14730669355736963899
1 -2.81342880762857827648 2.72138909196597955642 -1.06702192744005297520
1 -4.31009347128141762084 0.63542147017174543944 0.97260938122275053530
8 0.69873635692053237545 1.98907257998927011755 0.57727924204646663409
6 -1.54110129039161014575 1.35706140673580644140 0.00034291770488290875
1 -1.67622755966030645425 1.21282167676756547081 2.03822762911822596976
16 -4.30677129998354057960 1.05363642187051453902 -0.29565888129762474268
7 -1.36612675443245668028 0.64232252297872738378 1.25652443068610808474
1 -1.89412416191006527377 -0.22208679932114477884 1.26815764520675289262
6 -0.33978195355668799893 2.31637786013068502911 -0.17829001342507685979
1 -2.99845366829058423974 2.81492573879582108631 0.69484665873583184581
8 -0.34905094311134710061 3.24426737573993317909 -0.93319733682048588985
1 0.44585679513794851392 1.21337656314964936755 1.12546432881030766815
