                                 *****************
                                 * O   R   C   A *
                                 *****************

                       *****************************
                       * Geometry Optimization Run *
                       *****************************

Geometry optimization settings:
Update method            Update   .... BFGS
Choice of coordinates    CoordSys .... (2022) Redundant Internals
Initial Hessian          InHess   .... Almloef's Model
Max. no of cycles        MaxIter  .... 14000

Convergence Tolerances:
Energy Change            TolE     ....  5.0000e-06 Eh
Max. Gradient            TolMAXG  ....  3.0000e-04 Eh/bohr
RMS Gradient             TolRMSG  ....  1.0000e-04 Eh/bohr
Max. Displacement        TolMAXD  ....  4.0000e-03 bohr
RMS Displacement         TolRMSD  ....  2.0000e-03 bohr
Strict Convergence                .... True

------------------------------------------------------------------------------
                        ORCA OPTIMIZATION COORDINATE SETUP
------------------------------------------------------------------------------

The optimization will be done in redundant internal coordinates (2022)
Making redundant internal coordinates   ...  (2022 redundants) done
Evaluating the initial hessian          ...  (Almloef) done
Evaluating the coordinates              ...  done
Calculating the B-matrix                .... done
Calculating the G-matrix                .... done
The number of degrees of freedom        ....   57

    -----------------------------------------------------------------
                    Redundant Internal Coordinates


    -----------------------------------------------------------------
         Definition                    Initial Value    Approx d2E/dq
    -----------------------------------------------------------------
      1. B(H   2,C   1)                  1.0887         0.361761   
      2. B(C   5,C   1)                  1.5296         0.374104   
      3. B(C   5,H   0)                  1.0995         0.347727   
      4. B(S   7,H   6)                  2.6972         0.010000   
      5. B(S   7,H   3)                  1.3333         0.397190   
      6. B(S   7,C   1)                  1.8321         0.332030   
      7. B(N   8,H   6)                  1.0157         0.423752   
      8. B(N   8,C   5)                  1.4584         0.435231   
      9. B(H   9,N   8)                  1.0152         0.424475   
     10. B(C  10,C   5)                  1.5433         0.355733   
     11. B(C  10,O   4)                  1.3264         0.706899   
     12. B(H  11,C   1)                  1.0885         0.362129   
     13. B(O  12,C  10)                  1.1960         1.141145   
     14. B(H  13,N   8)                  1.8960         0.016695   
     15. B(H  13,O   4)                  0.9839         0.476195   
     16. A(H   2,C   1,C   5)          109.2788         0.324639   
     17. A(H   2,C   1,H  11)          109.5850         0.291307   
     18. A(C   5,C   1,S   7)          112.6922         0.374973   
     19. A(H   2,C   1,S   7)          105.9352         0.334463   
     20. A(C   5,C   1,H  11)          111.1965         0.324694   
     21. A(S   7,C   1,H  11)          107.9904         0.334520   
     22. A(C  10,O   4,H  13)          107.8445         0.372882   
     23. A(C   1,C   5,N   8)          111.0014         0.370756   
     24. A(C   1,C   5,C  10)          105.9839         0.360416   
     25. A(H   0,C   5,N   8)          114.1571         0.328688   
     26. A(H   0,C   5,C  10)          108.6625         0.319892   
     27. A(N   8,C   5,C  10)          108.1229         0.367564   
     28. A(H   0,C   5,C   1)          108.5724         0.322539   
     29. A(C   1,S   7,H   3)           96.7387         0.364130   
     30. A(H   6,N   8,H   9)          107.1152         0.301320   
     31. A(C   5,N   8,H   9)          110.2728         0.336834   
     32. A(C   5,N   8,H   6)          110.2216         0.336738   
     33. A(O   4,C  10,C   5)          112.8535         0.399885   
     34. A(C   5,C  10,O  12)          123.0972         0.435477   
     35. A(O   4,C  10,O  12)          124.0182         0.490409   
     36. D(N   8,C   5,C   1,H   2)    178.2594         0.011173   
     37. D(H   0,C   5,C   1,H   2)    -55.4819         0.011173   
     38. D(N   8,C   5,C   1,S   7)    -64.2550         0.011173   
     39. D(H   0,C   5,C   1,S   7)     62.0037         0.011173   
     40. D(H   0,C   5,C   1,H  11)   -176.5818         0.011173   
     41. D(N   8,C   5,C   1,H  11)     57.1595         0.011173   
     42. D(H   3,S   7,C   1,H  11)    -34.0738         0.010000   
     43. D(H   3,S   7,C   1,C   5)     89.1451         0.010000   
     44. D(H   3,S   7,C   1,H   2)   -151.4117         0.010000   
     45. D(H   9,N   8,C   5,C   1)    164.7174         0.017309   
     46. D(H   9,N   8,C   5,H   0)     41.6179         0.017309   
     47. D(H   6,N   8,C   5,C  10)    162.5064         0.017309   
     48. D(H   6,N   8,C   5,H   0)    -76.4422         0.017309   
     49. D(H   9,N   8,C   5,C  10)    -79.4336         0.017309   
     50. D(H   6,N   8,C   5,C   1)     46.6573         0.017309   
     51. D(O  12,C  10,C   5,C   1)    -78.4185         0.010000   
     52. D(O  12,C  10,C   5,H   0)     38.0973         0.010000   
     53. D(O   4,C  10,C   5,N   8)    -19.4538         0.010000   
     54. D(O   4,C  10,C   5,C   1)     99.6251         0.010000   
     55. D(O   4,C  10,C   5,H   0)   -143.8591         0.010000   
     56. D(O  12,C  10,O   4,H  13)   -178.1844         0.037492   
     57. D(C   5,C  10,O   4,H  13)      3.7929         0.037492   
    -----------------------------------------------------------------

Number of atoms                         .... 14
Number of degrees of freedom            .... 57


         *************************************************************
         *                GEOMETRY OPTIMIZATION CYCLE   1            *
         *************************************************************
------------------------------------------------------------------------------
                         ORCA GEOMETRY RELAXATION STEP
------------------------------------------------------------------------------

Reading the OPT-File                    .... done

---------------------------------------------
FINAL SINGLE POINT ENERGY       -24.279084989030
---------------------------------------------

Getting information on internals        .... done
Copying old internal coords+grads       .... done
Making the new internal coordinates     .... (2022 redundants) done
Validating the new internal coordinates .... (2022 redundants) done
Calculating the B-matrix                .... done
Calculating the G,G- and P matrices     .... done
Transforming gradient to internals      .... done
Projecting the internal gradient        .... done
Number of atoms                         ....  14
Number of internal coordinates          ....  57
Current Energy                          ....   -24.279084989 Eh
Current gradient norm                   ....     0.000181232 Eh/bohr
Maximum allowed component of the step   ....  0.300
Current trust radius                    ....  0.300
Evaluating the initial hessian          ....  (Almloef) done
Projecting the Hessian                  .... done
Forming the augmented Hessian           .... done
Diagonalizing the augmented Hessian     .... done
Last element of RFO vector              ....  0.999998765
Lowest eigenvalues of augmented Hessian:
 -0.000000069  0.010000000  0.010568079  0.010779658  0.017101942
Length of the computed step             ....  0.001571331
The final length of the internal step   ....  0.001571331
Converting the step to Cartesian space:
 Initial RMS(Int)=    0.0002081279
Transforming coordinates:
 Iter   0:  RMS(Cart)=    0.0003344833 RMS(Int)=    0.0002081486
done
Storing new coordinates                 .... done

                                .--------------------.
          ----------------------|Geometry convergence|-------------------------
          Item                value                   Tolerance       Converged
          ---------------------------------------------------------------------
          RMS gradient        0.0000126902            0.0001000000      YES
          MAX gradient        0.0000304081            0.0003000000      YES
          RMS step            0.0002081279            0.0020000000      YES
          MAX step            0.0007060033            0.0040000000      YES
          -------------------------------------------------------------------------
          ........................................................
          Max(Bonds)      0.0004      Max(Angles)    0.01
          Max(Dihed)        0.04      Max(Improp)    0.00
          ---------------------------------------------------------------------

			-----------------------
			     GOAT ITER   1       
			-----------------------

	Minimum found after 1 optimization iterations! E = -24.279085

	No previous minimum found yet, adding first to c.goat.0.2.ensembleen.tmp.

	Number of GOAT steps per global cycle: 20

	Current MaxEn         : 42.00 kcal/mol
	Current Temperature   : 725.99 K
	Current UphillGradComp: 1.00

Geometry step timings:
Preparation and reading OPT file:      0.000 s ( 2.330 %)
Internal coordinates            :      0.000 s ( 1.618 %)
B/P matrices and projection     :      0.001 s (36.764 %)
Hessian update/contruction      :      0.000 s (13.592 %)
Making the step                 :      0.000 s (25.566 %)
Converting the step to Cartesian:      0.000 s ( 2.460 %)
Storing new data                :      0.000 s ( 1.294 %)
Checking convergence            :      0.000 s ( 1.489 %)
GOAT stuff                      :      0.000 s (13.074 %)
Final printing                  :      0.000 s ( 1.812 %)
Total time                      :      0.002 s

Time for energy+gradient        :      0.033 s
Time for complete geometry iter :      0.035 s

         *************************************************************
         *                GEOMETRY OPTIMIZATION CYCLE   2            *
         *************************************************************
---------------------------------
CARTESIAN COORDINATES (ANGSTROEM)
---------------------------------
  H    -1.542641    0.446857   -0.847518
  C    -2.736092    2.119115   -0.215502
  H    -2.739741    2.537550   -1.220635
  H    -4.440664    1.368700    1.280678
  O     0.276992    2.488439    0.874904
  C    -1.519405    1.206489   -0.052904
  H    -2.365762    0.305064    1.576112
  S    -4.322710    1.220218   -0.039080
  N    -1.454870    0.656685    1.296374
  H    -0.809891   -0.126763    1.326589
  C    -0.282751    2.105101   -0.264887
  H    -2.723539    2.925621    0.515365
  O     0.100081    2.444959   -1.345825
  H    -0.205743    2.048500    1.610803

----------------------------
CARTESIAN COORDINATES (A.U.)
----------------------------
  NO LB    ZA    FRAG    MASS        X           Y           Z
   0 H   1.0000    1     1.008   -2.915169    0.844438   -1.601577
   1 C   6.0000    1    12.011   -5.170464    4.004547   -0.407241
   2 H   1.0000    1     1.008   -5.177361    4.795275   -2.306665
   3 H   1.0000    1     1.008   -8.391638    2.586468    2.420131
   4 O   8.0000    1    15.999    0.523439    4.702469    1.653330
   5 C   6.0000    1    12.011   -2.871259    2.279934   -0.099974
   6 H   1.0000    1     1.008   -4.470642    0.576488    2.978420
   7 S  16.0000    1    32.060   -8.168738    2.305877   -0.073850
   8 N   7.0000    1    14.007   -2.749306    1.240954    2.449791
   9 H   1.0000    1     1.008   -1.530472   -0.239547    2.506889
  10 C   6.0000    1    12.011   -0.534321    3.978064   -0.500564
  11 H   1.0000    1     1.008   -5.146743    5.528623    0.973899
  12 O   8.0000    1    15.999    0.189125    4.620302   -2.543241
  13 H   1.0000    1     1.008   -0.388797    3.871103    3.043977

------------------------------------------------------------------------------
                         ORCA GEOMETRY RELAXATION STEP
------------------------------------------------------------------------------

Reading the OPT-File                    .... done

---------------------------------------------
FINAL SINGLE POINT ENERGY       -24.279085037950
---------------------------------------------

Getting information on internals        .... done
Copying old internal coords+grads       .... done
Making the new internal coordinates     .... (2022 redundants) done
Validating the new internal coordinates .... (2022 redundants) done
Calculating the B-matrix                .... done
Calculating the G,G- and P matrices     .... done
Transforming gradient to internals      .... done
Projecting the internal gradient        .... done
Number of atoms                         ....  14
Number of internal coordinates          ....  57
Current Energy                          ....   -24.279085038 Eh
Current gradient norm                   ....     0.000109139 Eh/bohr
Maximum allowed component of the step   ....  0.300
Current trust radius                    ....  0.300
Updating the Hessian (BFGS)             .... done
Making initial random step              .... (random normal) done
Converting the step to Cartesian space:
 Initial RMS(Int)=    0.0724414308
Transforming coordinates:
 Iter   0:  RMS(Cart)=    0.0979179401 RMS(Int)=    1.1685625172
 Iter   5:  RMS(Cart)=    0.0000022484 RMS(Int)=    0.0000016678
Imposing constraints:
 Iter   0:  RMS(Cart)=    0.0065764859 RMS(Int)=    0.0003562311
 Iter   5:  RMS(Cart)=    0.0000000463 RMS(Int)=    0.0000000027
CONVERGED
done
Storing new coordinates                 .... done
Current trust radius                    ....     0.3000
Energy difference                       ....     0.0000 kcal/mol
Maximum difference                      ....     0.4200 kcal/mol
New trust radius                        ....     0.4500

                                .--------------------.
          ----------------------|Geometry convergence|-------------------------
          Item                value                   Tolerance       Converged
          ---------------------------------------------------------------------
          Energy change      -0.0000000489            0.0000050000      YES
          RMS gradient        0.0000079630            0.0001000000      YES
          MAX gradient        0.0000246377            0.0003000000      YES
          RMS step            0.0724414308            0.0020000000      NO
          MAX step            0.2352585334            0.0040000000      NO
          -------------------------------------------------------------------------
          ........................................................
          Max(Bonds)      0.0387      Max(Angles)    8.23
          Max(Dihed)       13.48      Max(Improp)    0.00
          ---------------------------------------------------------------------

Geometry step timings:
Preparation and reading OPT file:      0.000 s ( 3.390 %)
Internal coordinates            :      0.000 s ( 2.401 %)
B/P matrices and projection     :      0.000 s (43.785 %)
Hessian update/contruction      :      0.000 s (18.220 %)
Making the step                 :      0.000 s (10.734 %)
Converting the step to Cartesian:      0.000 s (12.571 %)
Storing new data                :      0.000 s ( 1.977 %)
Checking convergence            :      0.000 s ( 3.955 %)
GOAT stuff                      :      0.000 s ( 0.000 %)
Final printing                  :      0.000 s ( 2.966 %)
Total time                      :      0.001 s

Time for energy+gradient        :      0.027 s
Time for complete geometry iter :      0.029 s

         *************************************************************
         *                GEOMETRY OPTIMIZATION CYCLE   3            *
         *************************************************************
---------------------------------
CARTESIAN COORDINATES (ANGSTROEM)
---------------------------------
  H    -1.624580    0.522684   -0.837211
  C    -2.728154    2.140851   -0.237527
  H    -2.740553    2.500083   -1.265238
  H    -4.444946    1.502112    1.241907
  O     0.252071    2.459523    0.911308
  C    -1.529801    1.221991    0.005984
  H    -2.283888    0.220202    1.556510
  S    -4.284694    1.193882   -0.045352
  N    -1.388428    0.647316    1.338936
  H    -0.736206   -0.125603    1.250033
  C    -0.295078    2.112842   -0.246200
  H    -2.861893    2.945018    0.483727
  O     0.065660    2.369314   -1.357317
  H    -0.166244    2.036319    1.694913

----------------------------
CARTESIAN COORDINATES (A.U.)
----------------------------
  NO LB    ZA    FRAG    MASS        X           Y           Z
   0 H   1.0000    1     1.008   -3.070012    0.987729   -1.582100
   1 C   6.0000    1    12.011   -5.155464    4.045623   -0.448861
   2 H   1.0000    1     1.008   -5.178894    4.724473   -2.390954
   3 H   1.0000    1     1.008   -8.399731    2.838580    2.346864
   4 O   8.0000    1    15.999    0.476345    4.647825    1.722123
   5 C   6.0000    1    12.011   -2.890906    2.309229    0.011308
   6 H   1.0000    1     1.008   -4.315924    0.416121    2.941377
   7 S  16.0000    1    32.060   -8.096898    2.256110   -0.085703
   8 N   7.0000    1    14.007   -2.623749    1.223251    2.530223
   9 H   1.0000    1     1.008   -1.391228   -0.237355    2.362220
  10 C   6.0000    1    12.011   -0.557617    3.992693   -0.465250
  11 H   1.0000    1     1.008   -5.408194    5.565278    0.914111
  12 O   8.0000    1    15.999    0.124080    4.477355   -2.564956
  13 H   1.0000    1     1.008   -0.314156    3.848084    3.202922

------------------------------------------------------------------------------
                         ORCA GEOMETRY RELAXATION STEP
------------------------------------------------------------------------------

Reading the OPT-File                    .... done

---------------------------------------------
FINAL SINGLE POINT ENERGY       -24.270721709950
---------------------------------------------

Getting information on internals        .... done
Copying old internal coords+grads       .... done
Making the new internal coordinates     .... (2022 redundants) done
Validating the new internal coordinates .... (2022 redundants) done
Calculating the B-matrix                .... done
Calculating the G,G- and P matrices     .... done
Transforming gradient to internals      .... done
Projecting the internal gradient        .... done
Number of atoms                         ....  14
Number of internal coordinates          ....  57
Current Energy                          ....   -24.270721710 Eh
Current gradient norm                   ....     0.053367948 Eh/bohr
Maximum allowed component of the step   ....  0.300
Current trust radius                    ....  0.450
Updating the Hessian (BFGS)             .... done
Making uphill step                      .... done
Uphill step size                        .... 0.447009
Converting the step to Cartesian space:
 Initial RMS(Int)=    0.0592077630
Transforming coordinates:
 Iter   0:  RMS(Cart)=    0.0778534502 RMS(Int)=    0.8301490748
 Iter   5:  RMS(Cart)=    0.0000011836 RMS(Int)=    0.0000011546
Imposing constraints:
 Iter   0:  RMS(Cart)=    0.0004519769 RMS(Int)=    0.0000245920
CONVERGED
done
Storing new coordinates                 .... done
Current trust radius                    ....     0.4500
Energy difference                       ....     5.2481 kcal/mol
Maximum difference                      ....     0.4200 kcal/mol
New trust radius                        ....     0.3000

                                .--------------------.
          ----------------------|Geometry convergence|-------------------------
          Item                value                   Tolerance       Converged
          ---------------------------------------------------------------------
          Energy change       0.0083633280            0.0000050000      NO
          RMS gradient        0.0066366073            0.0001000000      NO
          MAX gradient        0.0168760974            0.0003000000      NO
          RMS step            0.0592077630            0.0020000000      NO
          MAX step            0.1594485151            0.0040000000      NO
          -------------------------------------------------------------------------
          ........................................................
          Max(Bonds)      0.0621      Max(Angles)    3.90
          Max(Dihed)        9.14      Max(Improp)    0.00
          ---------------------------------------------------------------------

Geometry step timings:
Preparation and reading OPT file:      0.000 s ( 1.726 %)
Internal coordinates            :      0.000 s ( 1.624 %)
B/P matrices and projection     :      0.000 s (30.152 %)
Hessian update/contruction      :      0.000 s (14.518 %)
Making the step                 :      0.000 s (38.579 %)
Converting the step to Cartesian:      0.000 s ( 7.005 %)
Storing new data                :      0.000 s ( 1.218 %)
Checking convergence            :      0.000 s ( 2.538 %)
GOAT stuff                      :      0.000 s ( 0.000 %)
Final printing                  :      0.000 s ( 2.640 %)
Total time                      :      0.001 s

Time for energy+gradient        :      0.028 s
Time for complete geometry iter :      0.030 s

         *************************************************************
         *                GEOMETRY OPTIMIZATION CYCLE   4            *
         *************************************************************
---------------------------------
CARTESIAN COORDINATES (ANGSTROEM)
---------------------------------
  H    -1.666265    0.571917   -0.839435
  C    -2.723946    2.143676   -0.226999
  H    -2.742303    2.475656   -1.263746
  H    -4.530238    1.632706    1.195163
  O     0.238519    2.486317    0.913734
  C    -1.531492    1.222672    0.036548
  H    -2.211775    0.098249    1.523878
  S    -4.273317    1.185141   -0.034227
  N    -1.364557    0.634091    1.360446
  H    -0.674188   -0.097145    1.221215
  C    -0.302110    2.114028   -0.238874
  H    -2.916757    2.930430    0.500063
  O     0.087909    2.302218   -1.353755
  H    -0.156215    2.046577    1.700462

----------------------------
CARTESIAN COORDINATES (A.U.)
----------------------------
  NO LB    ZA    FRAG    MASS        X           Y           Z
   0 H   1.0000    1     1.008   -3.148785    1.080767   -1.586303
   1 C   6.0000    1    12.011   -5.147512    4.050960   -0.428965
   2 H   1.0000    1     1.008   -5.182202    4.678312   -2.388133
   3 H   1.0000    1     1.008   -8.560910    3.085367    2.258530
   4 O   8.0000    1    15.999    0.450735    4.698459    1.726708
   5 C   6.0000    1    12.011   -2.894101    2.310516    0.069066
   6 H   1.0000    1     1.008   -4.179649    0.185664    2.879713
   7 S  16.0000    1    32.060   -8.075399    2.239592   -0.064679
   8 N   7.0000    1    14.007   -2.578639    1.198258    2.570870
   9 H   1.0000    1     1.008   -1.274030   -0.183577    2.307763
  10 C   6.0000    1    12.011   -0.570905    3.994934   -0.451407
  11 H   1.0000    1     1.008   -5.511871    5.537710    0.944982
  12 O   8.0000    1    15.999    0.166124    4.350562   -2.558227
  13 H   1.0000    1     1.008   -0.295203    3.867471    3.213408

------------------------------------------------------------------------------
                         ORCA GEOMETRY RELAXATION STEP
------------------------------------------------------------------------------

Reading the OPT-File                    .... done

---------------------------------------------
FINAL SINGLE POINT ENERGY       -24.263121147140
---------------------------------------------

Getting information on internals        .... done
Copying old internal coords+grads       .... done
Making the new internal coordinates     .... (2022 redundants) done
Validating the new internal coordinates .... (2022 redundants) done
Calculating the B-matrix                .... done
Calculating the G,G- and P matrices     .... done
Transforming gradient to internals      .... done
Projecting the internal gradient        .... done
Number of atoms                         ....  14
Number of internal coordinates          ....  57
Current Energy                          ....   -24.263121147 Eh
Current gradient norm                   ....     0.070676433 Eh/bohr
Maximum allowed component of the step   ....  0.300
Current trust radius                    ....  0.300
Updating the Hessian (BFGS)             .... done
Making uphill step                      .... done
Uphill step size                        .... 0.297277
Converting the step to Cartesian space:
 Initial RMS(Int)=    0.0393752957
Transforming coordinates:
 Iter   0:  RMS(Cart)=    0.0493235328 RMS(Int)=    0.8214413554
 Iter   5:  RMS(Cart)=    0.0000000783 RMS(Int)=    0.0000000646
Imposing constraints:
 Iter   0:  RMS(Cart)=    0.0000848934 RMS(Int)=    0.0000053087
CONVERGED
done
Storing new coordinates                 .... done
Current trust radius                    ....     0.3000
Energy difference                       ....     4.7694 kcal/mol
Maximum difference                      ....     0.4200 kcal/mol
New trust radius                        ....     0.3000

                                .--------------------.
          ----------------------|Geometry convergence|-------------------------
          Item                value                   Tolerance       Converged
          ---------------------------------------------------------------------
          Energy change       0.0076005628            0.0000050000      NO
          RMS gradient        0.0081034182            0.0001000000      NO
          MAX gradient        0.0188724335            0.0003000000      NO
          RMS step            0.0393752957            0.0020000000      NO
          MAX step            0.0973701269            0.0040000000      NO
          -------------------------------------------------------------------------
          ........................................................
          Max(Bonds)      0.0437      Max(Angles)    2.11
          Max(Dihed)        5.58      Max(Improp)    0.00
          ---------------------------------------------------------------------

Geometry step timings:
Preparation and reading OPT file:      0.000 s ( 1.655 %)
Internal coordinates            :      0.000 s ( 1.596 %)
B/P matrices and projection     :      0.001 s (30.792 %)
Hessian update/contruction      :      0.000 s (13.534 %)
Making the step                 :      0.001 s (37.884 %)
Converting the step to Cartesian:      0.000 s ( 7.683 %)
Storing new data                :      0.000 s ( 1.418 %)
Checking convergence            :      0.000 s ( 2.364 %)
GOAT stuff                      :      0.000 s ( 0.059 %)
Final printing                  :      0.000 s ( 3.014 %)
Total time                      :      0.002 s

Time for energy+gradient        :      0.034 s
Time for complete geometry iter :      0.036 s

         *************************************************************
         *                GEOMETRY OPTIMIZATION CYCLE   5            *
         *************************************************************
---------------------------------
CARTESIAN COORDINATES (ANGSTROEM)
---------------------------------
  H    -1.679552    0.587290   -0.848522
  C    -2.723780    2.142459   -0.211500
  H    -2.749260    2.471839   -1.248926
  H    -4.602155    1.701282    1.164544
  O     0.229509    2.517090    0.904772
  C    -1.531432    1.217936    0.039925
  H    -2.168838    0.021325    1.503056
  S    -4.274061    1.185102   -0.020207
  N    -1.365214    0.626362    1.362579
  H    -0.640305   -0.070806    1.224146
  C    -0.302060    2.108040   -0.239560
  H    -2.920599    2.916003    0.528546
  O     0.125182    2.263795   -1.345768
  H    -0.164171    2.058819    1.681387

----------------------------
CARTESIAN COORDINATES (A.U.)
----------------------------
  NO LB    ZA    FRAG    MASS        X           Y           Z
   0 H   1.0000    1     1.008   -3.173894    1.109818   -1.603474
   1 C   6.0000    1    12.011   -5.147198    4.048661   -0.399677
   2 H   1.0000    1     1.008   -5.195349    4.671099   -2.360127
   3 H   1.0000    1     1.008   -8.696812    3.214957    2.200669
   4 O   8.0000    1    15.999    0.433710    4.756611    1.709772
   5 C   6.0000    1    12.011   -2.893987    2.301566    0.075448
   6 H   1.0000    1     1.008   -4.098509    0.040299    2.840365
   7 S  16.0000    1    32.060   -8.076805    2.239518   -0.038185
   8 N   7.0000    1    14.007   -2.579881    1.183653    2.574901
   9 H   1.0000    1     1.008   -1.210001   -0.133805    2.313301
  10 C   6.0000    1    12.011   -0.570810    3.983618   -0.452703
  11 H   1.0000    1     1.008   -5.519132    5.510447    0.998808
  12 O   8.0000    1    15.999    0.236560    4.277952   -2.543133
  13 H   1.0000    1     1.008   -0.310238    3.890603    3.177360

------------------------------------------------------------------------------
                         ORCA GEOMETRY RELAXATION STEP
------------------------------------------------------------------------------

Reading the OPT-File                    .... done

---------------------------------------------
FINAL SINGLE POINT ENERGY       -24.261665554700
---------------------------------------------

Getting information on internals        .... done
Copying old internal coords+grads       .... done
Making the new internal coordinates     .... (2022 redundants) done
Validating the new internal coordinates .... (2022 redundants) done
Calculating the B-matrix                .... done
Calculating the G,G- and P matrices     .... done
Transforming gradient to internals      .... done
Projecting the internal gradient        .... done
Number of atoms                         ....  14
Number of internal coordinates          ....  57
Current Energy                          ....   -24.261665555 Eh
Current gradient norm                   ....     0.071074590 Eh/bohr
Maximum allowed component of the step   ....  0.300
Current trust radius                    ....  0.300
Updating the Hessian (BFGS)             .... done
Making uphill step                      .... done
Uphill step size                        .... 0.297438
Converting the step to Cartesian space:
 Initial RMS(Int)=    0.0393966458
Transforming coordinates:
 Iter   0:  RMS(Cart)=    0.0507290003 RMS(Int)=    0.0395443651
 Iter   5:  RMS(Cart)=    0.0000000503 RMS(Int)=    0.0000000359
Imposing constraints:
 Iter   0:  RMS(Cart)=    0.0000420753 RMS(Int)=    0.0000023126
CONVERGED
done
Storing new coordinates                 .... done
Current trust radius                    ....     0.3000
Energy difference                       ....     0.9134 kcal/mol
Maximum difference                      ....     0.4200 kcal/mol
New trust radius                        ....     0.3000

                                .--------------------.
          ----------------------|Geometry convergence|-------------------------
          Item                value                   Tolerance       Converged
          ---------------------------------------------------------------------
          Energy change       0.0014555924            0.0000050000      NO
          RMS gradient        0.0076407048            0.0001000000      NO
          MAX gradient        0.0174748273            0.0003000000      NO
          RMS step            0.0393966458            0.0020000000      NO
          MAX step            0.0970564709            0.0040000000      NO
          -------------------------------------------------------------------------
          ........................................................
          Max(Bonds)      0.0434      Max(Angles)    2.13
          Max(Dihed)        5.56      Max(Improp)    0.00
          ---------------------------------------------------------------------

Geometry step timings:
Preparation and reading OPT file:      0.000 s ( 3.131 %)
Internal coordinates            :      0.000 s ( 2.947 %)
B/P matrices and projection     :      0.000 s (36.188 %)
Hessian update/contruction      :      0.000 s (11.786 %)
Making the step                 :      0.000 s (35.083 %)
Converting the step to Cartesian:      0.000 s ( 5.341 %)
Storing new data                :      0.000 s ( 1.105 %)
Checking convergence            :      0.000 s ( 1.842 %)
GOAT stuff                      :      0.000 s ( 0.000 %)
Final printing                  :      0.000 s ( 2.486 %)
Total time                      :      0.001 s

Time for energy+gradient        :      0.028 s
Time for complete geometry iter :      0.029 s

         *************************************************************
         *                GEOMETRY OPTIMIZATION CYCLE   6            *
         *************************************************************
---------------------------------
CARTESIAN COORDINATES (ANGSTROEM)
---------------------------------
  H    -1.682944    0.585194   -0.863293
  C    -2.725437    2.138378   -0.192187
  H    -2.759855    2.478245   -1.225965
  H    -4.673719    1.760330    1.137646
  O     0.212273    2.552176    0.892285
  C    -1.531352    1.208551    0.029700
  H    -2.129922   -0.047888    1.481660
  S    -4.280767    1.189171   -0.001251
  N    -1.373173    0.617334    1.353499
  H    -0.607928   -0.039940    1.239077
  C    -0.299632    2.097303   -0.243685
  H    -2.899090    2.900081    0.565725
  O     0.172615    2.229938   -1.334502
  H    -0.187801    2.077661    1.655766

----------------------------
CARTESIAN COORDINATES (A.U.)
----------------------------
  NO LB    ZA    FRAG    MASS        X           Y           Z
   0 H   1.0000    1     1.008   -3.180303    1.105856   -1.631388
   1 C   6.0000    1    12.011   -5.150330    4.040949   -0.363180
   2 H   1.0000    1     1.008   -5.215371    4.683204   -2.316738
   3 H   1.0000    1     1.008   -8.832049    3.326541    2.149839
   4 O   8.0000    1    15.999    0.401138    4.822914    1.686175
   5 C   6.0000    1    12.011   -2.893837    2.283831    0.056126
   6 H   1.0000    1     1.008   -4.024970   -0.090495    2.799931
   7 S  16.0000    1    32.060   -8.089476    2.247207   -0.002364
   8 N   7.0000    1    14.007   -2.594922    1.166592    2.557742
   9 H   1.0000    1     1.008   -1.148818   -0.075475    2.341515
  10 C   6.0000    1    12.011   -0.566223    3.963328   -0.460498
  11 H   1.0000    1     1.008   -5.478487    5.480360    1.069064
  12 O   8.0000    1    15.999    0.326194    4.213973   -2.521843
  13 H   1.0000    1     1.008   -0.354892    3.926210    3.128944

------------------------------------------------------------------------------
                         ORCA GEOMETRY RELAXATION STEP
------------------------------------------------------------------------------

Reading the OPT-File                    .... done

---------------------------------------------
FINAL SINGLE POINT ENERGY       -24.262573853720
---------------------------------------------

Getting information on internals        .... done
Copying old internal coords+grads       .... done
Making the new internal coordinates     .... (2022 redundants) done
Validating the new internal coordinates .... (2022 redundants) done
Calculating the B-matrix                .... done
Calculating the G,G- and P matrices     .... done
Transforming gradient to internals      .... done
Projecting the internal gradient        .... done
Number of atoms                         ....  14
Number of internal coordinates          ....  57
Current Energy                          ....   -24.262573854 Eh
Current gradient norm                   ....     0.066100580 Eh/bohr
Maximum allowed component of the step   ....  0.300
Current trust radius                    ....  0.300
Updating the Hessian (BFGS)             .... done
Making uphill step                      .... done
Uphill step size                        .... 0.297762
Converting the step to Cartesian space:
 Initial RMS(Int)=    0.0394395114
Transforming coordinates:
 Iter   0:  RMS(Cart)=    0.0536120708 RMS(Int)=    0.0396065706
 Iter   5:  RMS(Cart)=    0.0000000358 RMS(Int)=    0.0000000270
Imposing constraints:
 Iter   0:  RMS(Cart)=    0.0000563169 RMS(Int)=    0.0000036919
CONVERGED
done
Storing new coordinates                 .... done
Current trust radius                    ....     0.3000
Energy difference                       ....     0.5700 kcal/mol
Maximum difference                      ....     0.4200 kcal/mol
New trust radius                        ....     0.3000

                                .--------------------.
          ----------------------|Geometry convergence|-------------------------
          Item                value                   Tolerance       Converged
          ---------------------------------------------------------------------
          Energy change      -0.0009082990            0.0000050000      NO
          RMS gradient        0.0066623894            0.0001000000      NO
          MAX gradient        0.0168540404            0.0003000000      NO
          RMS step            0.0394395114            0.0020000000      NO
          MAX step            0.0971075089            0.0040000000      NO
          -------------------------------------------------------------------------
          ........................................................
          Max(Bonds)      0.0408      Max(Angles)    1.80
          Max(Dihed)        5.56      Max(Improp)    0.00
          ---------------------------------------------------------------------

Geometry step timings:
Preparation and reading OPT file:      0.000 s ( 2.437 %)
Internal coordinates            :      0.000 s ( 3.959 %)
B/P matrices and projection     :      0.000 s (31.777 %)
Hessian update/contruction      :      0.000 s (13.503 %)
Making the step                 :      0.000 s (35.635 %)
Converting the step to Cartesian:      0.000 s ( 6.091 %)
Storing new data                :      0.000 s ( 1.218 %)
Checking convergence            :      0.000 s ( 2.741 %)
GOAT stuff                      :      0.000 s ( 0.102 %)
Final printing                  :      0.000 s ( 2.538 %)
Total time                      :      0.001 s

Time for energy+gradient        :      0.028 s
Time for complete geometry iter :      0.030 s

         *************************************************************
         *                GEOMETRY OPTIMIZATION CYCLE   7            *
         *************************************************************
---------------------------------
CARTESIAN COORDINATES (ANGSTROEM)
---------------------------------
  H    -1.678885    0.566809   -0.880987
  C    -2.727500    2.130828   -0.170734
  H    -2.769817    2.493015   -1.196610
  H    -4.734838    1.817730    1.114859
  O     0.181208    2.588128    0.879572
  C    -1.531598    1.194403    0.009757
  H    -2.094607   -0.110140    1.456839
  S    -4.291504    1.196293    0.021702
  N    -1.382740    0.604015    1.335006
  H    -0.574364   -0.005458    1.259026
  C    -0.297026    2.083298   -0.249951
  H    -2.855603    2.882742    0.605793
  O     0.219952    2.199136   -1.322242
  H    -0.229413    2.105737    1.632444

----------------------------
CARTESIAN COORDINATES (A.U.)
----------------------------
  NO LB    ZA    FRAG    MASS        X           Y           Z
   0 H   1.0000    1     1.008   -3.172633    1.071114   -1.664825
   1 C   6.0000    1    12.011   -5.154227    4.026682   -0.322640
   2 H   1.0000    1     1.008   -5.234196    4.711116   -2.261265
   3 H   1.0000    1     1.008   -8.947547    3.435011    2.106778
   4 O   8.0000    1    15.999    0.342434    4.890853    1.662151
   5 C   6.0000    1    12.011   -2.894301    2.257094    0.018438
   6 H   1.0000    1     1.008   -3.958233   -0.208134    2.753027
   7 S  16.0000    1    32.060   -8.109768    2.260665    0.041010
   8 N   7.0000    1    14.007   -2.612999    1.141422    2.522795
   9 H   1.0000    1     1.008   -1.085391   -0.010315    2.379215
  10 C   6.0000    1    12.011   -0.561298    3.936863   -0.472340
  11 H   1.0000    1     1.008   -5.396308    5.447592    1.144782
  12 O   8.0000    1    15.999    0.415649    4.155765   -2.498675
  13 H   1.0000    1     1.008   -0.433529    3.979266    3.084871

------------------------------------------------------------------------------
                         ORCA GEOMETRY RELAXATION STEP
------------------------------------------------------------------------------

Reading the OPT-File                    .... done

---------------------------------------------
FINAL SINGLE POINT ENERGY       -24.264802934760
---------------------------------------------

Getting information on internals        .... done
Copying old internal coords+grads       .... done
Making the new internal coordinates     .... (2022 redundants) done
Validating the new internal coordinates .... (2022 redundants) done
Calculating the B-matrix                .... done
Calculating the G,G- and P matrices     .... done
Transforming gradient to internals      .... done
Projecting the internal gradient        .... done
Number of atoms                         ....  14
Number of internal coordinates          ....  57
Current Energy                          ....   -24.264802935 Eh
Current gradient norm                   ....     0.058014397 Eh/bohr
Maximum allowed component of the step   ....  0.300
Current trust radius                    ....  0.300
Updating the Hessian (BFGS)             .... done
Making uphill step                      .... done
Uphill step size                        .... 0.298230
Converting the step to Cartesian space:
 Initial RMS(Int)=    0.0395015898
Transforming coordinates:
 Iter   0:  RMS(Cart)=    0.0571344119 RMS(Int)=    0.8205549408
 Iter   5:  RMS(Cart)=    0.0000000494 RMS(Int)=    0.0000000431
Imposing constraints:
 Iter   0:  RMS(Cart)=    0.0000899349 RMS(Int)=    0.0000051551
CONVERGED
done
Storing new coordinates                 .... done
Current trust radius                    ....     0.3000
Energy difference                       ....     1.3988 kcal/mol
Maximum difference                      ....     0.4200 kcal/mol
New trust radius                        ....     0.3000

                                .--------------------.
          ----------------------|Geometry convergence|-------------------------
          Item                value                   Tolerance       Converged
          ---------------------------------------------------------------------
          Energy change      -0.0022290810            0.0000050000      NO
          RMS gradient        0.0055819641            0.0001000000      NO
          MAX gradient        0.0148139290            0.0003000000      NO
          RMS step            0.0395015898            0.0020000000      NO
          MAX step            0.0946163450            0.0040000000      NO
          -------------------------------------------------------------------------
          ........................................................
          Max(Bonds)      0.0365      Max(Angles)    2.56
          Max(Dihed)        5.42      Max(Improp)    0.00
          ---------------------------------------------------------------------

Geometry step timings:
Preparation and reading OPT file:      0.000 s ( 5.414 %)
Internal coordinates            :      0.000 s ( 1.736 %)
B/P matrices and projection     :      0.000 s (30.950 %)
Hessian update/contruction      :      0.000 s (13.483 %)
Making the step                 :      0.000 s (36.261 %)
Converting the step to Cartesian:      0.000 s ( 6.129 %)
Storing new data                :      0.000 s ( 1.226 %)
Checking convergence            :      0.000 s ( 2.145 %)
GOAT stuff                      :      0.000 s ( 0.102 %)
Final printing                  :      0.000 s ( 2.554 %)
Total time                      :      0.001 s

Time for energy+gradient        :      0.033 s
Time for complete geometry iter :      0.035 s

         *************************************************************
         *                GEOMETRY OPTIMIZATION CYCLE   8            *
         *************************************************************
---------------------------------
CARTESIAN COORDINATES (ANGSTROEM)
---------------------------------
  H    -1.669051    0.535500   -0.898906
  C    -2.728818    2.119834   -0.148136
  H    -2.775508    2.514287   -1.161852
  H    -4.780505    1.877069    1.096319
  O     0.135869    2.623101    0.867417
  C    -1.532162    1.176333   -0.015964
  H    -2.063486   -0.166610    1.427879
  S    -4.304149    1.205254    0.047763
  N    -1.390527    0.584890    1.309605
  H    -0.540141    0.031133    1.279649
  C    -0.295421    2.067435   -0.257132
  H    -2.794653    2.863167    0.644265
  O     0.261565    2.171156   -1.310459
  H    -0.289748    2.143986    1.614027

----------------------------
CARTESIAN COORDINATES (A.U.)
----------------------------
  NO LB    ZA    FRAG    MASS        X           Y           Z
   0 H   1.0000    1     1.008   -3.154050    1.011948   -1.698687
   1 C   6.0000    1    12.011   -5.156719    4.005906   -0.279937
   2 H   1.0000    1     1.008   -5.244949    4.751315   -2.195581
   3 H   1.0000    1     1.008   -9.033846    3.547146    2.071744
   4 O   8.0000    1    15.999    0.256755    4.956942    1.639180
   5 C   6.0000    1    12.011   -2.895366    2.222947   -0.030168
   6 H   1.0000    1     1.008   -3.899423   -0.314848    2.698299
   7 S  16.0000    1    32.060   -8.133662    2.277600    0.090259
   8 N   7.0000    1    14.007   -2.627716    1.105283    2.474796
   9 H   1.0000    1     1.008   -1.020719    0.058833    2.418185
  10 C   6.0000    1    12.011   -0.558264    3.906886   -0.485908
  11 H   1.0000    1     1.008   -5.281129    5.410601    1.217484
  12 O   8.0000    1    15.999    0.494287    4.102890   -2.476409
  13 H   1.0000    1     1.008   -0.547544    4.051547    3.050068

------------------------------------------------------------------------------
                         ORCA GEOMETRY RELAXATION STEP
------------------------------------------------------------------------------

Reading the OPT-File                    .... done

---------------------------------------------
FINAL SINGLE POINT ENERGY       -24.267672724160
---------------------------------------------

Getting information on internals        .... done
Copying old internal coords+grads       .... done
Making the new internal coordinates     .... (2022 redundants) done
Validating the new internal coordinates .... (2022 redundants) done
Calculating the B-matrix                .... done
Calculating the G,G- and P matrices     .... done
Transforming gradient to internals      .... done
Projecting the internal gradient        .... done
Number of atoms                         ....  14
Number of internal coordinates          ....  57
Current Energy                          ....   -24.267672724 Eh
Current gradient norm                   ....     0.047347160 Eh/bohr
Maximum allowed component of the step   ....  0.300
Current trust radius                    ....  0.300
Updating the Hessian (BFGS)             .... done
Making uphill step                      .... done
Uphill step size                        .... 0.298740
Converting the step to Cartesian space:
 Initial RMS(Int)=    0.0395691220
Transforming coordinates:
 Iter   0:  RMS(Cart)=    0.0597052361 RMS(Int)=    0.8291425366
 Iter   5:  RMS(Cart)=    0.0000000594 RMS(Int)=    0.0000000520
Imposing constraints:
 Iter   0:  RMS(Cart)=    0.0001645087 RMS(Int)=    0.0000087150
CONVERGED
done
Storing new coordinates                 .... done
Current trust radius                    ....     0.3000
Energy difference                       ....     1.8008 kcal/mol
Maximum difference                      ....     0.4200 kcal/mol
New trust radius                        ....     0.3000

                                .--------------------.
          ----------------------|Geometry convergence|-------------------------
          Item                value                   Tolerance       Converged
          ---------------------------------------------------------------------
          Energy change      -0.0028697894            0.0000050000      NO
          RMS gradient        0.0044369450            0.0001000000      NO
          MAX gradient        0.0118367471            0.0003000000      NO
          RMS step            0.0395691220            0.0020000000      NO
          MAX step            0.0979582480            0.0040000000      NO
          -------------------------------------------------------------------------
          ........................................................
          Max(Bonds)      0.0315      Max(Angles)    2.91
          Max(Dihed)        5.61      Max(Improp)    0.00
          ---------------------------------------------------------------------

Geometry step timings:
Preparation and reading OPT file:      0.000 s ( 1.702 %)
Internal coordinates            :      0.000 s ( 1.498 %)
B/P matrices and projection     :      0.000 s (31.042 %)
Hessian update/contruction      :      0.000 s (15.044 %)
Making the step                 :      0.001 s (37.917 %)
Converting the step to Cartesian:      0.000 s ( 6.331 %)
Storing new data                :      0.000 s ( 1.361 %)
Checking convergence            :      0.000 s ( 2.383 %)
GOAT stuff                      :      0.000 s ( 0.136 %)
Final printing                  :      0.000 s ( 2.587 %)
Total time                      :      0.001 s

Time for energy+gradient        :      0.030 s
Time for complete geometry iter :      0.032 s

         *************************************************************
         *                GEOMETRY OPTIMIZATION CYCLE   9            *
         *************************************************************
---------------------------------
CARTESIAN COORDINATES (ANGSTROEM)
---------------------------------
  H    -1.656697    0.497680   -0.913700
  C    -2.728955    2.106863   -0.124544
  H    -2.775453    2.540648   -1.122071
  H    -4.811641    1.939861    1.077972
  O     0.081257    2.654939    0.855234
  C    -1.533170    1.156618   -0.042187
  H    -2.035786   -0.218616    1.395734
  S    -4.315965    1.213654    0.075650
  N    -1.393297    0.559637    1.281085
  H    -0.505545    0.067359    1.297186
  C    -0.294913    2.050636   -0.264006
  H    -2.726406    2.841368    0.678745
  O     0.295042    2.144400   -1.300178
  H    -0.365206    2.191489    1.599553

----------------------------
CARTESIAN COORDINATES (A.U.)
----------------------------
  NO LB    ZA    FRAG    MASS        X           Y           Z
   0 H   1.0000    1     1.008   -3.130703    0.940478   -1.726643
   1 C   6.0000    1    12.011   -5.156977    3.981394   -0.235354
   2 H   1.0000    1     1.008   -5.244846    4.801129   -2.120407
   3 H   1.0000    1     1.008   -9.092683    3.665806    2.037072
   4 O   8.0000    1    15.999    0.153553    5.017108    1.616158
   5 C   6.0000    1    12.011   -2.897271    2.185690   -0.079722
   6 H   1.0000    1     1.008   -3.847079   -0.413125    2.637556
   7 S  16.0000    1    32.060   -8.155991    2.293474    0.142958
   8 N   7.0000    1    14.007   -2.632950    1.057561    2.420900
   9 H   1.0000    1     1.008   -0.955341    0.127291    2.451326
  10 C   6.0000    1    12.011   -0.557305    3.875140   -0.498900
  11 H   1.0000    1     1.008   -5.152161    5.369407    1.282642
  12 O   8.0000    1    15.999    0.557549    4.052328   -2.456981
  13 H   1.0000    1     1.008   -0.690140    4.141313    3.022717

------------------------------------------------------------------------------
                         ORCA GEOMETRY RELAXATION STEP
------------------------------------------------------------------------------

Reading the OPT-File                    .... done

---------------------------------------------
FINAL SINGLE POINT ENERGY       -24.270256677060
---------------------------------------------

Getting information on internals        .... done
Copying old internal coords+grads       .... done
Making the new internal coordinates     .... (2022 redundants) done
Validating the new internal coordinates .... (2022 redundants) done
Calculating the B-matrix                .... done
Calculating the G,G- and P matrices     .... done
Transforming gradient to internals      .... done
Projecting the internal gradient        .... done
Number of atoms                         ....  14
Number of internal coordinates          ....  57
Current Energy                          ....   -24.270256677 Eh
Current gradient norm                   ....     0.035191311 Eh/bohr
Maximum allowed component of the step   ....  0.300
Current trust radius                    ....  0.300
Updating the Hessian (BFGS)             .... done
Making uphill step                      .... done
Uphill step size                        .... 0.299112
Converting the step to Cartesian space:
 Initial RMS(Int)=    0.0396183296
Transforming coordinates:
 Iter   0:  RMS(Cart)=    0.0578421712 RMS(Int)=    0.0398883908
 Iter   5:  RMS(Cart)=    0.0000000431 RMS(Int)=    0.0000000381
Imposing constraints:
 Iter   0:  RMS(Cart)=    0.0002588413 RMS(Int)=    0.0000131139
CONVERGED
done
Storing new coordinates                 .... done
Current trust radius                    ....     0.3000
Energy difference                       ....     1.6215 kcal/mol
Maximum difference                      ....     0.4200 kcal/mol
New trust radius                        ....     0.3000

                                .--------------------.
          ----------------------|Geometry convergence|-------------------------
          Item                value                   Tolerance       Converged
          ---------------------------------------------------------------------
          Energy change      -0.0025839529            0.0000050000      NO
          RMS gradient        0.0032450547            0.0001000000      NO
          MAX gradient        0.0085868541            0.0003000000      NO
          RMS step            0.0396183296            0.0020000000      NO
          MAX step            0.1059421999            0.0040000000      NO
          -------------------------------------------------------------------------
          ........................................................
          Max(Bonds)      0.0318      Max(Angles)    2.61
          Max(Dihed)        6.07      Max(Improp)    0.00
          ---------------------------------------------------------------------

Geometry step timings:
Preparation and reading OPT file:      0.000 s ( 2.486 %)
Internal coordinates            :      0.000 s ( 2.176 %)
B/P matrices and projection     :      0.001 s (51.671 %)
Hessian update/contruction      :      0.000 s ( 9.946 %)
Making the step                 :      0.000 s (25.486 %)
Converting the step to Cartesian:      0.000 s ( 4.196 %)
Storing new data                :      0.000 s ( 0.855 %)
Checking convergence            :      0.000 s ( 1.399 %)
GOAT stuff                      :      0.000 s ( 0.000 %)
Final printing                  :      0.000 s ( 1.632 %)
Total time                      :      0.001 s

Time for energy+gradient        :      0.029 s
Time for complete geometry iter :      0.031 s

         *************************************************************
         *                GEOMETRY OPTIMIZATION CYCLE  10            *
         *************************************************************
---------------------------------
CARTESIAN COORDINATES (ANGSTROEM)
---------------------------------
  H    -1.647735    0.463549   -0.922306
  C    -2.728797    2.094611   -0.098229
  H    -2.771893    2.571382   -1.076096
  H    -4.840296    2.004701    1.046020
  O     0.032450    2.680546    0.840613
  C    -1.534815    1.139226   -0.062247
  H    -2.008937   -0.266630    1.364570
  S    -4.324291    1.216728    0.102327
  N    -1.389006    0.530421    1.254984
  H    -0.470958    0.100436    1.309773
  C    -0.294479    2.033679   -0.270272
  H    -2.668481    2.817808    0.713020
  O     0.319459    2.116288   -1.293378
  H    -0.438957    2.243790    1.585694

----------------------------
CARTESIAN COORDINATES (A.U.)
----------------------------
  NO LB    ZA    FRAG    MASS        X           Y           Z
   0 H   1.0000    1     1.008   -3.113768    0.875981   -1.742906
   1 C   6.0000    1    12.011   -5.156680    3.958241   -0.185625
   2 H   1.0000    1     1.008   -5.238119    4.859208   -2.033526
   3 H   1.0000    1     1.008   -9.146834    3.788337    1.976692
   4 O   8.0000    1    15.999    0.061322    5.065497    1.588529
   5 C   6.0000    1    12.011   -2.900379    2.152825   -0.117629
   6 H   1.0000    1     1.008   -3.796340   -0.503858    2.578663
   7 S  16.0000    1    32.060   -8.171725    2.299283    0.193370
   8 N   7.0000    1    14.007   -2.624840    1.002351    2.371576
   9 H   1.0000    1     1.008   -0.889981    0.189796    2.475111
  10 C   6.0000    1    12.011   -0.556484    3.843096   -0.510739
  11 H   1.0000    1     1.008   -5.042697    5.324886    1.347413
  12 O   8.0000    1    15.999    0.603690    3.999204   -2.444130
  13 H   1.0000    1     1.008   -0.829509    4.240148    2.996528

------------------------------------------------------------------------------
                         ORCA GEOMETRY RELAXATION STEP
------------------------------------------------------------------------------

Reading the OPT-File                    .... done

---------------------------------------------
FINAL SINGLE POINT ENERGY       -24.271669942010
---------------------------------------------

Getting information on internals        .... done
Copying old internal coords+grads       .... done
Making the new internal coordinates     .... (2022 redundants) done
Validating the new internal coordinates .... (2022 redundants) done
Calculating the B-matrix                .... done
Calculating the G,G- and P matrices     .... done
Transforming gradient to internals      .... done
Projecting the internal gradient        .... done
Number of atoms                         ....  14
Number of internal coordinates          ....  57
Current Energy                          ....   -24.271669942 Eh
Current gradient norm                   ....     0.024503415 Eh/bohr
Maximum allowed component of the step   ....  0.300
Current trust radius                    ....  0.300
Updating the Hessian (BFGS)             .... done
Making uphill step                      .... done
Uphill step size                        .... 0.299223
Converting the step to Cartesian space:
 Initial RMS(Int)=    0.0396330354
Transforming coordinates:
 Iter   0:  RMS(Cart)=    0.0522932261 RMS(Int)=    0.0397899715
 Iter   5:  RMS(Cart)=    0.0000000723 RMS(Int)=    0.0000000708
Imposing constraints:
 Iter   0:  RMS(Cart)=    0.0003625899 RMS(Int)=    0.0000177877
CONVERGED
done
Storing new coordinates                 .... done
Current trust radius                    ....     0.3000
Energy difference                       ....     0.8868 kcal/mol
Maximum difference                      ....     0.4200 kcal/mol
New trust radius                        ....     0.3000

                                .--------------------.
          ----------------------|Geometry convergence|-------------------------
          Item                value                   Tolerance       Converged
          ---------------------------------------------------------------------
          Energy change      -0.0014132649            0.0000050000      NO
          RMS gradient        0.0022591537            0.0001000000      NO
          MAX gradient        0.0058384673            0.0003000000      NO
          RMS step            0.0396330354            0.0020000000      NO
          MAX step            0.1286790854            0.0040000000      NO
          -------------------------------------------------------------------------
          ........................................................
          Max(Bonds)      0.0426      Max(Angles)    1.92
          Max(Dihed)        7.37      Max(Improp)    0.00
          ---------------------------------------------------------------------

Geometry step timings:
Preparation and reading OPT file:      0.000 s ( 1.896 %)
Internal coordinates            :      0.000 s ( 1.589 %)
B/P matrices and projection     :      0.001 s (32.342 %)
Hessian update/contruction      :      0.000 s (17.427 %)
Making the step                 :      0.001 s (37.827 %)
Converting the step to Cartesian:      0.000 s ( 4.100 %)
Storing new data                :      0.000 s ( 1.128 %)
Checking convergence            :      0.000 s ( 1.025 %)
GOAT stuff                      :      0.000 s ( 0.051 %)
Final printing                  :      0.000 s ( 2.614 %)
Total time                      :      0.002 s

Time for energy+gradient        :      0.029 s
Time for complete geometry iter :      0.032 s

         *************************************************************
         *                GEOMETRY OPTIMIZATION CYCLE  11            *
         *************************************************************
---------------------------------
CARTESIAN COORDINATES (ANGSTROEM)
---------------------------------
  H    -1.648426    0.443047   -0.923193
  C    -2.730230    2.085324   -0.066731
  H    -2.769609    2.604236   -1.023063
  H    -4.884645    2.066545    0.979501
  O     0.011006    2.696137    0.821630
  C    -1.537139    1.128156   -0.070413
  H    -1.980963   -0.308172    1.341613
  S    -4.328026    1.209297    0.123333
  N    -1.378745    0.503095    1.237719
  H    -0.438918    0.127747    1.318595
  C    -0.293811    2.018718   -0.277266
  H    -2.637825    2.792394    0.755638
  O     0.329865    2.088747   -1.295409
  H    -0.479268    2.291265    1.572520

----------------------------
CARTESIAN COORDINATES (A.U.)
----------------------------
  NO LB    ZA    FRAG    MASS        X           Y           Z
   0 H   1.0000    1     1.008   -3.115073    0.837238   -1.744583
   1 C   6.0000    1    12.011   -5.159388    3.940691   -0.126102
   2 H   1.0000    1     1.008   -5.233803    4.921293   -1.933308
   3 H   1.0000    1     1.008   -9.230641    3.905203    1.850988
   4 O   8.0000    1    15.999    0.020799    5.094961    1.552656
   5 C   6.0000    1    12.011   -2.904772    2.131906   -0.133062
   6 H   1.0000    1     1.008   -3.743478   -0.582361    2.535280
   7 S  16.0000    1    32.060   -8.178785    2.285240    0.233065
   8 N   7.0000    1    14.007   -2.605451    0.950712    2.338950
   9 H   1.0000    1     1.008   -0.829436    0.241408    2.491784
  10 C   6.0000    1    12.011   -0.555222    3.814823   -0.523957
  11 H   1.0000    1     1.008   -4.984767    5.276860    1.427949
  12 O   8.0000    1    15.999    0.623355    3.947159   -2.447969
  13 H   1.0000    1     1.008   -0.905685    4.329864    2.971633

------------------------------------------------------------------------------
                         ORCA GEOMETRY RELAXATION STEP
------------------------------------------------------------------------------

Reading the OPT-File                    .... done

---------------------------------------------
FINAL SINGLE POINT ENERGY       -24.271937446740
---------------------------------------------

Getting information on internals        .... done
Copying old internal coords+grads       .... done
Making the new internal coordinates     .... (2022 redundants) done
Validating the new internal coordinates .... (2022 redundants) done
Calculating the B-matrix                .... done
Calculating the G,G- and P matrices     .... done
Transforming gradient to internals      .... done
Projecting the internal gradient        .... done
Number of atoms                         ....  14
Number of internal coordinates          ....  57
Current Energy                          ....   -24.271937447 Eh
Current gradient norm                   ....     0.019074049 Eh/bohr
Maximum allowed component of the step   ....  0.300
Current trust radius                    ....  0.300
Updating the Hessian (BFGS)             .... done
Making uphill step                      .... done
Uphill step size                        .... 0.299230
Converting the step to Cartesian space:
 Initial RMS(Int)=    0.0396339599
Transforming coordinates:
 Iter   0:  RMS(Cart)=    0.0529334283 RMS(Int)=    0.8300479953
 Iter   5:  RMS(Cart)=    0.0000002737 RMS(Int)=    0.0000002653
Imposing constraints:
 Iter   0:  RMS(Cart)=    0.0004352262 RMS(Int)=    0.0000219989
CONVERGED
done
Storing new coordinates                 .... done
Current trust radius                    ....     0.3000
Energy difference                       ....     0.1679 kcal/mol
Maximum difference                      ....     0.4200 kcal/mol
New trust radius                        ....     0.4500

                                .--------------------.
          ----------------------|Geometry convergence|-------------------------
          Item                value                   Tolerance       Converged
          ---------------------------------------------------------------------
          Energy change      -0.0002675047            0.0000050000      NO
          RMS gradient        0.0018312297            0.0001000000      NO
          MAX gradient        0.0058747485            0.0003000000      NO
          RMS step            0.0396339599            0.0020000000      NO
          MAX step            0.1457703845            0.0040000000      NO
          -------------------------------------------------------------------------
          ........................................................
          Max(Bonds)      0.0479      Max(Angles)    1.51
          Max(Dihed)        8.35      Max(Improp)    0.00
          ---------------------------------------------------------------------

Geometry step timings:
Preparation and reading OPT file:      0.000 s ( 2.752 %)
Internal coordinates            :      0.000 s ( 2.236 %)
B/P matrices and projection     :      0.000 s (37.231 %)
Hessian update/contruction      :      0.000 s (15.907 %)
Making the step                 :      0.000 s (31.126 %)
Converting the step to Cartesian:      0.000 s ( 5.503 %)
Storing new data                :      0.000 s ( 1.204 %)
Checking convergence            :      0.000 s ( 1.978 %)
GOAT stuff                      :      0.000 s ( 0.000 %)
Final printing                  :      0.000 s ( 1.892 %)
Total time                      :      0.001 s

Time for energy+gradient        :      0.030 s
Time for complete geometry iter :      0.032 s

         *************************************************************
         *                GEOMETRY OPTIMIZATION CYCLE  12            *
         *************************************************************
---------------------------------
CARTESIAN COORDINATES (ANGSTROEM)
---------------------------------
  H    -1.658117    0.435282   -0.917278
  C    -2.733208    2.079252   -0.030730
  H    -2.769959    2.636576   -0.965306
  H    -4.941439    2.118846    0.876570
  O     0.018453    2.701807    0.800040
  C    -1.539889    1.123072   -0.067595
  H    -1.955611   -0.339320    1.330249
  S    -4.327858    1.193296    0.138603
  N    -1.365181    0.481044    1.230202
  H    -0.411550    0.145750    1.324378
  C    -0.293741    2.006952   -0.285822
  H    -2.631259    2.766155    0.807452
  O     0.322554    2.067481   -1.309056
  H    -0.479931    2.330342    1.562767

----------------------------
CARTESIAN COORDINATES (A.U.)
----------------------------
  NO LB    ZA    FRAG    MASS        X           Y           Z
   0 H   1.0000    1     1.008   -3.133387    0.822564   -1.733403
   1 C   6.0000    1    12.011   -5.165015    3.929218   -0.058072
   2 H   1.0000    1     1.008   -5.234463    4.982406   -1.824164
   3 H   1.0000    1     1.008   -9.337966    4.004039    1.656478
   4 O   8.0000    1    15.999    0.034871    5.105676    1.511856
   5 C   6.0000    1    12.011   -2.909969    2.122298   -0.127736
   6 H   1.0000    1     1.008   -3.695569   -0.641223    2.513805
   7 S  16.0000    1    32.060   -8.178466    2.255003    0.261921
   8 N   7.0000    1    14.007   -2.579817    0.909041    2.324745
   9 H   1.0000    1     1.008   -0.777717    0.275428    2.502712
  10 C   6.0000    1    12.011   -0.555089    3.792589   -0.540124
  11 H   1.0000    1     1.008   -4.972359    5.227275    1.525862
  12 O   8.0000    1    15.999    0.609539    3.906972   -2.473757
  13 H   1.0000    1     1.008   -0.906939    4.403708    2.953202

------------------------------------------------------------------------------
                         ORCA GEOMETRY RELAXATION STEP
------------------------------------------------------------------------------

Reading the OPT-File                    .... done

---------------------------------------------
FINAL SINGLE POINT ENERGY       -24.271939066900
---------------------------------------------

Getting information on internals        .... done
Copying old internal coords+grads       .... done
Making the new internal coordinates     .... (2022 redundants) done
Validating the new internal coordinates .... (2022 redundants) done
Calculating the B-matrix                .... done
Calculating the G,G- and P matrices     .... done
Transforming gradient to internals      .... done
Projecting the internal gradient        .... done
Number of atoms                         ....  14
Number of internal coordinates          ....  57
Current Energy                          ....   -24.271939067 Eh
Current gradient norm                   ....     0.017983272 Eh/bohr
Maximum allowed component of the step   ....  0.300
Current trust radius                    ....  0.450
Updating the Hessian (BFGS)             .... done
Making uphill step                      .... done
Uphill step size                        .... 0.449470
Converting the step to Cartesian space:
 Initial RMS(Int)=    0.0595337390
Transforming coordinates:
 Iter   0:  RMS(Cart)=    0.0850987555 RMS(Int)=    0.0593499353
 Iter   5:  RMS(Cart)=    0.0000058527 RMS(Int)=    0.0000053734
Imposing constraints:
 Iter   0:  RMS(Cart)=    0.0004037191 RMS(Int)=    0.0000207920
CONVERGED
done
Storing new coordinates                 .... done
Current trust radius                    ....     0.4500
Energy difference                       ....     0.0010 kcal/mol
Maximum difference                      ....     0.4200 kcal/mol
New trust radius                        ....     0.6750

                                .--------------------.
          ----------------------|Geometry convergence|-------------------------
          Item                value                   Tolerance       Converged
          ---------------------------------------------------------------------
          Energy change      -0.0000016202            0.0000050000      YES
          RMS gradient        0.0017448771            0.0001000000      NO
          MAX gradient        0.0059612668            0.0003000000      NO
          RMS step            0.0595337390            0.0020000000      NO
          MAX step            0.2313668003            0.0040000000      NO
          -------------------------------------------------------------------------
          ........................................................
          Max(Bonds)      0.0699      Max(Angles)    1.65
          Max(Dihed)       13.26      Max(Improp)    0.00
          ---------------------------------------------------------------------

Geometry step timings:
Preparation and reading OPT file:      0.000 s ( 2.020 %)
Internal coordinates            :      0.000 s ( 1.916 %)
B/P matrices and projection     :      0.001 s (30.917 %)
Hessian update/contruction      :      0.000 s (14.190 %)
Making the step                 :      0.001 s (37.235 %)
Converting the step to Cartesian:      0.000 s ( 7.147 %)
Storing new data                :      0.000 s ( 1.295 %)
Checking convergence            :      0.000 s ( 1.968 %)
GOAT stuff                      :      0.000 s ( 0.104 %)
Final printing                  :      0.000 s ( 3.107 %)
Total time                      :      0.002 s

Time for energy+gradient        :      0.031 s
Time for complete geometry iter :      0.034 s

         *************************************************************
         *                GEOMETRY OPTIMIZATION CYCLE  13            *
         *************************************************************
---------------------------------
CARTESIAN COORDINATES (ANGSTROEM)
---------------------------------
  H    -1.681860    0.434610   -0.902049
  C    -2.737517    2.074231    0.028711
  H    -2.772836    2.682653   -0.873491
  H    -5.020963    2.177411    0.682420
  O     0.050085    2.702383    0.765628
  C    -1.544615    1.120363   -0.053580
  H    -1.925189   -0.370961    1.327679
  S    -4.323969    1.167484    0.160914
  N    -1.342647    0.455125    1.228476
  H    -0.377182    0.157007    1.326986
  C    -0.296363    1.993612   -0.300675
  H    -2.635895    2.726247    0.894346
  O     0.292709    2.045287   -1.340298
  H    -0.450495    2.381083    1.549409

----------------------------
CARTESIAN COORDINATES (A.U.)
----------------------------
  NO LB    ZA    FRAG    MASS        X           Y           Z
   0 H   1.0000    1     1.008   -3.178256    0.821295   -1.704626
   1 C   6.0000    1    12.011   -5.173156    3.919728    0.054255
   2 H   1.0000    1     1.008   -5.239901    5.069479   -1.650658
   3 H   1.0000    1     1.008   -9.488244    4.114710    1.289587
   4 O   8.0000    1    15.999    0.094647    5.106764    1.446827
   5 C   6.0000    1    12.011   -2.918898    2.117179   -0.101252
   6 H   1.0000    1     1.008   -3.638079   -0.701015    2.508949
   7 S  16.0000    1    32.060   -8.171117    2.206225    0.304084
   8 N   7.0000    1    14.007   -2.537235    0.860061    2.321483
   9 H   1.0000    1     1.008   -0.712770    0.296700    2.507640
  10 C   6.0000    1    12.011   -0.560044    3.767381   -0.568194
  11 H   1.0000    1     1.008   -4.981119    5.151861    1.690068
  12 O   8.0000    1    15.999    0.553139    3.865032   -2.532796
  13 H   1.0000    1     1.008   -0.851313    4.499595    2.927958

------------------------------------------------------------------------------
                         ORCA GEOMETRY RELAXATION STEP
------------------------------------------------------------------------------

Reading the OPT-File                    .... done

---------------------------------------------
FINAL SINGLE POINT ENERGY       -24.272014443550
---------------------------------------------

Getting information on internals        .... done
Copying old internal coords+grads       .... done
Making the new internal coordinates     .... (2022 redundants) done
Validating the new internal coordinates .... (2022 redundants) done
Calculating the B-matrix                .... done
Calculating the G,G- and P matrices     .... done
Transforming gradient to internals      .... done
Projecting the internal gradient        .... done
Number of atoms                         ....  14
Number of internal coordinates          ....  57
Current Energy                          ....   -24.272014444 Eh
Current gradient norm                   ....     0.019183520 Eh/bohr
Maximum allowed component of the step   ....  0.300
Current trust radius                    ....  0.675
Updating the Hessian (BFGS)             .... done
Making uphill step                      .... done
Uphill step size                        .... 0.591192
Converting the step to Cartesian space:
 Initial RMS(Int)=    0.0783053561
Transforming coordinates:
 Iter   0:  RMS(Cart)=    0.1204229356 RMS(Int)=    0.0778431929
 Iter   5:  RMS(Cart)=    0.0000318544 RMS(Int)=    0.0000272504
Imposing constraints:
 Iter   0:  RMS(Cart)=    0.0003644270 RMS(Int)=    0.0000192421
CONVERGED
done
Storing new coordinates                 .... done
Current trust radius                    ....     0.6750
Energy difference                       ....     0.0473 kcal/mol
Maximum difference                      ....     0.4200 kcal/mol
New trust radius                        ....     0.7000

                                .--------------------.
          ----------------------|Geometry convergence|-------------------------
          Item                value                   Tolerance       Converged
          ---------------------------------------------------------------------
          Energy change      -0.0000753766            0.0000050000      NO
          RMS gradient        0.0017941936            0.0001000000      NO
          MAX gradient        0.0068281947            0.0003000000      NO
          RMS step            0.0783053561            0.0020000000      NO
          MAX step            0.3000000000            0.0040000000      NO
          -------------------------------------------------------------------------
          ........................................................
          Max(Bonds)      0.0952      Max(Angles)    1.72
          Max(Dihed)       17.19      Max(Improp)    0.00
          ---------------------------------------------------------------------

Geometry step timings:
Preparation and reading OPT file:      0.000 s ( 1.837 %)
Internal coordinates            :      0.000 s ( 1.547 %)
B/P matrices and projection     :      0.001 s (28.661 %)
Hessian update/contruction      :      0.000 s (16.916 %)
Making the step                 :      0.001 s (36.781 %)
Converting the step to Cartesian:      0.000 s ( 7.830 %)
Storing new data                :      0.000 s ( 1.305 %)
Checking convergence            :      0.000 s ( 2.127 %)
GOAT stuff                      :      0.000 s ( 0.048 %)
Final printing                  :      0.000 s ( 2.852 %)
Total time                      :      0.002 s

Time for energy+gradient        :      0.031 s
Time for complete geometry iter :      0.034 s

         *************************************************************
         *                GEOMETRY OPTIMIZATION CYCLE  14            *
         *************************************************************
---------------------------------
CARTESIAN COORDINATES (ANGSTROEM)
---------------------------------
  H    -1.724496    0.443664   -0.873260
  C    -2.742744    2.074119    0.115103
  H    -2.773786    2.746702   -0.740503
  H    -5.085890    2.210353    0.388201
  O     0.107529    2.696326    0.713979
  C    -1.553441    1.122562   -0.025422
  H    -1.904321   -0.390647    1.342804
  S    -4.317704    1.140483    0.180863
  N    -1.314493    0.429193    1.235190
  H    -0.342311    0.150059    1.322645
  C    -0.306002    1.980902   -0.323588
  H    -2.652488    2.668784    1.022299
  O     0.230360    2.025131   -1.391694
  H    -0.386949    2.448903    1.527859

----------------------------
CARTESIAN COORDINATES (A.U.)
----------------------------
  NO LB    ZA    FRAG    MASS        X           Y           Z
   0 H   1.0000    1     1.008   -3.258826    0.838403   -1.650223
   1 C   6.0000    1    12.011   -5.183035    3.919517    0.217512
   2 H   1.0000    1     1.008   -5.241695    5.190514   -1.399348
   3 H   1.0000    1     1.008   -9.610940    4.176962    0.733593
   4 O   8.0000    1    15.999    0.203200    5.095318    1.349225
   5 C   6.0000    1    12.011   -2.935577    2.121335   -0.048041
[...]
  H    -0.128267    1.727457    1.501431

----------------------------
CARTESIAN COORDINATES (A.U.)
----------------------------
  NO LB    ZA    FRAG    MASS        X           Y           Z
   0 H   1.0000    1     1.008   -3.470807    1.597914   -2.109558
   1 C   6.0000    1    12.011   -5.235335    4.289965    0.351681
   2 H   1.0000    1     1.008   -5.272726    5.746829   -1.100668
   3 H   1.0000    1     1.008   -8.399903    2.010909    2.610554
   4 O   8.0000    1    15.999    0.531620    4.421323    1.604774
   5 C   6.0000    1    12.011   -3.072032    2.476707   -0.269378
   6 H   1.0000    1     1.008   -3.931942   -0.546728    2.101965
   7 S  16.0000    1    32.060   -8.403019    2.896448    0.251747
   8 N   7.0000    1    14.007   -2.510156    0.695630    1.757425
   9 H   1.0000    1     1.008   -0.962208   -0.333393    1.282709
  10 C   6.0000    1    12.011   -0.719408    4.176728   -0.553397
  11 H   1.0000    1     1.008   -4.957252    5.158687    2.195388
  12 O   8.0000    1    15.999   -0.156787    5.239557   -2.467210
  13 H   1.0000    1     1.008   -0.242389    3.264421    2.837293

------------------------------------------------------------------------------
                         ORCA GEOMETRY RELAXATION STEP
------------------------------------------------------------------------------

Reading the OPT-File                    .... done

---------------------------------------------
FINAL SINGLE POINT ENERGY       -24.276677059200
---------------------------------------------

Getting information on internals        .... done
Copying old internal coords+grads       .... done
Making the new internal coordinates     .... (2022 redundants) done
Validating the new internal coordinates .... (2022 redundants) done
Calculating the B-matrix                .... done
Calculating the G,G- and P matrices     .... done
Transforming gradient to internals      .... done
Projecting the internal gradient        .... done
Number of atoms                         ....  14
Number of internal coordinates          ....  57
Current Energy                          ....   -24.276677059 Eh
Current gradient norm                   ....     0.010801590 Eh/bohr
Maximum allowed component of the step   ....  0.300
Current trust radius                    ....  0.300
Updating the Hessian (BFGS)             .... done
Making uphill step                      .... done
Uphill step size                        .... 0.299688
Converting the step to Cartesian space:
 Initial RMS(Int)=    0.0396946356
Transforming coordinates:
 Iter   0:  RMS(Cart)=    0.0646016912 RMS(Int)=    0.0396849194
 Iter   5:  RMS(Cart)=    0.0000002511 RMS(Int)=    0.0000002269
Imposing constraints:
 Iter   0:  RMS(Cart)=    0.0000635398 RMS(Int)=    0.0000040609
CONVERGED
done
Storing new coordinates                 .... done
Current trust radius                    ....     0.3000
Energy difference                       ....     0.3681 kcal/mol
Maximum difference                      ....     0.4200 kcal/mol
New trust radius                        ....     0.4500

                                .--------------------.
          ----------------------|Geometry convergence|-------------------------
          Item                value                   Tolerance       Converged
          ---------------------------------------------------------------------
          Energy change      -0.0005866336            0.0000050000      NO
          RMS gradient        0.0009348624            0.0001000000      NO
          MAX gradient        0.0022834702            0.0003000000      NO
          RMS step            0.0396946356            0.0020000000      NO
          MAX step            0.1024891339            0.0040000000      NO
          -------------------------------------------------------------------------
          ........................................................
          Max(Bonds)      0.0542      Max(Angles)    1.37
          Max(Dihed)        4.87      Max(Improp)    0.00
          ---------------------------------------------------------------------

Geometry step timings:
Preparation and reading OPT file:      0.000 s ( 2.145 %)
Internal coordinates            :      0.000 s ( 1.583 %)
B/P matrices and projection     :      0.001 s (33.044 %)
Hessian update/contruction      :      0.000 s (16.394 %)
Making the step                 :      0.001 s (37.743 %)
Converting the step to Cartesian:      0.000 s ( 3.728 %)
Storing new data                :      0.000 s ( 0.817 %)
Checking convergence            :      0.000 s ( 1.124 %)
GOAT stuff                      :      0.000 s ( 0.051 %)
Final printing                  :      0.000 s ( 3.371 %)
Total time                      :      0.002 s

Time for energy+gradient        :      0.028 s
Time for complete geometry iter :      0.031 s

         *************************************************************
         *                GEOMETRY OPTIMIZATION CYCLE  96            *
         *************************************************************
---------------------------------
CARTESIAN COORDINATES (ANGSTROEM)
---------------------------------
  H    -1.871315    0.831019   -1.103456
  C    -2.755583    2.281715    0.215527
  H    -2.757711    3.090115   -0.513783
  H    -4.428893    0.981339    1.307102
  O     0.276719    2.371517    0.819145
  C    -1.632917    1.306117   -0.140913
  H    -2.088840   -0.302221    1.088266
  S    -4.444599    1.579110    0.115426
  N    -1.346073    0.375433    0.944724
  H    -0.515021   -0.159152    0.711947
  C    -0.383242    2.194303   -0.317672
  H    -2.615678    2.692634    1.213748
  O    -0.067901    2.700909   -1.354266
  H    -0.135682    1.803697    1.508679

----------------------------
CARTESIAN COORDINATES (A.U.)
----------------------------
  NO LB    ZA    FRAG    MASS        X           Y           Z
   0 H   1.0000    1     1.008   -3.536272    1.570397   -2.085229
   1 C   6.0000    1    12.011   -5.207297    4.311816    0.407286
   2 H   1.0000    1     1.008   -5.211319    5.839471   -0.970909
   3 H   1.0000    1     1.008   -8.369395    1.854462    2.470064
   4 O   8.0000    1    15.999    0.522923    4.481518    1.547961
   5 C   6.0000    1    12.011   -3.085766    2.468204   -0.266288
   6 H   1.0000    1     1.008   -3.947336   -0.571115    2.056525
   7 S  16.0000    1    32.060   -8.399075    2.984085    0.218124
   8 N   7.0000    1    14.007   -2.543709    0.709466    1.785269
   9 H   1.0000    1     1.008   -0.973248   -0.300753    1.345385
  10 C   6.0000    1    12.011   -0.724223    4.146631   -0.600312
  11 H   1.0000    1     1.008   -4.942915    5.088341    2.293652
  12 O   8.0000    1    15.999   -0.128314    5.103977   -2.559193
  13 H   1.0000    1     1.008   -0.256401    3.408494    2.850991

------------------------------------------------------------------------------
                         ORCA GEOMETRY RELAXATION STEP
------------------------------------------------------------------------------

Reading the OPT-File                    .... done

---------------------------------------------
FINAL SINGLE POINT ENERGY       -24.276770512140
---------------------------------------------

Getting information on internals        .... done
Copying old internal coords+grads       .... done
Making the new internal coordinates     .... (2022 redundants) done
Validating the new internal coordinates .... (2022 redundants) done
Calculating the B-matrix                .... done
Calculating the G,G- and P matrices     .... done
Transforming gradient to internals      .... done
Projecting the internal gradient        .... done
Number of atoms                         ....  14
Number of internal coordinates          ....  57
Current Energy                          ....   -24.276770512 Eh
Current gradient norm                   ....     0.009983500 Eh/bohr
Maximum allowed component of the step   ....  0.300
Current trust radius                    ....  0.450
Updating the Hessian (BFGS)             .... done
Making uphill step                      .... done
Uphill step size                        .... 0.449583
Converting the step to Cartesian space:
 Initial RMS(Int)=    0.0595487564
Transforming coordinates:
 Iter   0:  RMS(Cart)=    0.0978711176 RMS(Int)=    0.0596859823
 Iter   5:  RMS(Cart)=    0.0000062842 RMS(Int)=    0.0000052776
Imposing constraints:
 Iter   0:  RMS(Cart)=    0.0002001248 RMS(Int)=    0.0000127437
CONVERGED
done
Storing new coordinates                 .... done
Current trust radius                    ....     0.4500
Energy difference                       ....     0.0586 kcal/mol
Maximum difference                      ....     0.4200 kcal/mol
New trust radius                        ....     0.6750

                                .--------------------.
          ----------------------|Geometry convergence|-------------------------
          Item                value                   Tolerance       Converged
          ---------------------------------------------------------------------
          Energy change      -0.0000934529            0.0000050000      NO
          RMS gradient        0.0009289834            0.0001000000      NO
          MAX gradient        0.0030882276            0.0003000000      NO
          RMS step            0.0595487564            0.0020000000      NO
          MAX step            0.1396163587            0.0040000000      NO
          -------------------------------------------------------------------------
          ........................................................
          Max(Bonds)      0.0705      Max(Angles)    1.14
          Max(Dihed)        8.00      Max(Improp)    0.00
          ---------------------------------------------------------------------

Geometry step timings:
Preparation and reading OPT file:      0.000 s ( 4.558 %)
Internal coordinates            :      0.000 s ( 1.823 %)
B/P matrices and projection     :      0.000 s (30.538 %)
Hessian update/contruction      :      0.000 s (16.226 %)
Making the step                 :      0.000 s (34.640 %)
Converting the step to Cartesian:      0.000 s ( 7.019 %)
Storing new data                :      0.000 s ( 1.094 %)
Checking convergence            :      0.000 s ( 2.005 %)
GOAT stuff                      :      0.000 s ( 0.000 %)
Final printing                  :      0.000 s ( 2.097 %)
Total time                      :      0.001 s

Time for energy+gradient        :      0.038 s
Time for complete geometry iter :      0.040 s

         *************************************************************
         *                GEOMETRY OPTIMIZATION CYCLE  97            *
         *************************************************************
---------------------------------
CARTESIAN COORDINATES (ANGSTROEM)
---------------------------------
  H    -1.930123    0.823511   -1.075689
  C    -2.741623    2.302165    0.263612
  H    -2.715094    3.153923   -0.414040
  H    -4.401003    0.854012    1.163185
  O     0.271745    2.410312    0.772635
  C    -1.649374    1.305862   -0.128293
  H    -2.089802   -0.319354    1.065202
  S    -4.448233    1.656425    0.099434
  N    -1.364390    0.384501    0.965753
  H    -0.511985   -0.126308    0.758164
  C    -0.385448    2.162601   -0.352551
  H    -2.609093    2.646683    1.287632
  O    -0.049119    2.585111   -1.419785
  H    -0.143192    1.907092    1.509214

----------------------------
CARTESIAN COORDINATES (A.U.)
----------------------------
  NO LB    ZA    FRAG    MASS        X           Y           Z
   0 H   1.0000    1     1.008   -3.647404    1.556211   -2.032758
   1 C   6.0000    1    12.011   -5.180917    4.350461    0.498154
   2 H   1.0000    1     1.008   -5.130783    5.960051   -0.782422
   3 H   1.0000    1     1.008   -8.316691    1.613848    2.198102
   4 O   8.0000    1    15.999    0.513523    4.554830    1.460069
   5 C   6.0000    1    12.011   -3.116866    2.467721   -0.242440
   6 H   1.0000    1     1.008   -3.949153   -0.603492    2.012941
   7 S  16.0000    1    32.060   -8.405941    3.130189    0.187902
   8 N   7.0000    1    14.007   -2.578324    0.726601    1.825009
   9 H   1.0000    1     1.008   -0.967511   -0.238687    1.432723
  10 C   6.0000    1    12.011   -0.728390    4.086723   -0.666225
  11 H   1.0000    1     1.008   -4.930472    5.001505    2.433273
  12 O   8.0000    1    15.999   -0.092822    4.885151   -2.683004
  13 H   1.0000    1     1.008   -0.270594    3.603882    2.852001

------------------------------------------------------------------------------
                         ORCA GEOMETRY RELAXATION STEP
------------------------------------------------------------------------------

Reading the OPT-File                    .... done

---------------------------------------------
FINAL SINGLE POINT ENERGY       -24.276169561560
---------------------------------------------

Getting information on internals        .... done
Copying old internal coords+grads       .... done
Making the new internal coordinates     .... (2022 redundants) done
Validating the new internal coordinates .... (2022 redundants) done
Calculating the B-matrix                .... done
Calculating the G,G- and P matrices     .... done
Transforming gradient to internals      .... done
Projecting the internal gradient        .... done
Number of atoms                         ....  14
Number of internal coordinates          ....  57
Current Energy                          ....   -24.276169562 Eh
Current gradient norm                   ....     0.013386358 Eh/bohr
Maximum allowed component of the step   ....  0.300
Current trust radius                    ....  0.675
Updating the Hessian (BFGS)             .... done
Making uphill step                      .... done
Uphill step size                        .... 0.623607
Converting the step to Cartesian space:
 Initial RMS(Int)=    0.0825987695
Transforming coordinates:
 Iter   0:  RMS(Cart)=    0.1305431416 RMS(Int)=    0.0829956258
 Iter   5:  RMS(Cart)=    0.0000355244 RMS(Int)=    0.0000277746
 Iter  10:  RMS(Cart)=    0.0000000303 RMS(Int)=    0.0000000291
Imposing constraints:
 Iter   0:  RMS(Cart)=    0.0003681285 RMS(Int)=    0.0000255878
CONVERGED
done
Storing new coordinates                 .... done
Current trust radius                    ....     0.6750
Energy difference                       ....     0.3771 kcal/mol
Maximum difference                      ....     0.4200 kcal/mol
New trust radius                        ....     0.7000

                                .--------------------.
          ----------------------|Geometry convergence|-------------------------
          Item                value                   Tolerance       Converged
          ---------------------------------------------------------------------
          Energy change       0.0006009506            0.0000050000      NO
          RMS gradient        0.0011815319            0.0001000000      NO
          MAX gradient        0.0051853999            0.0003000000      NO
          RMS step            0.0825987695            0.0020000000      NO
          MAX step            0.2281153341            0.0040000000      NO
          -------------------------------------------------------------------------
          ........................................................
          Max(Bonds)      0.1207      Max(Angles)    1.23
          Max(Dihed)       10.80      Max(Improp)    0.00
          ---------------------------------------------------------------------

Geometry step timings:
Preparation and reading OPT file:      0.000 s ( 1.769 %)
Internal coordinates            :      0.000 s ( 1.525 %)
B/P matrices and projection     :      0.001 s (34.960 %)
Hessian update/contruction      :      0.000 s (18.609 %)
Making the step                 :      0.000 s (22.575 %)
Converting the step to Cartesian:      0.000 s (11.897 %)
Storing new data                :      0.000 s ( 1.647 %)
Checking convergence            :      0.000 s ( 3.051 %)
GOAT stuff                      :      0.000 s ( 0.061 %)
Final printing                  :      0.000 s ( 3.722 %)
Total time                      :      0.002 s

Time for energy+gradient        :      0.032 s
Time for complete geometry iter :      0.034 s

         *************************************************************
         *                GEOMETRY OPTIMIZATION CYCLE  98            *
         *************************************************************
---------------------------------
CARTESIAN COORDINATES (ANGSTROEM)
---------------------------------
  H    -2.011617    0.818530   -1.030380
  C    -2.728752    2.322868    0.334341
  H    -2.659313    3.220323   -0.278162
  H    -4.387053    0.731428    0.928236
  O     0.260071    2.457374    0.707166
  C    -1.675209    1.304014   -0.102924
  H    -2.058279   -0.358806    1.049945
  S    -4.457403    1.766882    0.091247
  N    -1.372182    0.387693    0.990507
  H    -0.484269   -0.070844    0.811713
  C    -0.395828    2.116521   -0.394161
  H    -2.607257    2.585921    1.383587
  O    -0.038096    2.427939   -1.492189
  H    -0.151547    2.036690    1.495549

----------------------------
CARTESIAN COORDINATES (A.U.)
----------------------------
  NO LB    ZA    FRAG    MASS        X           Y           Z
   0 H   1.0000    1     1.008   -3.801405    1.546797   -1.947136
   1 C   6.0000    1    12.011   -5.156594    4.389585    0.631813
   2 H   1.0000    1     1.008   -5.025373    6.085529   -0.525651
   3 H   1.0000    1     1.008   -8.290329    1.382199    1.754112
   4 O   8.0000    1    15.999    0.491463    4.643764    1.336351
   5 C   6.0000    1    12.011   -3.165687    2.464229   -0.194498
   6 H   1.0000    1     1.008   -3.889584   -0.678045    1.984109
   7 S  16.0000    1    32.060   -8.423271    3.338924    0.172431
   8 N   7.0000    1    14.007   -2.593048    0.732634    1.871787
   9 H   1.0000    1     1.008   -0.915136   -0.133876    1.533914
  10 C   6.0000    1    12.011   -0.748007    3.999646   -0.744857
  11 H   1.0000    1     1.008   -4.927002    4.886682    2.614601
  12 O   8.0000    1    15.999   -0.071991    4.588139   -2.819829
  13 H   1.0000    1     1.008   -0.286382    3.848787    2.826177

------------------------------------------------------------------------------
                         ORCA GEOMETRY RELAXATION STEP
------------------------------------------------------------------------------

Reading the OPT-File                    .... done

---------------------------------------------
FINAL SINGLE POINT ENERGY       -24.274525105320
---------------------------------------------

Getting information on internals        .... done
Copying old internal coords+grads       .... done
Making the new internal coordinates     .... (2022 redundants) done
Validating the new internal coordinates .... (2022 redundants) done
Calculating the B-matrix                .... done
Calculating the G,G- and P matrices     .... done
Transforming gradient to internals      .... done
Projecting the internal gradient        .... done
Number of atoms                         ....  14
Number of internal coordinates          ....  57
Current Energy                          ....   -24.274525105 Eh
Current gradient norm                   ....     0.017654768 Eh/bohr
Maximum allowed component of the step   ....  0.300
Current trust radius                    ....  0.700
Updating the Hessian (BFGS)             .... done
Making uphill step                      .... done
Uphill step size                        .... 0.681817
Converting the step to Cartesian space:
 Initial RMS(Int)=    0.0903088860
Transforming coordinates:
 Iter   0:  RMS(Cart)=    0.1483857734 RMS(Int)=    0.8194364367
 Iter   5:  RMS(Cart)=    0.0000201294 RMS(Int)=    0.0000168690
Imposing constraints:
 Iter   0:  RMS(Cart)=    0.0002877080 RMS(Int)=    0.0000220417
CONVERGED
