                                 *****************
                                 * O   R   C   A *
                                 *****************

                       *****************************
                       * Geometry Optimization Run *
                       *****************************

Geometry optimization settings:
Update method            Update   .... BFGS
Choice of coordinates    CoordSys .... (2022) Redundant Internals
Initial Hessian          InHess   .... Almloef's Model
Max. no of cycles        MaxIter  .... 14000

Convergence Tolerances:
Energy Change            TolE     ....  5.0000e-06 Eh
Max. Gradient            TolMAXG  ....  3.0000e-04 Eh/bohr
RMS Gradient             TolRMSG  ....  1.0000e-04 Eh/bohr
Max. Displacement        TolMAXD  ....  4.0000e-03 bohr
RMS Displacement         TolRMSD  ....  2.0000e-03 bohr
Strict Convergence                .... True

------------------------------------------------------------------------------
                        ORCA OPTIMIZATION COORDINATE SETUP
------------------------------------------------------------------------------

The optimization will be done in redundant internal coordinates (2022)
Making redundant internal coordinates   ...  (2022 redundants) done
Evaluating the initial hessian          ...  (Almloef) done
Evaluating the coordinates              ...  done
Calculating the B-matrix                .... done
Calculating the G-matrix                .... done
The number of degrees of freedom        ....   57

    -----------------------------------------------------------------
                    Redundant Internal Coordinates


    -----------------------------------------------------------------
         Definition                    Initial Value    Approx d2E/dq
    -----------------------------------------------------------------
      1. B(H   2,C   1)                  1.0887         0.361761   
      2. B(C   5,C   1)                  1.5296         0.374104   
      3. B(C   5,H   0)                  1.0995         0.347727   
      4. B(S   7,H   6)                  2.6972         0.010000   
      5. B(S   7,H   3)                  1.3333         0.397190   
      6. B(S   7,C   1)                  1.8321         0.332030   
      7. B(N   8,H   6)                  1.0157         0.423752   
      8. B(N   8,C   5)                  1.4584         0.435231   
      9. B(H   9,N   8)                  1.0152         0.424475   
     10. B(C  10,C   5)                  1.5433         0.355733   
     11. B(C  10,O   4)                  1.3264         0.706899   
     12. B(H  11,C   1)                  1.0885         0.362129   
     13. B(O  12,C  10)                  1.1960         1.141145   
     14. B(H  13,N   8)                  1.8960         0.016695   
     15. B(H  13,O   4)                  0.9839         0.476195   
     16. A(H   2,C   1,C   5)          109.2788         0.324639   
     17. A(H   2,C   1,H  11)          109.5850         0.291307   
     18. A(C   5,C   1,S   7)          112.6922         0.374973   
     19. A(H   2,C   1,S   7)          105.9352         0.334463   
     20. A(C   5,C   1,H  11)          111.1965         0.324694   
     21. A(S   7,C   1,H  11)          107.9904         0.334520   
     22. A(C  10,O   4,H  13)          107.8445         0.372882   
     23. A(C   1,C   5,N   8)          111.0014         0.370756   
     24. A(C   1,C   5,C  10)          105.9839         0.360416   
     25. A(H   0,C   5,N   8)          114.1571         0.328688   
     26. A(H   0,C   5,C  10)          108.6625         0.319892   
     27. A(N   8,C   5,C  10)          108.1229         0.367564   
     28. A(H   0,C   5,C   1)          108.5724         0.322539   
     29. A(C   1,S   7,H   3)           96.7387         0.364130   
     30. A(H   6,N   8,H   9)          107.1152         0.301320   
     31. A(C   5,N   8,H   9)          110.2728         0.336834   
     32. A(C   5,N   8,H   6)          110.2216         0.336738   
     33. A(O   4,C  10,C   5)          112.8535         0.399885   
     34. A(C   5,C  10,O  12)          123.0972         0.435477   
     35. A(O   4,C  10,O  12)          124.0182         0.490409   
     36. D(N   8,C   5,C   1,H   2)    178.2594         0.011173   
     37. D(H   0,C   5,C   1,H   2)    -55.4819         0.011173   
     38. D(N   8,C   5,C   1,S   7)    -64.2550         0.011173   
     39. D(H   0,C   5,C   1,S   7)     62.0037         0.011173   
     40. D(H   0,C   5,C   1,H  11)   -176.5818         0.011173   
     41. D(N   8,C   5,C   1,H  11)     57.1595         0.011173   
     42. D(H   3,S   7,C   1,H  11)    -34.0738         0.010000   
     43. D(H   3,S   7,C   1,C   5)     89.1451         0.010000   
     44. D(H   3,S   7,C   1,H   2)   -151.4117         0.010000   
     45. D(H   9,N   8,C   5,C   1)    164.7174         0.017309   
     46. D(H   9,N   8,C   5,H   0)     41.6179         0.017309   
     47. D(H   6,N   8,C   5,C  10)    162.5064         0.017309   
     48. D(H   6,N   8,C   5,H   0)    -76.4422         0.017309   
     49. D(H   9,N   8,C   5,C  10)    -79.4336         0.017309   
     50. D(H   6,N   8,C   5,C   1)     46.6573         0.017309   
     51. D(O  12,C  10,C   5,C   1)    -78.4185         0.010000   
     52. D(O  12,C  10,C   5,H   0)     38.0973         0.010000   
     53. D(O   4,C  10,C   5,N   8)    -19.4538         0.010000   
     54. D(O   4,C  10,C   5,C   1)     99.6251         0.010000   
     55. D(O   4,C  10,C   5,H   0)   -143.8591         0.010000   
     56. D(O  12,C  10,O   4,H  13)   -178.1844         0.037492   
     57. D(C   5,C  10,O   4,H  13)      3.7929         0.037492   
    -----------------------------------------------------------------

Number of atoms                         .... 14
Number of degrees of freedom            .... 57


         *************************************************************
         *                GEOMETRY OPTIMIZATION CYCLE   1            *
         *************************************************************
------------------------------------------------------------------------------
                         ORCA GEOMETRY RELAXATION STEP
------------------------------------------------------------------------------

Reading the OPT-File                    .... done

---------------------------------------------
FINAL SINGLE POINT ENERGY       -24.279084989030
---------------------------------------------

Getting information on internals        .... done
Copying old internal coords+grads       .... done
Making the new internal coordinates     .... (2022 redundants) done
Validating the new internal coordinates .... (2022 redundants) done
Calculating the B-matrix                .... done
Calculating the G,G- and P matrices     .... done
Transforming gradient to internals      .... done
Projecting the internal gradient        .... done
Number of atoms                         ....  14
Number of internal coordinates          ....  57
Current Energy                          ....   -24.279084989 Eh
Current gradient norm                   ....     0.000181232 Eh/bohr
Maximum allowed component of the step   ....  0.300
Current trust radius                    ....  0.300
Evaluating the initial hessian          ....  (Almloef) done
Projecting the Hessian                  .... done
Forming the augmented Hessian           .... done
Diagonalizing the augmented Hessian     .... done
Last element of RFO vector              ....  0.999998765
Lowest eigenvalues of augmented Hessian:
 -0.000000069  0.010000000  0.010568079  0.010779658  0.017101942
Length of the computed step             ....  0.001571331
The final length of the internal step   ....  0.001571331
Converting the step to Cartesian space:
 Initial RMS(Int)=    0.0002081279
Transforming coordinates:
 Iter   0:  RMS(Cart)=    0.0003344833 RMS(Int)=    0.0002081486
done
Storing new coordinates                 .... done

                                .--------------------.
          ----------------------|Geometry convergence|-------------------------
          Item                value                   Tolerance       Converged
          ---------------------------------------------------------------------
          RMS gradient        0.0000126902            0.0001000000      YES
          MAX gradient        0.0000304081            0.0003000000      YES
          RMS step            0.0002081279            0.0020000000      YES
          MAX step            0.0007060033            0.0040000000      YES
          -------------------------------------------------------------------------
          ........................................................
          Max(Bonds)      0.0004      Max(Angles)    0.01
          Max(Dihed)        0.04      Max(Improp)    0.00
          ---------------------------------------------------------------------

			-----------------------
			     GOAT ITER   1       
			-----------------------

	Minimum found after 1 optimization iterations! E = -24.279085

	No previous minimum found yet, adding first to c.goat.0.7.ensembleen.tmp.

	Number of GOAT steps per global cycle: 20

	Current MaxEn         : 42.00 kcal/mol
	Current Temperature   : 363.00 K
	Current UphillGradComp: 1.00

Geometry step timings:
Preparation and reading OPT file:      0.000 s ( 2.051 %)
Internal coordinates            :      0.000 s ( 1.744 %)
B/P matrices and projection     :      0.000 s (33.436 %)
Hessian update/contruction      :      0.000 s (10.256 %)
Making the step                 :      0.000 s (25.846 %)
Converting the step to Cartesian:      0.000 s ( 3.385 %)
Storing new data                :      0.000 s ( 1.436 %)
Checking convergence            :      0.000 s ( 1.949 %)
GOAT stuff                      :      0.000 s (17.333 %)
Final printing                  :      0.000 s ( 2.564 %)
Total time                      :      0.001 s

Time for energy+gradient        :      0.041 s
Time for complete geometry iter :      0.043 s

         *************************************************************
         *                GEOMETRY OPTIMIZATION CYCLE   2            *
         *************************************************************
---------------------------------
CARTESIAN COORDINATES (ANGSTROEM)
---------------------------------
  H    -1.542641    0.446857   -0.847518
  C    -2.736092    2.119115   -0.215502
  H    -2.739741    2.537550   -1.220635
  H    -4.440664    1.368700    1.280678
  O     0.276992    2.488439    0.874904
  C    -1.519405    1.206489   -0.052904
  H    -2.365762    0.305064    1.576112
  S    -4.322710    1.220218   -0.039080
  N    -1.454870    0.656685    1.296374
  H    -0.809891   -0.126763    1.326589
  C    -0.282751    2.105101   -0.264887
  H    -2.723539    2.925621    0.515365
  O     0.100081    2.444959   -1.345825
  H    -0.205743    2.048500    1.610803

----------------------------
CARTESIAN COORDINATES (A.U.)
----------------------------
  NO LB    ZA    FRAG    MASS        X           Y           Z
   0 H   1.0000    1     1.008   -2.915169    0.844438   -1.601577
   1 C   6.0000    1    12.011   -5.170464    4.004547   -0.407241
   2 H   1.0000    1     1.008   -5.177361    4.795275   -2.306665
   3 H   1.0000    1     1.008   -8.391638    2.586468    2.420131
   4 O   8.0000    1    15.999    0.523439    4.702469    1.653330
   5 C   6.0000    1    12.011   -2.871259    2.279934   -0.099974
   6 H   1.0000    1     1.008   -4.470642    0.576488    2.978420
   7 S  16.0000    1    32.060   -8.168738    2.305877   -0.073850
   8 N   7.0000    1    14.007   -2.749306    1.240954    2.449791
   9 H   1.0000    1     1.008   -1.530472   -0.239547    2.506889
  10 C   6.0000    1    12.011   -0.534321    3.978064   -0.500564
  11 H   1.0000    1     1.008   -5.146743    5.528623    0.973899
  12 O   8.0000    1    15.999    0.189125    4.620302   -2.543241
  13 H   1.0000    1     1.008   -0.388797    3.871103    3.043977

------------------------------------------------------------------------------
                         ORCA GEOMETRY RELAXATION STEP
------------------------------------------------------------------------------

Reading the OPT-File                    .... done

---------------------------------------------
FINAL SINGLE POINT ENERGY       -24.279085037950
---------------------------------------------

Getting information on internals        .... done
Copying old internal coords+grads       .... done
Making the new internal coordinates     .... (2022 redundants) done
Validating the new internal coordinates .... (2022 redundants) done
Calculating the B-matrix                .... done
Calculating the G,G- and P matrices     .... done
Transforming gradient to internals      .... done
Projecting the internal gradient        .... done
Number of atoms                         ....  14
Number of internal coordinates          ....  57
Current Energy                          ....   -24.279085038 Eh
Current gradient norm                   ....     0.000109139 Eh/bohr
Maximum allowed component of the step   ....  0.300
Current trust radius                    ....  0.300
Updating the Hessian (BFGS)             .... done
Making initial random step              .... (random normal) done
Converting the step to Cartesian space:
 Initial RMS(Int)=    0.0760242795
Transforming coordinates:
 Iter   0:  RMS(Cart)=    0.1024330195 RMS(Int)=    0.0467624350
 Iter   5:  RMS(Cart)=    0.0000021454 RMS(Int)=    0.0000013202
Imposing constraints:
 Iter   0:  RMS(Cart)=    0.0013666753 RMS(Int)=    0.0000982948
 Iter   5:  RMS(Cart)=    0.0000000114 RMS(Int)=    0.0000000010
CONVERGED
done
Storing new coordinates                 .... done
Current trust radius                    ....     0.3000
Energy difference                       ....     0.0000 kcal/mol
Maximum difference                      ....     0.4200 kcal/mol
New trust radius                        ....     0.4500

                                .--------------------.
          ----------------------|Geometry convergence|-------------------------
          Item                value                   Tolerance       Converged
          ---------------------------------------------------------------------
          Energy change      -0.0000000489            0.0000050000      YES
          RMS gradient        0.0000079630            0.0001000000      YES
          MAX gradient        0.0000246377            0.0003000000      YES
          RMS step            0.0760242795            0.0020000000      NO
          MAX step            0.1868713979            0.0040000000      NO
          -------------------------------------------------------------------------
          ........................................................
          Max(Bonds)      0.0499      Max(Angles)   10.71
          Max(Dihed)       10.17      Max(Improp)    0.00
          ---------------------------------------------------------------------

Geometry step timings:
Preparation and reading OPT file:      0.000 s ( 3.385 %)
Internal coordinates            :      0.000 s ( 2.428 %)
B/P matrices and projection     :      0.001 s (43.341 %)
Hessian update/contruction      :      0.000 s (18.617 %)
Making the step                 :      0.000 s (10.964 %)
Converting the step to Cartesian:      0.000 s (12.215 %)
Storing new data                :      0.000 s ( 1.987 %)
Checking convergence            :      0.000 s ( 3.385 %)
GOAT stuff                      :      0.000 s ( 0.074 %)
Final printing                  :      0.000 s ( 3.606 %)
Total time                      :      0.001 s

Time for energy+gradient        :      0.031 s
Time for complete geometry iter :      0.034 s

         *************************************************************
         *                GEOMETRY OPTIMIZATION CYCLE   3            *
         *************************************************************
---------------------------------
CARTESIAN COORDINATES (ANGSTROEM)
---------------------------------
  H    -1.533821    0.443991   -0.842143
  C    -2.727936    2.077860   -0.192428
  H    -2.671495    2.527920   -1.182201
  H    -4.459702    1.400133    1.234526
  O     0.252840    2.484944    0.844504
  C    -1.499467    1.181595   -0.027433
  H    -2.369727    0.309094    1.457202
  S    -4.370587    1.273094   -0.089725
  N    -1.422035    0.651200    1.328917
  H    -0.799381   -0.129033    1.513958
  C    -0.321577    2.140655   -0.300439
  H    -2.622241    2.851893    0.565515
  O    -0.024816    2.527531   -1.392571
  H    -0.196790    2.005657    1.576790

----------------------------
CARTESIAN COORDINATES (A.U.)
----------------------------
  NO LB    ZA    FRAG    MASS        X           Y           Z
   0 H   1.0000    1     1.008   -2.898501    0.839021   -1.591420
   1 C   6.0000    1    12.011   -5.155052    3.926585   -0.363636
   2 H   1.0000    1     1.008   -5.048393    4.777077   -2.234037
   3 H   1.0000    1     1.008   -8.427616    2.645867    2.332917
   4 O   8.0000    1    15.999    0.477798    4.695864    1.595881
   5 C   6.0000    1    12.011   -2.833581    2.232891   -0.051840
   6 H   1.0000    1     1.008   -4.478135    0.584104    2.753713
   7 S  16.0000    1    32.060   -8.259213    2.405799   -0.169555
   8 N   7.0000    1    14.007   -2.687256    1.230591    2.511290
   9 H   1.0000    1     1.008   -1.510612   -0.243837    2.860966
  10 C   6.0000    1    12.011   -0.607692    4.045252   -0.567748
  11 H   1.0000    1     1.008   -4.955317    5.389297    1.068669
  12 O   8.0000    1    15.999   -0.046895    4.776342   -2.631577
  13 H   1.0000    1     1.008   -0.371880    3.790143    2.979702

------------------------------------------------------------------------------
                         ORCA GEOMETRY RELAXATION STEP
------------------------------------------------------------------------------

Reading the OPT-File                    .... done

---------------------------------------------
FINAL SINGLE POINT ENERGY       -24.272466264460
---------------------------------------------

Getting information on internals        .... done
Copying old internal coords+grads       .... done
Making the new internal coordinates     .... (2022 redundants) done
Validating the new internal coordinates .... (2022 redundants) done
Calculating the B-matrix                .... done
Calculating the G,G- and P matrices     .... done
Transforming gradient to internals      .... done
Projecting the internal gradient        .... done
Number of atoms                         ....  14
Number of internal coordinates          ....  57
Current Energy                          ....   -24.272466264 Eh
Current gradient norm                   ....     0.037867042 Eh/bohr
Maximum allowed component of the step   ....  0.300
Current trust radius                    ....  0.450
Updating the Hessian (BFGS)             .... done
Making uphill step                      .... done
Uphill step size                        .... 0.448893
Converting the step to Cartesian space:
 Initial RMS(Int)=    0.0594573139
Transforming coordinates:
 Iter   0:  RMS(Cart)=    0.0978492408 RMS(Int)=    0.8250421403
 Iter   5:  RMS(Cart)=    0.0000007099 RMS(Int)=    0.0000005379
Imposing constraints:
 Iter   0:  RMS(Cart)=    0.0006655958 RMS(Int)=    0.0000440463
 Iter   5:  RMS(Cart)=    0.0000000150 RMS(Int)=    0.0000000010
CONVERGED
done
Storing new coordinates                 .... done
Current trust radius                    ....     0.4500
Energy difference                       ....     4.1533 kcal/mol
Maximum difference                      ....     0.4200 kcal/mol
New trust radius                        ....     0.3000

                                .--------------------.
          ----------------------|Geometry convergence|-------------------------
          Item                value                   Tolerance       Converged
          ---------------------------------------------------------------------
          Energy change       0.0066187735            0.0000050000      NO
          RMS gradient        0.0058431061            0.0001000000      NO
          MAX gradient        0.0185542178            0.0003000000      NO
          RMS step            0.0594573139            0.0020000000      NO
          MAX step            0.2169219275            0.0040000000      NO
          -------------------------------------------------------------------------
          ........................................................
          Max(Bonds)      0.1148      Max(Angles)    3.81
          Max(Dihed)        9.67      Max(Improp)    0.00
          ---------------------------------------------------------------------

Geometry step timings:
Preparation and reading OPT file:      0.000 s ( 1.856 %)
Internal coordinates            :      0.000 s ( 1.649 %)
B/P matrices and projection     :      0.001 s (31.443 %)
Hessian update/contruction      :      0.000 s (13.247 %)
Making the step                 :      0.001 s (37.938 %)
Converting the step to Cartesian:      0.000 s ( 7.990 %)
Storing new data                :      0.000 s ( 1.237 %)
Checking convergence            :      0.000 s ( 2.113 %)
GOAT stuff                      :      0.000 s ( 0.052 %)
Final printing                  :      0.000 s ( 2.423 %)
Total time                      :      0.002 s

Time for energy+gradient        :      0.033 s
Time for complete geometry iter :      0.036 s

         *************************************************************
         *                GEOMETRY OPTIMIZATION CYCLE   4            *
         *************************************************************
---------------------------------
CARTESIAN COORDINATES (ANGSTROEM)
---------------------------------
  H    -1.558426    0.435538   -0.828574
  C    -2.725415    2.063886   -0.189762
  H    -2.620342    2.550112   -1.158232
  H    -4.479690    1.350610    1.173751
  O     0.304838    2.389627    0.811907
  C    -1.495843    1.171225   -0.013810
  H    -2.360253    0.348261    1.437395
  S    -4.379439    1.276860   -0.153740
  N    -1.416290    0.717012    1.369794
  H    -0.803586   -0.042496    1.649870
  C    -0.347340    2.155825   -0.319192
  H    -2.589420    2.812555    0.588554
  O    -0.146686    2.633570   -1.397148
  H    -0.148843    1.883950    1.523659

----------------------------
CARTESIAN COORDINATES (A.U.)
----------------------------
  NO LB    ZA    FRAG    MASS        X           Y           Z
   0 H   1.0000    1     1.008   -2.944999    0.823047   -1.565778
   1 C   6.0000    1    12.011   -5.150289    3.900178   -0.358598
   2 H   1.0000    1     1.008   -4.951728    4.819014   -2.188742
   3 H   1.0000    1     1.008   -8.465387    2.552282    2.218068
   4 O   8.0000    1    15.999    0.576059    4.515741    1.534283
   5 C   6.0000    1    12.011   -2.826733    2.213295   -0.026098
   6 H   1.0000    1     1.008   -4.460232    0.658118    2.716284
   7 S  16.0000    1    32.060   -8.275940    2.412917   -0.290526
   8 N   7.0000    1    14.007   -2.676400    1.354956    2.588536
   9 H   1.0000    1     1.008   -1.518557   -0.080307    3.117802
  10 C   6.0000    1    12.011   -0.656377    4.073919   -0.603185
  11 H   1.0000    1     1.008   -4.893294    5.314959    1.112206
  12 O   8.0000    1    15.999   -0.277197    4.976727   -2.640227
  13 H   1.0000    1     1.008   -0.281272    3.560149    2.879299

------------------------------------------------------------------------------
                         ORCA GEOMETRY RELAXATION STEP
------------------------------------------------------------------------------

Reading the OPT-File                    .... done

---------------------------------------------
FINAL SINGLE POINT ENERGY       -24.263744992930
---------------------------------------------

Getting information on internals        .... done
Copying old internal coords+grads       .... done
Making the new internal coordinates     .... (2022 redundants) done
Validating the new internal coordinates .... (2022 redundants) done
Calculating the B-matrix                .... done
Calculating the G,G- and P matrices     .... done
Transforming gradient to internals      .... done
Projecting the internal gradient        .... done
Number of atoms                         ....  14
Number of internal coordinates          ....  57
Current Energy                          ....   -24.263744993 Eh
Current gradient norm                   ....     0.054815900 Eh/bohr
Maximum allowed component of the step   ....  0.300
Current trust radius                    ....  0.300
Updating the Hessian (BFGS)             .... done
Making uphill step                      .... done
Uphill step size                        .... 0.298457
Converting the step to Cartesian space:
 Initial RMS(Int)=    0.0395315904
Transforming coordinates:
 Iter   0:  RMS(Cart)=    0.0623598653 RMS(Int)=    0.0388758172
 Iter   5:  RMS(Cart)=    0.0000000971 RMS(Int)=    0.0000000737
Imposing constraints:
 Iter   0:  RMS(Cart)=    0.0006261678 RMS(Int)=    0.0000424391
CONVERGED
done
Storing new coordinates                 .... done
Current trust radius                    ....     0.3000
Energy difference                       ....     5.4727 kcal/mol
Maximum difference                      ....     0.4200 kcal/mol
New trust radius                        ....     0.3000

                                .--------------------.
          ----------------------|Geometry convergence|-------------------------
          Item                value                   Tolerance       Converged
          ---------------------------------------------------------------------
          Energy change       0.0087212715            0.0000050000      NO
          RMS gradient        0.0083774977            0.0001000000      NO
          MAX gradient        0.0271101433            0.0003000000      NO
          RMS step            0.0395315904            0.0020000000      NO
          MAX step            0.1335728813            0.0040000000      NO
          -------------------------------------------------------------------------
          ........................................................
          Max(Bonds)      0.0707      Max(Angles)    1.42
          Max(Dihed)        6.35      Max(Improp)    0.00
          ---------------------------------------------------------------------

Geometry step timings:
Preparation and reading OPT file:      0.000 s ( 1.869 %)
Internal coordinates            :      0.000 s ( 1.682 %)
B/P matrices and projection     :      0.000 s (33.364 %)
Hessian update/contruction      :      0.000 s (15.981 %)
Making the step                 :      0.000 s (35.047 %)
Converting the step to Cartesian:      0.000 s ( 6.075 %)
Storing new data                :      0.000 s ( 1.495 %)
Checking convergence            :      0.000 s ( 2.056 %)
GOAT stuff                      :      0.000 s ( 0.093 %)
Final printing                  :      0.000 s ( 2.336 %)
Total time                      :      0.001 s

Time for energy+gradient        :      0.027 s
Time for complete geometry iter :      0.028 s

         *************************************************************
         *                GEOMETRY OPTIMIZATION CYCLE   5            *
         *************************************************************
---------------------------------
CARTESIAN COORDINATES (ANGSTROEM)
---------------------------------
  H    -1.584520    0.428357   -0.813095
  C    -2.728395    2.070156   -0.194452
  H    -2.607492    2.577316   -1.150257
  H    -4.491234    1.293769    1.136544
  O     0.360947    2.304260    0.789033
  C    -1.501910    1.174943   -0.010115
  H    -2.353830    0.382858    1.475368
  S    -4.370097    1.256953   -0.190744
  N    -1.420406    0.774015    1.389747
  H    -0.801512    0.024819    1.683648
  C    -0.349566    2.153369   -0.320826
  H    -2.609722    2.813162    0.592082
  O    -0.187788    2.688870   -1.377972
  H    -0.121210    1.803688    1.485510

----------------------------
CARTESIAN COORDINATES (A.U.)
----------------------------
  NO LB    ZA    FRAG    MASS        X           Y           Z
   0 H   1.0000    1     1.008   -2.994308    0.809477   -1.536526
   1 C   6.0000    1    12.011   -5.155918    3.912028   -0.367460
   2 H   1.0000    1     1.008   -4.927446    4.870422   -2.173670
   3 H   1.0000    1     1.008   -8.487203    2.444868    2.147756
   4 O   8.0000    1    15.999    0.682091    4.354420    1.491057
   5 C   6.0000    1    12.011   -2.838198    2.220321   -0.019114
   6 H   1.0000    1     1.008   -4.448094    0.723497    2.788041
   7 S  16.0000    1    32.060   -8.258286    2.375298   -0.360453
   8 N   7.0000    1    14.007   -2.684178    1.462676    2.626241
   9 H   1.0000    1     1.008   -1.514639    0.046901    3.181634
  10 C   6.0000    1    12.011   -0.660585    4.069277   -0.606273
  11 H   1.0000    1     1.008   -4.931660    5.316106    1.118874
  12 O   8.0000    1    15.999   -0.354867    5.081228   -2.603989
  13 H   1.0000    1     1.008   -0.229053    3.408477    2.807207

------------------------------------------------------------------------------
                         ORCA GEOMETRY RELAXATION STEP
------------------------------------------------------------------------------

Reading the OPT-File                    .... done

---------------------------------------------
FINAL SINGLE POINT ENERGY       -24.261748750530
---------------------------------------------

Getting information on internals        .... done
Copying old internal coords+grads       .... done
Making the new internal coordinates     .... (2022 redundants) done
Validating the new internal coordinates .... (2022 redundants) done
Calculating the B-matrix                .... done
Calculating the G,G- and P matrices     .... done
Transforming gradient to internals      .... done
Projecting the internal gradient        .... done
Number of atoms                         ....  14
Number of internal coordinates          ....  57
Current Energy                          ....   -24.261748751 Eh
Current gradient norm                   ....     0.056665100 Eh/bohr
Maximum allowed component of the step   ....  0.300
Current trust radius                    ....  0.300
Updating the Hessian (BFGS)             .... done
Making uphill step                      .... done
Uphill step size                        .... 0.298161
Converting the step to Cartesian space:
 Initial RMS(Int)=    0.0394923499
Transforming coordinates:
 Iter   0:  RMS(Cart)=    0.0637280276 RMS(Int)=    0.8256835616
 Iter   5:  RMS(Cart)=    0.0000001549 RMS(Int)=    0.0000001215
Imposing constraints:
 Iter   0:  RMS(Cart)=    0.0004883057 RMS(Int)=    0.0000337564
CONVERGED
done
Storing new coordinates                 .... done
Current trust radius                    ....     0.3000
Energy difference                       ....     1.2527 kcal/mol
Maximum difference                      ....     0.4200 kcal/mol
New trust radius                        ....     0.3000

                                .--------------------.
          ----------------------|Geometry convergence|-------------------------
          Item                value                   Tolerance       Converged
          ---------------------------------------------------------------------
          Energy change       0.0019962424            0.0000050000      NO
          RMS gradient        0.0082616198            0.0001000000      NO
          MAX gradient        0.0198658518            0.0003000000      NO
          RMS step            0.0394923499            0.0020000000      NO
          MAX step            0.0980158217            0.0040000000      NO
          -------------------------------------------------------------------------
          ........................................................
          Max(Bonds)      0.0519      Max(Angles)    2.30
          Max(Dihed)        5.59      Max(Improp)    0.00
          ---------------------------------------------------------------------

Geometry step timings:
Preparation and reading OPT file:      0.000 s ( 3.002 %)
Internal coordinates            :      0.000 s ( 2.659 %)
B/P matrices and projection     :      0.000 s (38.851 %)
Hessian update/contruction      :      0.000 s (13.979 %)
Making the step                 :      0.000 s (30.532 %)
Converting the step to Cartesian:      0.000 s ( 5.832 %)
Storing new data                :      0.000 s ( 1.115 %)
Checking convergence            :      0.000 s ( 1.801 %)
GOAT stuff                      :      0.000 s ( 0.086 %)
Final printing                  :      0.000 s ( 2.058 %)
Total time                      :      0.001 s

Time for energy+gradient        :      0.032 s
Time for complete geometry iter :      0.034 s

         *************************************************************
         *                GEOMETRY OPTIMIZATION CYCLE   6            *
         *************************************************************
---------------------------------
CARTESIAN COORDINATES (ANGSTROEM)
---------------------------------
  H    -1.613998    0.420092   -0.788015
  C    -2.733930    2.085135   -0.199537
  H    -2.604565    2.612344   -1.143310
  H    -4.499940    1.226691    1.098596
  O     0.423725    2.211830    0.761017
  C    -1.512120    1.185625   -0.005345
  H    -2.347763    0.422632    1.536518
  S    -4.353177    1.228510   -0.226612
  N    -1.426470    0.829961    1.406451
  H    -0.797204    0.082849    1.683126
  C    -0.343503    2.143647   -0.318843
  H    -2.653349    2.825790    0.594009
  O    -0.204411    2.730375   -1.351749
  H    -0.100032    1.741052    1.448166

----------------------------
CARTESIAN COORDINATES (A.U.)
----------------------------
  NO LB    ZA    FRAG    MASS        X           Y           Z
   0 H   1.0000    1     1.008   -3.050014    0.793860   -1.489133
   1 C   6.0000    1    12.011   -5.166379    3.940334   -0.377070
   2 H   1.0000    1     1.008   -4.921914    4.936614   -2.160542
   3 H   1.0000    1     1.008   -8.503655    2.318111    2.076046
   4 O   8.0000    1    15.999    0.800724    4.179753    1.438114
   5 C   6.0000    1    12.011   -2.857492    2.240507   -0.010100
   6 H   1.0000    1     1.008   -4.436628    0.798659    2.903598
   7 S  16.0000    1    32.060   -8.226312    2.321548   -0.428236
   8 N   7.0000    1    14.007   -2.695637    1.568399    2.657808
   9 H   1.0000    1     1.008   -1.506497    0.156562    3.180648
  10 C   6.0000    1    12.011   -0.649126    4.050906   -0.602525
  11 H   1.0000    1     1.008   -5.014102    5.339969    1.122514
  12 O   8.0000    1    15.999   -0.386281    5.159662   -2.554435
  13 H   1.0000    1     1.008   -0.189034    3.290112    2.736637

------------------------------------------------------------------------------
                         ORCA GEOMETRY RELAXATION STEP
------------------------------------------------------------------------------

Reading the OPT-File                    .... done

---------------------------------------------
FINAL SINGLE POINT ENERGY       -24.261575837340
---------------------------------------------

Getting information on internals        .... done
Copying old internal coords+grads       .... done
Making the new internal coordinates     .... (2022 redundants) done
Validating the new internal coordinates .... (2022 redundants) done
Calculating the B-matrix                .... done
Calculating the G,G- and P matrices     .... done
Transforming gradient to internals      .... done
Projecting the internal gradient        .... done
Number of atoms                         ....  14
Number of internal coordinates          ....  57
Current Energy                          ....   -24.261575837 Eh
Current gradient norm                   ....     0.055771195 Eh/bohr
Maximum allowed component of the step   ....  0.300
Current trust radius                    ....  0.300
Updating the Hessian (BFGS)             .... done
Making uphill step                      .... done
Uphill step size                        .... 0.297915
Converting the step to Cartesian space:
 Initial RMS(Int)=    0.0394598583
Transforming coordinates:
 Iter   0:  RMS(Cart)=    0.0634192825 RMS(Int)=    0.0395372166
 Iter   5:  RMS(Cart)=    0.0000001804 RMS(Int)=    0.0000001565
Imposing constraints:
 Iter   0:  RMS(Cart)=    0.0005875999 RMS(Int)=    0.0000402628
 Iter   5:  RMS(Cart)=    0.0000000134 RMS(Int)=    0.0000000009
CONVERGED
done
Storing new coordinates                 .... done
Current trust radius                    ....     0.3000
Energy difference                       ....     0.1085 kcal/mol
Maximum difference                      ....     0.4200 kcal/mol
New trust radius                        ....     0.4500

                                .--------------------.
          ----------------------|Geometry convergence|-------------------------
          Item                value                   Tolerance       Converged
          ---------------------------------------------------------------------
          Energy change       0.0001729132            0.0000050000      NO
          RMS gradient        0.0074601897            0.0001000000      NO
          MAX gradient        0.0164984069            0.0003000000      NO
          RMS step            0.0394598583            0.0020000000      NO
          MAX step            0.0983104204            0.0040000000      NO
          -------------------------------------------------------------------------
          ........................................................
          Max(Bonds)      0.0400      Max(Angles)    2.89
          Max(Dihed)        5.63      Max(Improp)    0.00
          ---------------------------------------------------------------------

Geometry step timings:
Preparation and reading OPT file:      0.000 s ( 2.533 %)
Internal coordinates            :      0.000 s ( 1.501 %)
B/P matrices and projection     :      0.000 s (30.582 %)
Hessian update/contruction      :      0.000 s (14.165 %)
Making the step                 :      0.000 s (37.336 %)
Converting the step to Cartesian:      0.000 s ( 7.317 %)
Storing new data                :      0.000 s ( 1.313 %)
Checking convergence            :      0.000 s ( 2.533 %)
GOAT stuff                      :      0.000 s ( 0.094 %)
Final printing                  :      0.000 s ( 2.627 %)
Total time                      :      0.001 s

Time for energy+gradient        :      0.033 s
Time for complete geometry iter :      0.035 s

         *************************************************************
         *                GEOMETRY OPTIMIZATION CYCLE   7            *
         *************************************************************
---------------------------------
CARTESIAN COORDINATES (ANGSTROEM)
---------------------------------
  H    -1.642221    0.410446   -0.751918
  C    -2.741309    2.104657   -0.203079
  H    -2.606752    2.650753   -1.135316
  H    -4.506390    1.158583    1.057132
  O     0.484867    2.118766    0.726641
  C    -1.524197    1.201369    0.002737
  H    -2.340599    0.464429    1.604385
  S    -4.333691    1.200735   -0.264276
  N    -1.431405    0.878825    1.422017
  H    -0.793443    0.126843    1.663325
  C    -0.333712    2.129952   -0.317001
  H    -2.711082    2.840598    0.598327
  O    -0.209558    2.761105   -1.325327
  H    -0.077243    1.699475    1.416825

----------------------------
CARTESIAN COORDINATES (A.U.)
----------------------------
  NO LB    ZA    FRAG    MASS        X           Y           Z
   0 H   1.0000    1     1.008   -3.103349    0.775631   -1.420918
   1 C   6.0000    1    12.011   -5.180324    3.977224   -0.383764
   2 H   1.0000    1     1.008   -4.926046    5.009196   -2.145436
   3 H   1.0000    1     1.008   -8.515842    2.189404    1.997691
   4 O   8.0000    1    15.999    0.916266    4.003887    1.373152
   5 C   6.0000    1    12.011   -2.880315    2.270259    0.005173
   6 H   1.0000    1     1.008   -4.423091    0.877645    3.031848
   7 S  16.0000    1    32.060   -8.189489    2.269060   -0.499409
   8 N   7.0000    1    14.007   -2.704964    1.660738    2.687223
   9 H   1.0000    1     1.008   -1.499391    0.239698    3.143230
  10 C   6.0000    1    12.011   -0.630624    4.025025   -0.599044
  11 H   1.0000    1     1.008   -5.123202    5.367953    1.130675
  12 O   8.0000    1    15.999   -0.396008    5.217733   -2.504505
  13 H   1.0000    1     1.008   -0.145969    3.211542    2.677411

------------------------------------------------------------------------------
                         ORCA GEOMETRY RELAXATION STEP
------------------------------------------------------------------------------

Reading the OPT-File                    .... done

---------------------------------------------
FINAL SINGLE POINT ENERGY       -24.261812443210
---------------------------------------------

Getting information on internals        .... done
Copying old internal coords+grads       .... done
Making the new internal coordinates     .... (2022 redundants) done
Validating the new internal coordinates .... (2022 redundants) done
Calculating the B-matrix                .... done
Calculating the G,G- and P matrices     .... done
Transforming gradient to internals      .... done
Projecting the internal gradient        .... done
Number of atoms                         ....  14
Number of internal coordinates          ....  57
Current Energy                          ....   -24.261812443 Eh
Current gradient norm                   ....     0.054335131 Eh/bohr
Maximum allowed component of the step   ....  0.300
Current trust radius                    ....  0.450
Updating the Hessian (BFGS)             .... done
Making uphill step                      .... done
Uphill step size                        .... 0.448347
Converting the step to Cartesian space:
 Initial RMS(Int)=    0.0593850166
Transforming coordinates:
 Iter   0:  RMS(Cart)=    0.0919603159 RMS(Int)=    0.0598620406
 Iter   5:  RMS(Cart)=    0.0000014405 RMS(Int)=    0.0000012924
Imposing constraints:
 Iter   0:  RMS(Cart)=    0.0010466178 RMS(Int)=    0.0000702563
 Iter   5:  RMS(Cart)=    0.0000000231 RMS(Int)=    0.0000000015
CONVERGED
done
Storing new coordinates                 .... done
Current trust radius                    ....     0.4500
Energy difference                       ....     0.1485 kcal/mol
Maximum difference                      ....     0.4200 kcal/mol
New trust radius                        ....     0.6750

                                .--------------------.
          ----------------------|Geometry convergence|-------------------------
          Item                value                   Tolerance       Converged
          ---------------------------------------------------------------------
          Energy change      -0.0002366059            0.0000050000      NO
          RMS gradient        0.0065798363            0.0001000000      NO
          MAX gradient        0.0149402956            0.0003000000      NO
          RMS step            0.0593850166            0.0020000000      NO
          MAX step            0.1518662560            0.0040000000      NO
          -------------------------------------------------------------------------
          ........................................................
          Max(Bonds)      0.0767      Max(Angles)    3.35
          Max(Dihed)        8.70      Max(Improp)    0.00
          ---------------------------------------------------------------------

Geometry step timings:
Preparation and reading OPT file:      0.000 s ( 2.067 %)
Internal coordinates            :      0.000 s ( 1.583 %)
B/P matrices and projection     :      0.001 s (30.167 %)
Hessian update/contruction      :      0.000 s (15.567 %)
Making the step                 :      0.001 s (35.532 %)
Converting the step to Cartesian:      0.000 s ( 8.267 %)
Storing new data                :      0.000 s ( 1.495 %)
Checking convergence            :      0.000 s ( 2.375 %)
GOAT stuff                      :      0.000 s ( 0.044 %)
Final printing                  :      0.000 s ( 2.858 %)
Total time                      :      0.002 s

Time for energy+gradient        :      0.032 s
Time for complete geometry iter :      0.035 s

         *************************************************************
         *                GEOMETRY OPTIMIZATION CYCLE   8            *
         *************************************************************
---------------------------------
CARTESIAN COORDINATES (ANGSTROEM)
---------------------------------
  H    -1.677955    0.394669   -0.684119
  C    -2.754670    2.130986   -0.203256
  H    -2.608011    2.706205   -1.115947
  H    -4.518521    1.064194    0.981747
  O     0.563288    1.985907    0.660046
  C    -1.541440    1.226949    0.021337
  H    -2.327433    0.529728    1.694145
  S    -4.311260    1.173255   -0.330835
  N    -1.432095    0.940851    1.447237
  H    -0.791149    0.178007    1.642067
  C    -0.322167    2.109417   -0.319801
  H    -2.798859    2.848740    0.613845
  O    -0.223073    2.803119   -1.289053
  H    -0.023389    1.654510    1.377062

----------------------------
CARTESIAN COORDINATES (A.U.)
----------------------------
  NO LB    ZA    FRAG    MASS        X           Y           Z
   0 H   1.0000    1     1.008   -3.170876    0.745816   -1.292797
   1 C   6.0000    1    12.011   -5.205571    4.026979   -0.384098
   2 H   1.0000    1     1.008   -4.928427    5.113987   -2.108835
   3 H   1.0000    1     1.008   -8.538767    2.011036    1.855232
   4 O   8.0000    1    15.999    1.064460    3.752821    1.247306
   5 C   6.0000    1    12.011   -2.912900    2.318597    0.040320
   6 H   1.0000    1     1.008   -4.398210    1.001040    3.201469
   7 S  16.0000    1    32.060   -8.147101    2.217130   -0.625187
   8 N   7.0000    1    14.007   -2.706268    1.777950    2.734881
   9 H   1.0000    1     1.008   -1.495055    0.336384    3.103058
  10 C   6.0000    1    12.011   -0.608807    3.986221   -0.604336
  11 H   1.0000    1     1.008   -5.289078    5.383338    1.159998
  12 O   8.0000    1    15.999   -0.421548    5.297126   -2.435958
  13 H   1.0000    1     1.008   -0.044199    3.126570    2.602271

------------------------------------------------------------------------------
                         ORCA GEOMETRY RELAXATION STEP
------------------------------------------------------------------------------

Reading the OPT-File                    .... done

---------------------------------------------
FINAL SINGLE POINT ENERGY       -24.260972125170
---------------------------------------------

Getting information on internals        .... done
Copying old internal coords+grads       .... done
Making the new internal coordinates     .... (2022 redundants) done
Validating the new internal coordinates .... (2022 redundants) done
Calculating the B-matrix                .... done
Calculating the G,G- and P matrices     .... done
Transforming gradient to internals      .... done
Projecting the internal gradient        .... done
Number of atoms                         ....  14
Number of internal coordinates          ....  57
Current Energy                          ....   -24.260972125 Eh
Current gradient norm                   ....     0.052678991 Eh/bohr
Maximum allowed component of the step   ....  0.300
Current trust radius                    ....  0.675
Updating the Hessian (BFGS)             .... done
Making uphill step                      .... done
Uphill step size                        .... 0.674107
Converting the step to Cartesian space:
 Initial RMS(Int)=    0.0892876775
Transforming coordinates:
 Iter   0:  RMS(Cart)=    0.1365633042 RMS(Int)=    0.0906907973
 Iter   5:  RMS(Cart)=    0.0000073551 RMS(Int)=    0.0000063894
Imposing constraints:
 Iter   0:  RMS(Cart)=    0.0013490114 RMS(Int)=    0.0000908057
 Iter   5:  RMS(Cart)=    0.0000000280 RMS(Int)=    0.0000000018
CONVERGED
done
Storing new coordinates                 .... done
Current trust radius                    ....     0.6750
Energy difference                       ....     0.5273 kcal/mol
Maximum difference                      ....     0.4200 kcal/mol
New trust radius                        ....     0.4500

                                .--------------------.
          ----------------------|Geometry convergence|-------------------------
          Item                value                   Tolerance       Converged
          ---------------------------------------------------------------------
          Energy change       0.0008403180            0.0000050000      NO
          RMS gradient        0.0058579120            0.0001000000      NO
          MAX gradient        0.0155947413            0.0003000000      NO
          RMS step            0.0892876775            0.0020000000      NO
          MAX step            0.2668125878            0.0040000000      NO
          -------------------------------------------------------------------------
          ........................................................
          Max(Bonds)      0.1412      Max(Angles)    3.44
          Max(Dihed)       13.38      Max(Improp)    0.00
          ---------------------------------------------------------------------

Geometry step timings:
Preparation and reading OPT file:      0.000 s ( 1.856 %)
Internal coordinates            :      0.000 s ( 1.583 %)
B/P matrices and projection     :      0.001 s (30.786 %)
Hessian update/contruction      :      0.000 s (12.172 %)
Making the step                 :      0.001 s (39.083 %)
Converting the step to Cartesian:      0.000 s ( 7.969 %)
Storing new data                :      0.000 s ( 1.146 %)
Checking convergence            :      0.000 s ( 2.511 %)
GOAT stuff                      :      0.000 s ( 0.055 %)
Final printing                  :      0.000 s ( 2.784 %)
Total time                      :      0.002 s

Time for energy+gradient        :      0.035 s
Time for complete geometry iter :      0.038 s

         *************************************************************
         *                GEOMETRY OPTIMIZATION CYCLE   9            *
         *************************************************************
---------------------------------
CARTESIAN COORDINATES (ANGSTROEM)
---------------------------------
  H    -1.718822    0.373164   -0.567827
  C    -2.778003    2.162021   -0.194810
  H    -2.606400    2.783079   -1.072439
  H    -4.538823    0.933219    0.845858
  O     0.650146    1.810300    0.537688
  C    -1.565172    1.264684    0.057135
  H    -2.305809    0.638023    1.813140
  S    -4.288262    1.155459   -0.444704
  N    -1.423281    1.021605    1.488141
  H    -0.794335    0.238679    1.636992
  C    -0.314246    2.080480   -0.331987
  H    -2.924630    2.836772    0.646610
  O    -0.250969    2.860772   -1.236217
  H     0.091870    1.588279    1.316893

----------------------------
CARTESIAN COORDINATES (A.U.)
----------------------------
  NO LB    ZA    FRAG    MASS        X           Y           Z
   0 H   1.0000    1     1.008   -3.248104    0.705179   -1.073037
   1 C   6.0000    1    12.011   -5.249664    4.085628   -0.368138
   2 H   1.0000    1     1.008   -4.925383    5.259256   -2.026616
   3 H   1.0000    1     1.008   -8.577132    1.763529    1.598440
   4 O   8.0000    1    15.999    1.228598    3.420970    1.016083
   5 C   6.0000    1    12.011   -2.957746    2.389906    0.107970
   6 H   1.0000    1     1.008   -4.357347    1.205689    3.426337
   7 S  16.0000    1    32.060   -8.103641    2.183500   -0.840369
   8 N   7.0000    1    14.007   -2.689610    1.930553    2.812180
   9 H   1.0000    1     1.008   -1.501075    0.451038    3.093466
  10 C   6.0000    1    12.011   -0.593840    3.931538   -0.627364
  11 H   1.0000    1     1.008   -5.526749    5.360723    1.221916
  12 O   8.0000    1    15.999   -0.474262    5.406075   -2.336111
  13 H   1.0000    1     1.008    0.173608    3.001412    2.488567

------------------------------------------------------------------------------
                         ORCA GEOMETRY RELAXATION STEP
------------------------------------------------------------------------------

Reading the OPT-File                    .... done

---------------------------------------------
FINAL SINGLE POINT ENERGY       -24.259187533170
---------------------------------------------

Getting information on internals        .... done
Copying old internal coords+grads       .... done
Making the new internal coordinates     .... (2022 redundants) done
Validating the new internal coordinates .... (2022 redundants) done
Calculating the B-matrix                .... done
Calculating the G,G- and P matrices     .... done
Transforming gradient to internals      .... done
Projecting the internal gradient        .... done
Number of atoms                         ....  14
Number of internal coordinates          ....  57
Current Energy                          ....   -24.259187533 Eh
Current gradient norm                   ....     0.048044833 Eh/bohr
Maximum allowed component of the step   ....  0.300
Current trust radius                    ....  0.450
Updating the Hessian (BFGS)             .... done
Making uphill step                      .... done
Uphill step size                        .... 0.449197
Converting the step to Cartesian space:
 Initial RMS(Int)=    0.0594975716
Transforming coordinates:
 Iter   0:  RMS(Cart)=    0.0880763497 RMS(Int)=    0.0601256387
 Iter   5:  RMS(Cart)=    0.0000003063 RMS(Int)=    0.0000002819
Imposing constraints:
 Iter   0:  RMS(Cart)=    0.0002008926 RMS(Int)=    0.0000137340
CONVERGED
done
Storing new coordinates                 .... done
Current trust radius                    ....     0.4500
Energy difference                       ....     1.1198 kcal/mol
Maximum difference                      ....     0.4200 kcal/mol
New trust radius                        ....     0.3000

                                .--------------------.
          ----------------------|Geometry convergence|-------------------------
          Item                value                   Tolerance       Converged
          ---------------------------------------------------------------------
          Energy change       0.0017845920            0.0000050000      NO
          RMS gradient        0.0052064473            0.0001000000      NO
          MAX gradient        0.0149065542            0.0003000000      NO
          RMS step            0.0594975716            0.0020000000      NO
          MAX step            0.2072127484            0.0040000000      NO
          -------------------------------------------------------------------------
          ........................................................
          Max(Bonds)      0.1097      Max(Angles)    2.83
          Max(Dihed)        8.22      Max(Improp)    0.00
          ---------------------------------------------------------------------

Geometry step timings:
Preparation and reading OPT file:      0.000 s ( 1.739 %)
Internal coordinates            :      0.000 s ( 1.490 %)
B/P matrices and projection     :      0.001 s (29.459 %)
Hessian update/contruction      :      0.000 s (16.195 %)
Making the step                 :      0.001 s (36.711 %)
Converting the step to Cartesian:      0.000 s ( 7.700 %)
Storing new data                :      0.000 s ( 1.292 %)
Checking convergence            :      0.000 s ( 2.335 %)
GOAT stuff                      :      0.000 s ( 0.050 %)
Final printing                  :      0.000 s ( 3.030 %)
Total time                      :      0.002 s

Time for energy+gradient        :      0.033 s
Time for complete geometry iter :      0.036 s

         *************************************************************
         *                GEOMETRY OPTIMIZATION CYCLE  10            *
         *************************************************************
---------------------------------
CARTESIAN COORDINATES (ANGSTROEM)
---------------------------------
  H    -1.730410    0.361374   -0.484141
  C    -2.796143    2.178206   -0.182942
  H    -2.607880    2.828914   -1.035307
  H    -4.556031    0.857737    0.742296
  O     0.692749    1.721523    0.449930
  C    -1.580088    1.289963    0.085173
  H    -2.292871    0.710673    1.885221
  S    -4.281758    1.162583   -0.526390
  N    -1.414090    1.061417    1.515981
  H    -0.801286    0.262387    1.645301
  C    -0.314438    2.062297   -0.343060
  H    -3.007060    2.814865    0.674354
  O    -0.270562    2.882539   -1.212410
  H     0.193135    1.552057    1.280468

----------------------------
CARTESIAN COORDINATES (A.U.)
----------------------------
  NO LB    ZA    FRAG    MASS        X           Y           Z
   0 H   1.0000    1     1.008   -3.270002    0.682899   -0.914893
   1 C   6.0000    1    12.011   -5.283945    4.116212   -0.345709
   2 H   1.0000    1     1.008   -4.928179    5.345873   -1.956447
   3 H   1.0000    1     1.008   -8.609651    1.620887    1.402736
   4 O   8.0000    1    15.999    1.309106    3.253207    0.850245
   5 C   6.0000    1    12.011   -2.985933    2.437678    0.160953
   6 H   1.0000    1     1.008   -4.332898    1.342978    3.562551
   7 S  16.0000    1    32.060   -8.091351    2.196963   -0.994734
   8 N   7.0000    1    14.007   -2.672243    2.005787    2.864788
   9 H   1.0000    1     1.008   -1.514212    0.495839    3.109167
  10 C   6.0000    1    12.011   -0.594201    3.897177   -0.648289
  11 H   1.0000    1     1.008   -5.682520    5.319324    1.274344
  12 O   8.0000    1    15.999   -0.511288    5.447210   -2.291122
  13 H   1.0000    1     1.008    0.364972    2.932962    2.419735

------------------------------------------------------------------------------
                         ORCA GEOMETRY RELAXATION STEP
------------------------------------------------------------------------------

Reading the OPT-File                    .... done

---------------------------------------------
FINAL SINGLE POINT ENERGY       -24.259901359030
---------------------------------------------

Getting information on internals        .... done
Copying old internal coords+grads       .... done
Making the new internal coordinates     .... (2022 redundants) done
Validating the new internal coordinates .... (2022 redundants) done
Calculating the B-matrix                .... done
Calculating the G,G- and P matrices     .... done
Transforming gradient to internals      .... done
Projecting the internal gradient        .... done
Number of atoms                         ....  14
Number of internal coordinates          ....  57
Current Energy                          ....   -24.259901359 Eh
Current gradient norm                   ....     0.041140161 Eh/bohr
Maximum allowed component of the step   ....  0.300
Current trust radius                    ....  0.300
Updating the Hessian (BFGS)             .... done
Making uphill step                      .... done
Uphill step size                        .... 0.298963
Converting the step to Cartesian space:
 Initial RMS(Int)=    0.0395985736
Transforming coordinates:
 Iter   0:  RMS(Cart)=    0.0606478436 RMS(Int)=    0.0398636458
 Iter   5:  RMS(Cart)=    0.0000000229 RMS(Int)=    0.0000000227
Imposing constraints:
 Iter   0:  RMS(Cart)=    0.0000986955 RMS(Int)=    0.0000070683
CONVERGED
done
Storing new coordinates                 .... done
Current trust radius                    ....     0.3000
Energy difference                       ....     0.4479 kcal/mol
Maximum difference                      ....     0.4200 kcal/mol
New trust radius                        ....     0.3000

                                .--------------------.
          ----------------------|Geometry convergence|-------------------------
          Item                value                   Tolerance       Converged
          ---------------------------------------------------------------------
          Energy change      -0.0007138259            0.0000050000      NO
          RMS gradient        0.0043936816            0.0001000000      NO
          MAX gradient        0.0140085209            0.0003000000      NO
          RMS step            0.0395985736            0.0020000000      NO
          MAX step            0.1484970651            0.0040000000      NO
          -------------------------------------------------------------------------
          ........................................................
          Max(Bonds)      0.0786      Max(Angles)    1.73
          Max(Dihed)        4.58      Max(Improp)    0.00
          ---------------------------------------------------------------------

Geometry step timings:
Preparation and reading OPT file:      0.000 s ( 2.373 %)
Internal coordinates            :      0.000 s ( 1.661 %)
B/P matrices and projection     :      0.001 s (30.280 %)
Hessian update/contruction      :      0.000 s (13.336 %)
Making the step                 :      0.001 s (38.443 %)
Converting the step to Cartesian:      0.000 s ( 7.404 %)
Storing new data                :      0.000 s ( 1.661 %)
Checking convergence            :      0.000 s ( 2.136 %)
GOAT stuff                      :      0.000 s ( 0.047 %)
Final printing                  :      0.000 s ( 2.610 %)
Total time                      :      0.002 s

Time for energy+gradient        :      0.034 s
Time for complete geometry iter :      0.037 s

         *************************************************************
         *                GEOMETRY OPTIMIZATION CYCLE  11            *
         *************************************************************
---------------------------------
CARTESIAN COORDINATES (ANGSTROEM)
---------------------------------
  H    -1.728901    0.356542   -0.430219
  C    -2.809569    2.185265   -0.169829
  H    -2.608783    2.857007   -1.002800
  H    -4.571003    0.811043    0.662411
  O     0.715445    1.676107    0.388719
  C    -1.588982    1.305848    0.106655
  H    -2.287496    0.761860    1.928670
  S    -4.282102    1.177997   -0.586429
  N    -1.407505    1.083551    1.536568
  H    -0.806503    0.275689    1.666400
  C    -0.318253    2.051356   -0.352928
  H    -3.057117    2.790787    0.700136
  O    -0.288377    2.887961   -1.207147
  H     0.272410    1.525521    1.254266

----------------------------
CARTESIAN COORDINATES (A.U.)
----------------------------
  NO LB    ZA    FRAG    MASS        X           Y           Z
   0 H   1.0000    1     1.008   -3.267150    0.673766   -0.812995
   1 C   6.0000    1    12.011   -5.309316    4.129553   -0.320931
   2 H   1.0000    1     1.008   -4.929886    5.398962   -1.895017
   3 H   1.0000    1     1.008   -8.637943    1.532648    1.251776
   4 O   8.0000    1    15.999    1.351996    3.167382    0.734573
   5 C   6.0000    1    12.011   -3.002742    2.467695    0.201549
   6 H   1.0000    1     1.008   -4.322741    1.439707    3.644659
   7 S  16.0000    1    32.060   -8.092001    2.226092   -1.108190
   8 N   7.0000    1    14.007   -2.659798    2.047615    2.903692
   9 H   1.0000    1     1.008   -1.524069    0.520977    3.149039
  10 C   6.0000    1    12.011   -0.601411    3.876501   -0.666937
  11 H   1.0000    1     1.008   -5.777113    5.273824    1.323066
  12 O   8.0000    1    15.999   -0.544953    5.457455   -2.281178
  13 H   1.0000    1     1.008    0.514780    2.882818    2.370218

------------------------------------------------------------------------------
                         ORCA GEOMETRY RELAXATION STEP
------------------------------------------------------------------------------

Reading the OPT-File                    .... done

---------------------------------------------
FINAL SINGLE POINT ENERGY       -24.261077562290
---------------------------------------------

Getting information on internals        .... done
Copying old internal coords+grads       .... done
Making the new internal coordinates     .... (2022 redundants) done
Validating the new internal coordinates .... (2022 redundants) done
Calculating the B-matrix                .... done
Calculating the G,G- and P matrices     .... done
Transforming gradient to internals      .... done
Projecting the internal gradient        .... done
Number of atoms                         ....  14
Number of internal coordinates          ....  57
Current Energy                          ....   -24.261077562 Eh
Current gradient norm                   ....     0.035914057 Eh/bohr
Maximum allowed component of the step   ....  0.300
Current trust radius                    ....  0.300
Updating the Hessian (BFGS)             .... done
Making uphill step                      .... done
Uphill step size                        .... 0.298885
Converting the step to Cartesian space:
 Initial RMS(Int)=    0.0395882567
Transforming coordinates:
 Iter   0:  RMS(Cart)=    0.0653009964 RMS(Int)=    0.0399328466
 Iter   5:  RMS(Cart)=    0.0000000238 RMS(Int)=    0.0000000234
Imposing constraints:
 Iter   0:  RMS(Cart)=    0.0000678638 RMS(Int)=    0.0000051650
CONVERGED
done
Storing new coordinates                 .... done
Current trust radius                    ....     0.3000
Energy difference                       ....     0.7381 kcal/mol
Maximum difference                      ....     0.4200 kcal/mol
New trust radius                        ....     0.3000

                                .--------------------.
          ----------------------|Geometry convergence|-------------------------
          Item                value                   Tolerance       Converged
          ---------------------------------------------------------------------
          Energy change      -0.0011762033            0.0000050000      NO
          RMS gradient        0.0037568967            0.0001000000      NO
          MAX gradient        0.0127947301            0.0003000000      NO
          RMS step            0.0395882567            0.0020000000      NO
          MAX step            0.1533680458            0.0040000000      NO
          -------------------------------------------------------------------------
          ........................................................
          Max(Bonds)      0.0812      Max(Angles)    1.47
          Max(Dihed)        3.96      Max(Improp)    0.00
          ---------------------------------------------------------------------

Geometry step timings:
Preparation and reading OPT file:      0.000 s ( 1.995 %)
Internal coordinates            :      0.000 s ( 1.833 %)
B/P matrices and projection     :      0.001 s (35.472 %)
Hessian update/contruction      :      0.000 s (15.364 %)
Making the step                 :      0.001 s (36.388 %)
Converting the step to Cartesian:      0.000 s ( 3.989 %)
Storing new data                :      0.000 s ( 0.809 %)
Checking convergence            :      0.000 s ( 1.456 %)
GOAT stuff                      :      0.000 s ( 0.000 %)
Final printing                  :      0.000 s ( 2.588 %)
Total time                      :      0.002 s

Time for energy+gradient        :      0.032 s
Time for complete geometry iter :      0.035 s

         *************************************************************
         *                GEOMETRY OPTIMIZATION CYCLE  12            *
         *************************************************************
---------------------------------
CARTESIAN COORDINATES (ANGSTROEM)
---------------------------------
  H    -1.726067    0.356060   -0.380444
  C    -2.823197    2.191360   -0.151729
  H    -2.608520    2.887248   -0.961079
  H    -4.582764    0.758296    0.571448
  O     0.733614    1.634753    0.324474
  C    -1.597574    1.320947    0.130902
  H    -2.283847    0.821259    1.974439
  S    -4.278557    1.196539   -0.650486
  N    -1.401710    1.107442    1.560256
  H    -0.814274    0.290825    1.697210
  C    -0.325066    2.040300   -0.364083
  H    -3.104145    2.762166    0.731461
  O    -0.308560    2.886774   -1.208891
  H     0.353932    1.492567    1.220996

----------------------------
CARTESIAN COORDINATES (A.U.)
----------------------------
  NO LB    ZA    FRAG    MASS        X           Y           Z
   0 H   1.0000    1     1.008   -3.261794    0.672855   -0.718934
   1 C   6.0000    1    12.011   -5.335068    4.141071   -0.286727
   2 H   1.0000    1     1.008   -4.929389    5.456108   -1.816175
   3 H   1.0000    1     1.008   -8.660170    1.432972    1.079880
   4 O   8.0000    1    15.999    1.386330    3.089235    0.613167
   5 C   6.0000    1    12.011   -3.018977    2.496229    0.247368
   6 H   1.0000    1     1.008   -4.315845    1.551954    3.731149
   7 S  16.0000    1    32.060   -8.085301    2.261132   -1.229240
   8 N   7.0000    1    14.007   -2.648848    2.092763    2.948456
   9 H   1.0000    1     1.008   -1.538755    0.549579    3.207262
  10 C   6.0000    1    12.011   -0.614286    3.855608   -0.688017
  11 H   1.0000    1     1.008   -5.865985    5.219737    1.382262
  12 O   8.0000    1    15.999   -0.583093    5.455212   -2.284473
  13 H   1.0000    1     1.008    0.668834    2.820542    2.307347

------------------------------------------------------------------------------
                         ORCA GEOMETRY RELAXATION STEP
------------------------------------------------------------------------------

Reading the OPT-File                    .... done

---------------------------------------------
FINAL SINGLE POINT ENERGY       -24.262153722310
---------------------------------------------

Getting information on internals        .... done
Copying old internal coords+grads       .... done
Making the new internal coordinates     .... (2022 redundants) done
Validating the new internal coordinates .... (2022 redundants) done
Calculating the B-matrix                .... done
Calculating the G,G- and P matrices     .... done
Transforming gradient to internals      .... done
Projecting the internal gradient        .... done
Number of atoms                         ....  14
Number of internal coordinates          ....  57
Current Energy                          ....   -24.262153722 Eh
Current gradient norm                   ....     0.032221684 Eh/bohr
Maximum allowed component of the step   ....  0.300
Current trust radius                    ....  0.300
Updating the Hessian (BFGS)             .... done
Making uphill step                      .... done
Uphill step size                        .... 0.298753
Converting the step to Cartesian space:
 Initial RMS(Int)=    0.0395708648
Transforming coordinates:
 Iter   0:  RMS(Cart)=    0.0691909591 RMS(Int)=    0.0400022214
 Iter   5:  RMS(Cart)=    0.0000000242 RMS(Int)=    0.0000000230
Imposing constraints:
 Iter   0:  RMS(Cart)=    0.0000776315 RMS(Int)=    0.0000062615
CONVERGED
done
Storing new coordinates                 .... done
Current trust radius                    ....     0.3000
Energy difference                       ....     0.6753 kcal/mol
Maximum difference                      ....     0.4200 kcal/mol
New trust radius                        ....     0.3000

                                .--------------------.
          ----------------------|Geometry convergence|-------------------------
          Item                value                   Tolerance       Converged
          ---------------------------------------------------------------------
          Energy change      -0.0010761600            0.0000050000      NO
          RMS gradient        0.0032723096            0.0001000000      NO
          MAX gradient        0.0111012410            0.0003000000      NO
          RMS step            0.0395708648            0.0020000000      NO
          MAX step            0.1582927532            0.0040000000      NO
          -------------------------------------------------------------------------
          ........................................................
          Max(Bonds)      0.0838      Max(Angles)    1.49
          Max(Dihed)        3.90      Max(Improp)    0.00
          ---------------------------------------------------------------------

Geometry step timings:
Preparation and reading OPT file:      0.000 s ( 2.318 %)
Internal coordinates            :      0.000 s ( 1.766 %)
B/P matrices and projection     :      0.000 s (32.450 %)
Hessian update/contruction      :      0.000 s (11.921 %)
Making the step                 :      0.000 s (38.631 %)
Converting the step to Cartesian:      0.000 s ( 6.733 %)
Storing new data                :      0.000 s ( 1.214 %)
Checking convergence            :      0.000 s ( 2.318 %)
GOAT stuff                      :      0.000 s ( 0.110 %)
Final printing                  :      0.000 s ( 2.539 %)
Total time                      :      0.001 s

Time for energy+gradient        :      0.030 s
Time for complete geometry iter :      0.032 s

         *************************************************************
         *                GEOMETRY OPTIMIZATION CYCLE  13            *
         *************************************************************
---------------------------------
CARTESIAN COORDINATES (ANGSTROEM)
---------------------------------
  H    -1.725123    0.359328   -0.335198
  C    -2.836494    2.197611   -0.129871
  H    -2.607646    2.920199   -0.911464
  H    -4.587283    0.699601    0.471233
  O     0.747144    1.596194    0.259293
  C    -1.606347    1.335142    0.157418
  H    -2.279472    0.888771    2.025082
  S    -4.267915    1.215735   -0.715919
  N    -1.396644    1.133527    1.586535
  H    -0.824668    0.307463    1.732015
  C    -0.334608    2.028858   -0.374740
  H    -3.150348    2.732050    0.764918
  O    -0.330471    2.879529   -1.215473
  H     0.433140    1.452529    1.180645

----------------------------
CARTESIAN COORDINATES (A.U.)
----------------------------
  NO LB    ZA    FRAG    MASS        X           Y           Z
   0 H   1.0000    1     1.008   -3.260010    0.679031   -0.633433
   1 C   6.0000    1    12.011   -5.360197    4.152883   -0.245420
   2 H   1.0000    1     1.008   -4.927736    5.518376   -1.722416
   3 H   1.0000    1     1.008   -8.668709    1.322054    0.890501
   4 O   8.0000    1    15.999    1.411897    3.016369    0.489993
   5 C   6.0000    1    12.011   -3.035556    2.523053    0.297477
   6 H   1.0000    1     1.008   -4.307578    1.679534    3.826850
   7 S  16.0000    1    32.060   -8.065190    2.297406   -1.352892
   8 N   7.0000    1    14.007   -2.639274    2.142055    2.998117
   9 H   1.0000    1     1.008   -1.558396    0.581021    3.273034
  10 C   6.0000    1    12.011   -0.632318    3.833986   -0.708156
  11 H   1.0000    1     1.008   -5.953295    5.162827    1.445486
  12 O   8.0000    1    15.999   -0.624499    5.441521   -2.296912
  13 H   1.0000    1     1.008    0.818515    2.744882    2.231095

------------------------------------------------------------------------------
                         ORCA GEOMETRY RELAXATION STEP
------------------------------------------------------------------------------

Reading the OPT-File                    .... done

---------------------------------------------
FINAL SINGLE POINT ENERGY       -24.263048372680
---------------------------------------------

Getting information on internals        .... done
Copying old internal coords+grads       .... done
Making the new internal coordinates     .... (2022 redundants) done
Validating the new internal coordinates .... (2022 redundants) done
Calculating the B-matrix                .... done
Calculating the G,G- and P matrices     .... done
Transforming gradient to internals      .... done
Projecting the internal gradient        .... done
Number of atoms                         ....  14
Number of internal coordinates          ....  57
Current Energy                          ....   -24.263048373 Eh
Current gradient norm                   ....     0.030100309 Eh/bohr
Maximum allowed component of the step   ....  0.300
Current trust radius                    ....  0.300
Updating the Hessian (BFGS)             .... done
Making uphill step                      .... done
Uphill step size                        .... 0.298648
Converting the step to Cartesian space:
 Initial RMS(Int)=    0.0395569132
Transforming coordinates:
 Iter   0:  RMS(Cart)=    0.0716724409 RMS(Int)=    0.0400308418
 Iter   5:  RMS(Cart)=    0.0000000252 RMS(Int)=    0.0000000232
Imposing constraints:
 Iter   0:  RMS(Cart)=    0.0001313932 RMS(Int)=    0.0000087557
CONVERGED
done
Storing new coordinates                 .... done
Current trust radius                    ....     0.3000
Energy difference                       ....     0.5614 kcal/mol
Maximum difference                      ....     0.4200 kcal/mol
New trust radius                        ....     0.3000

                                .--------------------.
          ----------------------|Geometry convergence|-------------------------
          Item                value                   Tolerance       Converged
          ---------------------------------------------------------------------
          Energy change      -0.0008946504            0.0000050000      NO
          RMS gradient        0.0029520351            0.0001000000      NO
          MAX gradient        0.0092590302            0.0003000000      NO
          RMS step            0.0395569132            0.0020000000      NO
          MAX step            0.1627629474            0.0040000000      NO
          -------------------------------------------------------------------------
          ........................................................
          Max(Bonds)      0.0861      Max(Angles)    1.46
          Max(Dihed)        3.96      Max(Improp)    0.00
          ---------------------------------------------------------------------

Geometry step timings:
Preparation and reading OPT file:      0.000 s ( 1.985 %)
Internal coordinates            :      0.000 s ( 1.764 %)
B/P matrices and projection     :      0.001 s (33.021 %)
Hessian update/contruction      :      0.000 s (16.428 %)
Making the step                 :      0.001 s (38.589 %)
Converting the step to Cartesian:      0.000 s ( 4.024 %)
Storing new data                :      0.000 s ( 0.827 %)
Checking convergence            :      0.000 s ( 1.544 %)
GOAT stuff                      :      0.000 s ( 0.000 %)
Final printing                  :      0.000 s ( 1.764 %)
Total time                      :      0.002 s

Time for energy+gradient        :      0.028 s
Time for complete geometry iter :      0.030 s

         *************************************************************
         *                GEOMETRY OPTIMIZATION CYCLE  14            *
         *************************************************************
---------------------------------
CARTESIAN COORDINATES (ANGSTROEM)
---------------------------------
  H    -1.727419    0.364621   -0.293627
  C    -2.848913    2.203752   -0.105533
  H    -2.606316    2.954688   -0.855622
  H    -4.582530    0.638763    0.363812
  O     0.755799    1.561075    0.195125
  C    -1.615130    1.347812    0.185663
  H    -2.272401    0.962250    2.079424
  S    -4.250007    1.235729   -0.781082
  N    -1.391390    1.160749    1.614630
  H    -0.836867    0.324443    1.768889
  C    -0.346755    2.017348   -0.384163
  H    -3.196350    2.701142    0.798164
  O    -0.355275    2.867208   -1.225683
  H     0.506819    1.406956    1.134478

----------------------------
CARTESIAN COORDINATES (A.U.)
----------------------------
  NO LB    ZA    FRAG    MASS        X           Y           Z
   0 H   1.0000    1     1.008   -3.264348    0.689034   -0.554875
   1 C   6.0000    1    12.011   -5.383666    4.164488   -0.199429
[...]
  O     0.557906    1.954517    1.080726
  C    -1.442636    1.264716   -0.039845
  H    -2.074110    1.001660    1.886018
  S    -4.262372    1.228227    0.139099
  N    -1.535665    0.494745    1.190199
  H    -2.006769   -0.389147    1.035575
  C    -0.314505    2.305696    0.146585
  H    -2.718084    3.028231   -0.249195
  O    -0.234688    3.309517   -0.500415
  H     0.230540    1.129308    1.504485

----------------------------
CARTESIAN COORDINATES (A.U.)
----------------------------
  NO LB    ZA    FRAG    MASS        X           Y           Z
   0 H   1.0000    1     1.008   -2.059474    1.105483   -1.558280
   1 C   6.0000    1    12.011   -5.160492    3.733645   -0.993622
   2 H   1.0000    1     1.008   -5.328374    3.608007   -3.037622
   3 H   1.0000    1     1.008   -8.175062    3.683140    2.379334
   4 O   8.0000    1    15.999    1.054290    3.693502    2.042277
   5 C   6.0000    1    12.011   -2.726188    2.389967   -0.075295
   6 H   1.0000    1     1.008   -3.919500    1.892864    3.564058
   7 S  16.0000    1    32.060   -8.054716    2.321012    0.262859
   8 N   7.0000    1    14.007   -2.901986    0.934933    2.249150
   9 H   1.0000    1     1.008   -3.792244   -0.735382    1.956954
  10 C   6.0000    1    12.011   -0.594329    4.357133    0.277005
  11 H   1.0000    1     1.008   -5.136434    5.722527   -0.470910
  12 O   8.0000    1    15.999   -0.443497    6.254082   -0.945648
  13 H   1.0000    1     1.008    0.435658    2.134083    2.843065

------------------------------------------------------------------------------
                         ORCA GEOMETRY RELAXATION STEP
------------------------------------------------------------------------------

Reading the OPT-File                    .... done

---------------------------------------------
FINAL SINGLE POINT ENERGY       -24.277138872640
---------------------------------------------

Getting information on internals        .... done
Copying old internal coords+grads       .... done
Making the new internal coordinates     .... (2022 redundants) done
Validating the new internal coordinates .... (2022 redundants) done
Calculating the B-matrix                .... done
Calculating the G,G- and P matrices     .... done
Transforming gradient to internals      .... done
Projecting the internal gradient        .... done
Number of atoms                         ....  14
Number of internal coordinates          ....  57
Current Energy                          ....   -24.277138873 Eh
Current gradient norm                   ....     0.003928527 Eh/bohr
Maximum allowed component of the step   ....  0.300
Current trust radius                    ....  0.700
Updating the Hessian (BFGS)             .... done
Forming the augmented Hessian           .... done
Diagonalizing the augmented Hessian     .... done
Last element of RFO vector              ....  0.733539143
Lowest eigenvalues of augmented Hessian:
 -0.001117524  0.001156452  0.010265692  0.011382579  0.015775094
Length of the computed step             ....  0.926531614
Warning: the length of the step is outside the trust region - taking restricted step instead
The input lambda is                     ....    -0.000891
   iter:   5  x=   -0.001516  g=  601.032923 f(x)=     0.000024
The output lambda is                    ....    -0.001516 (7 iterations)
The final length of the internal step   ....  0.696847644
Converting the step to Cartesian space:
 Initial RMS(Int)=    0.0922997252
Transforming coordinates:
 Iter   0:  RMS(Cart)=    0.1866506692 RMS(Int)=    0.0946243436
 Iter   5:  RMS(Cart)=    0.0000374680 RMS(Int)=    0.0000291667
 Iter  10:  RMS(Cart)=    0.0000000311 RMS(Int)=    0.0000000312
done
Storing new coordinates                 .... done
The predicted energy change is          ....    -0.000627784
Previously predicted energy change      ....    -0.000071349
Actually observed energy change         ....    -0.000137285
Ratio of predicted to observed change   ....     1.924138593
New trust radius                        ....     0.466666667

                                .--------------------.
          ----------------------|Geometry convergence|-------------------------
          Item                value                   Tolerance       Converged
          ---------------------------------------------------------------------
          Energy change      -0.0001372853            0.0000050000      NO
          RMS gradient        0.0004714765            0.0001000000      NO
          MAX gradient        0.0028277935            0.0003000000      NO
          RMS step            0.0922997252            0.0020000000      NO
          MAX step            0.3000000000            0.0040000000      NO
          -------------------------------------------------------------------------
          ........................................................
          Max(Bonds)      0.1588      Max(Angles)    1.13
          Max(Dihed)       13.17      Max(Improp)    0.00
          ---------------------------------------------------------------------

Geometry step timings:
Preparation and reading OPT file:      0.000 s ( 1.935 %)
Internal coordinates            :      0.000 s ( 1.731 %)
B/P matrices and projection     :      0.001 s (31.823 %)
Hessian update/contruction      :      0.000 s (12.424 %)
Making the step                 :      0.001 s (39.002 %)
Converting the step to Cartesian:      0.000 s ( 5.703 %)
Storing new data                :      0.000 s ( 1.578 %)
Checking convergence            :      0.000 s ( 2.648 %)
GOAT stuff                      :      0.000 s ( 0.051 %)
Final printing                  :      0.000 s ( 3.106 %)
Total time                      :      0.002 s

Time for energy+gradient        :      0.027 s
Time for complete geometry iter :      0.030 s

         *************************************************************
         *                GEOMETRY OPTIMIZATION CYCLE  96            *
         *************************************************************
---------------------------------
CARTESIAN COORDINATES (ANGSTROEM)
---------------------------------
  H    -1.168754    0.542384   -0.782362
  C    -2.708882    2.024280   -0.498565
  H    -2.721341    2.096922   -1.582251
  H    -4.305496    1.566841    1.225405
  O     0.595832    1.910613    1.010105
  C    -1.456860    1.277272   -0.022664
  H    -2.026383    1.186605    1.937483
  S    -4.239881    1.145315   -0.042538
  N    -1.587747    0.579171    1.242173
  H    -2.176342   -0.242221    1.149430
  C    -0.278902    2.269897    0.080120
  H    -2.750516    3.029844   -0.084941
  O    -0.187573    3.256671   -0.587375
  H     0.246110    1.102940    1.450454

----------------------------
CARTESIAN COORDINATES (A.U.)
----------------------------
  NO LB    ZA    FRAG    MASS        X           Y           Z
   0 H   1.0000    1     1.008   -2.208625    1.024957   -1.478451
   1 C   6.0000    1    12.011   -5.119045    3.825335   -0.942151
   2 H   1.0000    1     1.008   -5.142590    3.962609   -2.990021
   3 H   1.0000    1     1.008   -8.136208    2.960901    2.315680
   4 O   8.0000    1    15.999    1.125959    3.610535    1.908822
   5 C   6.0000    1    12.011   -2.753067    2.413695   -0.042828
   6 H   1.0000    1     1.008   -3.829309    2.242359    3.661312
   7 S  16.0000    1    32.060   -8.012213    2.164332   -0.080386
   8 N   7.0000    1    14.007   -3.000407    1.094474    2.347367
   9 H   1.0000    1     1.008   -4.112691   -0.457731    2.172108
  10 C   6.0000    1    12.011   -0.527048    4.289483    0.151404
  11 H   1.0000    1     1.008   -5.197723    5.725574   -0.160515
  12 O   8.0000    1    15.999   -0.354461    6.154217   -1.109978
  13 H   1.0000    1     1.008    0.465081    2.084255    2.740961

------------------------------------------------------------------------------
                         ORCA GEOMETRY RELAXATION STEP
------------------------------------------------------------------------------

Reading the OPT-File                    .... done

---------------------------------------------
FINAL SINGLE POINT ENERGY       -24.277808811610
---------------------------------------------

Getting information on internals        .... done
Copying old internal coords+grads       .... done
Making the new internal coordinates     .... (2022 redundants) done
Validating the new internal coordinates .... (2022 redundants) done
Calculating the B-matrix                .... done
Calculating the G,G- and P matrices     .... done
Transforming gradient to internals      .... done
Projecting the internal gradient        .... done
Number of atoms                         ....  14
Number of internal coordinates          ....  57
Current Energy                          ....   -24.277808812 Eh
Current gradient norm                   ....     0.011675247 Eh/bohr
Maximum allowed component of the step   ....  0.300
Current trust radius                    ....  0.467
Updating the Hessian (BFGS)             .... done
Forming the augmented Hessian           .... done
Diagonalizing the augmented Hessian     .... done
Last element of RFO vector              ....  0.892330902
Lowest eigenvalues of augmented Hessian:
 -0.000490499  0.001001001  0.008590813  0.010892835  0.015350353
Length of the computed step             ....  0.505845797
Warning: the length of the step is outside the trust region - taking restricted step instead
The input lambda is                     ....    -0.000300
   iter:   5  x=   -0.000591  g=  333.759643 f(x)=     0.000000
The output lambda is                    ....    -0.000591 (6 iterations)
The final length of the internal step   ....  0.466666667
Converting the step to Cartesian space:
 Initial RMS(Int)=    0.0618115100
Transforming coordinates:
 Iter   0:  RMS(Cart)=    0.1194929090 RMS(Int)=    0.0624140226
 Iter   5:  RMS(Cart)=    0.0000027693 RMS(Int)=    0.0000025024
done
Storing new coordinates                 .... done
The predicted energy change is          ....    -0.000297737
Previously predicted energy change      ....    -0.000627784
Actually observed energy change         ....    -0.000669939
Ratio of predicted to observed change   ....     1.067148453
New trust radius                        ....     0.700000000

                                .--------------------.
          ----------------------|Geometry convergence|-------------------------
          Item                value                   Tolerance       Converged
          ---------------------------------------------------------------------
          Energy change      -0.0006699390            0.0000050000      NO
          RMS gradient        0.0013886239            0.0001000000      NO
          MAX gradient        0.0045680295            0.0003000000      NO
          RMS step            0.0618115100            0.0020000000      NO
          MAX step            0.2389330824            0.0040000000      NO
          -------------------------------------------------------------------------
          ........................................................
          Max(Bonds)      0.1264      Max(Angles)    0.53
          Max(Dihed)        8.40      Max(Improp)    0.00
          ---------------------------------------------------------------------

Geometry step timings:
Preparation and reading OPT file:      0.000 s ( 1.852 %)
Internal coordinates            :      0.000 s ( 1.902 %)
B/P matrices and projection     :      0.001 s (30.080 %)
Hessian update/contruction      :      0.000 s (12.362 %)
Making the step                 :      0.001 s (40.891 %)
Converting the step to Cartesian:      0.000 s ( 5.055 %)
Storing new data                :      0.000 s ( 1.702 %)
Checking convergence            :      0.000 s ( 2.553 %)
GOAT stuff                      :      0.000 s ( 0.050 %)
Final printing                  :      0.000 s ( 3.453 %)
Total time                      :      0.002 s

Time for energy+gradient        :      0.033 s
Time for complete geometry iter :      0.036 s

         *************************************************************
         *                GEOMETRY OPTIMIZATION CYCLE  97            *
         *************************************************************
---------------------------------
CARTESIAN COORDINATES (ANGSTROEM)
---------------------------------
  H    -1.224907    0.517125   -0.749088
  C    -2.701990    2.055641   -0.475307
  H    -2.666891    2.219616   -1.547661
  H    -4.289904    1.326254    1.162617
  O     0.619424    1.880815    0.963129
  C    -1.468622    1.284425   -0.007133
  H    -1.985592    1.291869    1.970102
  S    -4.229517    1.116798   -0.160128
  N    -1.611489    0.632365    1.280145
  H    -2.261976   -0.146233    1.227519
  C    -0.260839    2.243866    0.038603
  H    -2.780155    3.021120    0.020021
  O    -0.161394    3.214875   -0.648385
  H     0.257116    1.087999    1.420042

----------------------------
CARTESIAN COORDINATES (A.U.)
----------------------------
  NO LB    ZA    FRAG    MASS        X           Y           Z
   0 H   1.0000    1     1.008   -2.314738    0.977225   -1.415572
   1 C   6.0000    1    12.011   -5.106020    3.884599   -0.898201
   2 H   1.0000    1     1.008   -5.039694    4.194466   -2.924655
   3 H   1.0000    1     1.008   -8.106743    2.506257    2.197027
   4 O   8.0000    1    15.999    1.170542    3.554226    1.820049
   5 C   6.0000    1    12.011   -2.775293    2.427211   -0.013479
   6 H   1.0000    1     1.008   -3.752225    2.441278    3.722953
   7 S  16.0000    1    32.060   -7.992629    2.110442   -0.302599
   8 N   7.0000    1    14.007   -3.045273    1.194996    2.419124
   9 H   1.0000    1     1.008   -4.274515   -0.276340    2.319674
  10 C   6.0000    1    12.011   -0.492914    4.240293    0.072949
  11 H   1.0000    1     1.008   -5.253732    5.709089    0.037835
  12 O   8.0000    1    15.999   -0.304991    6.075233   -1.225270
  13 H   1.0000    1     1.008    0.485879    2.056021    2.683491

------------------------------------------------------------------------------
                         ORCA GEOMETRY RELAXATION STEP
------------------------------------------------------------------------------

Reading the OPT-File                    .... done

---------------------------------------------
FINAL SINGLE POINT ENERGY       -24.278106115870
---------------------------------------------

Getting information on internals        .... done
Copying old internal coords+grads       .... done
Making the new internal coordinates     .... (2022 redundants) done
Validating the new internal coordinates .... (2022 redundants) done
Calculating the B-matrix                .... done
Calculating the G,G- and P matrices     .... done
Transforming gradient to internals      .... done
Projecting the internal gradient        .... done
Number of atoms                         ....  14
Number of internal coordinates          ....  57
Current Energy                          ....   -24.278106116 Eh
Current gradient norm                   ....     0.016981054 Eh/bohr
Maximum allowed component of the step   ....  0.300
Current trust radius                    ....  0.700
Updating the Hessian (BFGS)             .... done
Forming the augmented Hessian           .... done
Diagonalizing the augmented Hessian     .... done
Last element of RFO vector              ....  0.952088958
Lowest eigenvalues of augmented Hessian:
 -0.000915847  0.001616099  0.008208184  0.010840933  0.015314704
Length of the computed step             ....  0.321210759
The final length of the internal step   ....  0.321210759
Converting the step to Cartesian space:
 Initial RMS(Int)=    0.0425454043
Transforming coordinates:
 Iter   0:  RMS(Cart)=    0.0669238104 RMS(Int)=    0.0424716925
 Iter   5:  RMS(Cart)=    0.0000000173 RMS(Int)=    0.0000000151
done
Storing new coordinates                 .... done
The predicted energy change is          ....    -0.000505170
Previously predicted energy change      ....    -0.000297737
Actually observed energy change         ....    -0.000297304
Ratio of predicted to observed change   ....     0.998547220
New trust radius                        ....     0.700000000

                                .--------------------.
          ----------------------|Geometry convergence|-------------------------
          Item                value                   Tolerance       Converged
          ---------------------------------------------------------------------
          Energy change      -0.0002973043            0.0000050000      NO
          RMS gradient        0.0021032511            0.0001000000      NO
          MAX gradient        0.0069584633            0.0003000000      NO
          RMS step            0.0425454043            0.0020000000      NO
          MAX step            0.2438926257            0.0040000000      NO
          -------------------------------------------------------------------------
          ........................................................
          Max(Bonds)      0.1291      Max(Angles)    0.28
          Max(Dihed)        4.95      Max(Improp)    0.00
          ---------------------------------------------------------------------

Geometry step timings:
Preparation and reading OPT file:      0.000 s ( 2.404 %)
Internal coordinates            :      0.000 s ( 1.992 %)
B/P matrices and projection     :      0.001 s (47.321 %)
Hessian update/contruction      :      0.000 s (20.330 %)
Making the step                 :      0.000 s (17.239 %)
Converting the step to Cartesian:      0.000 s ( 2.679 %)
Storing new data                :      0.000 s ( 1.305 %)
Checking convergence            :      0.000 s ( 1.992 %)
GOAT stuff                      :      0.000 s ( 0.069 %)
Final printing                  :      0.000 s ( 4.670 %)
Total time                      :      0.001 s

Time for energy+gradient        :      0.031 s
Time for complete geometry iter :      0.034 s

         *************************************************************
         *                GEOMETRY OPTIMIZATION CYCLE  98            *
         *************************************************************
---------------------------------
CARTESIAN COORDINATES (ANGSTROEM)
---------------------------------
  H    -1.266952    0.501679   -0.727332
  C    -2.702167    2.068043   -0.454300
  H    -2.627184    2.286421   -1.515862
  H    -4.338130    1.243881    1.085614
  O     0.638260    1.878375    0.928221
  C    -1.479891    1.283620    0.009938
  H    -1.951486    1.318399    2.006705
  S    -4.248267    1.127632   -0.246607
  N    -1.601202    0.648377    1.311728
  H    -2.258908   -0.126068    1.280620
  C    -0.258193    2.227768    0.012780
  H    -2.794481    3.006785    0.088623
  O    -0.162190    3.184659   -0.694305
  H     0.284056    1.096964    1.408651

----------------------------
CARTESIAN COORDINATES (A.U.)
----------------------------
  NO LB    ZA    FRAG    MASS        X           Y           Z
   0 H   1.0000    1     1.008   -2.394192    0.948036   -1.374458
   1 C   6.0000    1    12.011   -5.106356    3.908034   -0.858503
   2 H   1.0000    1     1.008   -4.964658    4.320710   -2.864563
   3 H   1.0000    1     1.008   -8.197877    2.350595    2.051513
   4 O   8.0000    1    15.999    1.206136    3.549615    1.754084
   5 C   6.0000    1    12.011   -2.796589    2.425690    0.018779
   6 H   1.0000    1     1.008   -3.687774    2.491414    3.792123
   7 S  16.0000    1    32.060   -8.028062    2.130915   -0.466020
   8 N   7.0000    1    14.007   -3.025833    1.225254    2.478806
   9 H   1.0000    1     1.008   -4.268718   -0.238234    2.420021
  10 C   6.0000    1    12.011   -0.487914    4.209871    0.024152
  11 H   1.0000    1     1.008   -5.280804    5.682001    0.167473
  12 O   8.0000    1    15.999   -0.306495    6.018133   -1.312046
  13 H   1.0000    1     1.008    0.536788    2.072962    2.661965

