14
Energy -24.2790849890
1 -1.54264101378179629975 0.44685709738042328487 -0.84751814048130180712
6 -2.73609162407573247577 2.11911504712952769580 -0.21550241435223527198
1 -2.73974126444029941752 2.53755006794409032622 -1.22063462265735434009
1 -4.44066369442372721466 1.36869966279016552768 1.28067809508256980067
8 0.27699204218448680859 2.48843939540469971661 0.87490440447933925938
6 -1.51940497734694424103 1.20648932234011474485 -0.05290398873898457394
1 -2.36576196610937294906 0.30506443634514623930 1.57611198143752218037
16 -4.32270993693616389919 1.22021759431583709521 -0.03907986257653155854
7 -1.45487001274347571567 0.65668483706264380029 1.29637366776465690066
1 -0.80989064403522392777 -0.12676260213560175405 1.32658875532617148707
6 -0.28275054968065815864 2.10510064188958345710 -0.26488684241927534790
1 -2.72353920323786802271 2.92562117719007774852 0.51536517009486682017
8 0.10008051302841912411 2.44495870373315993263 -1.34582523168152867754
1 -0.20574266840163549230 2.04849961861013207809 1.61080302872208314113
14
Energy -24.2842050751
1 -0.81891919997987339119 0.95642307081123612011 -0.97865082641061895696
6 -2.81347334618428090991 1.65067846554206232312 -0.59016705394436530518
1 -3.30956700549593962890 0.81167496114519421813 -1.07788867161318391297
1 -3.30160339493189169957 3.28002085684837307866 1.05674978915752126873
8 0.11180797039900143564 2.15282474247599564521 1.50693942374697598119
6 -1.41571265485130570738 1.25345543541392179243 -0.10577499757014505177
1 -2.13267338164702691117 0.31815177257887500284 1.54570910630416746834
16 -3.89764642350618428779 2.11963529526082261611 0.80614334448214386430
7 -1.37962066784139980591 0.17867408007827587091 0.87320469673088518814
1 -1.52300869810702566021 -0.72569879913290358253 0.43977123198703665929
6 -0.69367876845670728425 2.47453556444113287327 0.50821551278839804944
1 -2.75228549442419456739 2.49352014290577450595 -1.27566440350817100757
8 -0.84831763992754627424 3.59348894796858298051 0.10712908542107392462
1 0.00796370495438041004 1.18915046366264731681 1.67875776242827767781
