14
Energy -24.2790849890
1 -1.54264101378179629975 0.44685709738042328487 -0.84751814048130180712
6 -2.73609162407573247577 2.11911504712952769580 -0.21550241435223527198
1 -2.73974126444029941752 2.53755006794409032622 -1.22063462265735434009
1 -4.44066369442372721466 1.36869966279016552768 1.28067809508256980067
8 0.27699204218448680859 2.48843939540469971661 0.87490440447933925938
6 -1.51940497734694424103 1.20648932234011474485 -0.05290398873898457394
1 -2.36576196610937294906 0.30506443634514623930 1.57611198143752218037
16 -4.32270993693616389919 1.22021759431583709521 -0.03907986257653155854
7 -1.45487001274347571567 0.65668483706264380029 1.29637366776465690066
1 -0.80989064403522392777 -0.12676260213560175405 1.32658875532617148707
6 -0.28275054968065815864 2.10510064188958345710 -0.26488684241927534790
1 -2.72353920323786802271 2.92562117719007774852 0.51536517009486682017
8 0.10008051302841912411 2.44495870373315993263 -1.34582523168152867754
1 -0.20574266840163549230 2.04849961861013207809 1.61080302872208314113
14
Energy -24.2834617783
1 -1.01079972251333072286 1.70711225758356177629 -0.91724047484619775084
6 -2.98535382328235687766 1.91825275938074191195 -0.08157362723253613890
1 -3.46156144070725524386 1.88549529164271545412 0.89962282394054382539
1 -2.34743892631129424942 4.15254018698109295116 0.25962957374229650442
8 0.10235281701548142042 1.20065097796571351729 1.71970248929599134335
6 -1.54585782812182448431 1.39878364103048569156 -0.00943962281216337643
1 -2.11074836565409595934 -0.40110339653747217881 0.78457950999760106559
16 -3.08000048187708008740 3.62604504508420122377 -0.71440747436995333253
7 -1.43609306084427368333 -0.05113633596415498306 0.11012814846277378666
1 -1.61890653596229516786 -0.51010594231634331930 -0.77419816069825031501
6 -0.78144402867518225619 2.02291051578364600161 1.17657279677396187090
1 -3.56576798757321222766 1.31953292810379552158 -0.78542348375472792466
8 -0.96049874610299290634 3.14450641522519713789 1.56292038039401948168
1 0.03538313060971339657 0.33305065603681166531 1.26360112110664002394
