                                 *****************
                                 * O   R   C   A *
                                 *****************

                       *****************************
                       * Geometry Optimization Run *
                       *****************************

Geometry optimization settings:
Update method            Update   .... BFGS
Choice of coordinates    CoordSys .... (2022) Redundant Internals
Initial Hessian          InHess   .... Almloef's Model
Max. no of cycles        MaxIter  .... 14000

Convergence Tolerances:
Energy Change            TolE     ....  5.0000e-06 Eh
Max. Gradient            TolMAXG  ....  3.0000e-04 Eh/bohr
RMS Gradient             TolRMSG  ....  1.0000e-04 Eh/bohr
Max. Displacement        TolMAXD  ....  4.0000e-03 bohr
RMS Displacement         TolRMSD  ....  2.0000e-03 bohr
Strict Convergence                .... True

------------------------------------------------------------------------------
                        ORCA OPTIMIZATION COORDINATE SETUP
------------------------------------------------------------------------------

The optimization will be done in redundant internal coordinates (2022)
Making redundant internal coordinates   ...  (2022 redundants) done
Evaluating the initial hessian          ...  (Almloef) done
Evaluating the coordinates              ...  done
Calculating the B-matrix                .... done
Calculating the G-matrix                .... done
The number of degrees of freedom        ....   57

    -----------------------------------------------------------------
                    Redundant Internal Coordinates


    -----------------------------------------------------------------
         Definition                    Initial Value    Approx d2E/dq
    -----------------------------------------------------------------
      1. B(H   2,C   1)                  1.0887         0.361761   
      2. B(C   5,C   1)                  1.5296         0.374104   
      3. B(C   5,H   0)                  1.0995         0.347727   
      4. B(S   7,H   6)                  2.6972         0.010000   
      5. B(S   7,H   3)                  1.3333         0.397190   
      6. B(S   7,C   1)                  1.8321         0.332030   
      7. B(N   8,H   6)                  1.0157         0.423752   
      8. B(N   8,C   5)                  1.4584         0.435231   
      9. B(H   9,N   8)                  1.0152         0.424475   
     10. B(C  10,C   5)                  1.5433         0.355733   
     11. B(C  10,O   4)                  1.3264         0.706899   
     12. B(H  11,C   1)                  1.0885         0.362129   
     13. B(O  12,C  10)                  1.1960         1.141145   
     14. B(H  13,N   8)                  1.8960         0.016695   
     15. B(H  13,O   4)                  0.9839         0.476195   
     16. A(H   2,C   1,C   5)          109.2788         0.324639   
     17. A(H   2,C   1,H  11)          109.5850         0.291307   
     18. A(C   5,C   1,S   7)          112.6922         0.374973   
     19. A(H   2,C   1,S   7)          105.9352         0.334463   
     20. A(C   5,C   1,H  11)          111.1965         0.324694   
     21. A(S   7,C   1,H  11)          107.9904         0.334520   
     22. A(C  10,O   4,H  13)          107.8445         0.372882   
     23. A(C   1,C   5,N   8)          111.0014         0.370756   
     24. A(C   1,C   5,C  10)          105.9839         0.360416   
     25. A(H   0,C   5,N   8)          114.1571         0.328688   
     26. A(H   0,C   5,C  10)          108.6625         0.319892   
     27. A(N   8,C   5,C  10)          108.1229         0.367564   
     28. A(H   0,C   5,C   1)          108.5724         0.322539   
     29. A(C   1,S   7,H   3)           96.7387         0.364130   
     30. A(H   6,N   8,H   9)          107.1152         0.301320   
     31. A(C   5,N   8,H   9)          110.2728         0.336834   
     32. A(C   5,N   8,H   6)          110.2216         0.336738   
     33. A(O   4,C  10,C   5)          112.8535         0.399885   
     34. A(C   5,C  10,O  12)          123.0972         0.435477   
     35. A(O   4,C  10,O  12)          124.0182         0.490409   
     36. D(N   8,C   5,C   1,H   2)    178.2594         0.011173   
     37. D(H   0,C   5,C   1,H   2)    -55.4819         0.011173   
     38. D(N   8,C   5,C   1,S   7)    -64.2550         0.011173   
     39. D(H   0,C   5,C   1,S   7)     62.0037         0.011173   
     40. D(H   0,C   5,C   1,H  11)   -176.5818         0.011173   
     41. D(N   8,C   5,C   1,H  11)     57.1595         0.011173   
     42. D(H   3,S   7,C   1,H  11)    -34.0738         0.010000   
     43. D(H   3,S   7,C   1,C   5)     89.1451         0.010000   
     44. D(H   3,S   7,C   1,H   2)   -151.4117         0.010000   
     45. D(H   9,N   8,C   5,C   1)    164.7174         0.017309   
     46. D(H   9,N   8,C   5,H   0)     41.6179         0.017309   
     47. D(H   6,N   8,C   5,C  10)    162.5064         0.017309   
     48. D(H   6,N   8,C   5,H   0)    -76.4422         0.017309   
     49. D(H   9,N   8,C   5,C  10)    -79.4336         0.017309   
     50. D(H   6,N   8,C   5,C   1)     46.6573         0.017309   
     51. D(O  12,C  10,C   5,C   1)    -78.4185         0.010000   
     52. D(O  12,C  10,C   5,H   0)     38.0973         0.010000   
     53. D(O   4,C  10,C   5,N   8)    -19.4538         0.010000   
     54. D(O   4,C  10,C   5,C   1)     99.6251         0.010000   
     55. D(O   4,C  10,C   5,H   0)   -143.8591         0.010000   
     56. D(O  12,C  10,O   4,H  13)   -178.1844         0.037492   
     57. D(C   5,C  10,O   4,H  13)      3.7929         0.037492   
    -----------------------------------------------------------------

Number of atoms                         .... 14
Number of degrees of freedom            .... 57


         *************************************************************
         *                GEOMETRY OPTIMIZATION CYCLE   1            *
         *************************************************************
------------------------------------------------------------------------------
                         ORCA GEOMETRY RELAXATION STEP
------------------------------------------------------------------------------

Reading the OPT-File                    .... done

---------------------------------------------
FINAL SINGLE POINT ENERGY       -24.279084989030
---------------------------------------------

Getting information on internals        .... done
Copying old internal coords+grads       .... done
Making the new internal coordinates     .... (2022 redundants) done
Validating the new internal coordinates .... (2022 redundants) done
Calculating the B-matrix                .... done
Calculating the G,G- and P matrices     .... done
Transforming gradient to internals      .... done
Projecting the internal gradient        .... done
Number of atoms                         ....  14
Number of internal coordinates          ....  57
Current Energy                          ....   -24.279084989 Eh
Current gradient norm                   ....     0.000181232 Eh/bohr
Maximum allowed component of the step   ....  0.300
Current trust radius                    ....  0.300
Evaluating the initial hessian          ....  (Almloef) done
Projecting the Hessian                  .... done
Forming the augmented Hessian           .... done
Diagonalizing the augmented Hessian     .... done
Last element of RFO vector              ....  0.999998765
Lowest eigenvalues of augmented Hessian:
 -0.000000069  0.010000000  0.010568079  0.010779658  0.017101942
Length of the computed step             ....  0.001571331
The final length of the internal step   ....  0.001571331
Converting the step to Cartesian space:
 Initial RMS(Int)=    0.0002081279
Transforming coordinates:
 Iter   0:  RMS(Cart)=    0.0003344833 RMS(Int)=    0.0002081486
done
Storing new coordinates                 .... done

                                .--------------------.
          ----------------------|Geometry convergence|-------------------------
          Item                value                   Tolerance       Converged
          ---------------------------------------------------------------------
          RMS gradient        0.0000126902            0.0001000000      YES
          MAX gradient        0.0000304081            0.0003000000      YES
          RMS step            0.0002081279            0.0020000000      YES
          MAX step            0.0007060033            0.0040000000      YES
          -------------------------------------------------------------------------
          ........................................................
          Max(Bonds)      0.0004      Max(Angles)    0.01
          Max(Dihed)        0.04      Max(Improp)    0.00
          ---------------------------------------------------------------------

			-----------------------
			     GOAT ITER   1       
			-----------------------

	Minimum found after 1 optimization iterations! E = -24.279085

	No previous minimum found yet, adding first to c.goat.0.4.ensembleen.tmp.

	Number of GOAT steps per global cycle: 20

	Current MaxEn         : 42.00 kcal/mol
	Current Temperature   : 2903.97 K
	Current UphillGradComp: 1.00

Geometry step timings:
Preparation and reading OPT file:      0.000 s ( 2.681 %)
Internal coordinates            :      0.000 s ( 2.518 %)
B/P matrices and projection     :      0.000 s (35.337 %)
Hessian update/contruction      :      0.000 s (16.978 %)
Making the step                 :      0.000 s (19.984 %)
Converting the step to Cartesian:      0.000 s ( 3.493 %)
Storing new data                :      0.000 s ( 1.381 %)
Checking convergence            :      0.000 s ( 1.462 %)
GOAT stuff                      :      0.000 s (13.241 %)
Final printing                  :      0.000 s ( 2.762 %)
Total time                      :      0.001 s

Time for energy+gradient        :      0.039 s
Time for complete geometry iter :      0.040 s

         *************************************************************
         *                GEOMETRY OPTIMIZATION CYCLE   2            *
         *************************************************************
---------------------------------
CARTESIAN COORDINATES (ANGSTROEM)
---------------------------------
  H    -1.542641    0.446857   -0.847518
  C    -2.736092    2.119115   -0.215502
  H    -2.739741    2.537550   -1.220635
  H    -4.440664    1.368700    1.280678
  O     0.276992    2.488439    0.874904
  C    -1.519405    1.206489   -0.052904
  H    -2.365762    0.305064    1.576112
  S    -4.322710    1.220218   -0.039080
  N    -1.454870    0.656685    1.296374
  H    -0.809891   -0.126763    1.326589
  C    -0.282751    2.105101   -0.264887
  H    -2.723539    2.925621    0.515365
  O     0.100081    2.444959   -1.345825
  H    -0.205743    2.048500    1.610803

----------------------------
CARTESIAN COORDINATES (A.U.)
----------------------------
  NO LB    ZA    FRAG    MASS        X           Y           Z
   0 H   1.0000    1     1.008   -2.915169    0.844438   -1.601577
   1 C   6.0000    1    12.011   -5.170464    4.004547   -0.407241
   2 H   1.0000    1     1.008   -5.177361    4.795275   -2.306665
   3 H   1.0000    1     1.008   -8.391638    2.586468    2.420131
   4 O   8.0000    1    15.999    0.523439    4.702469    1.653330
   5 C   6.0000    1    12.011   -2.871259    2.279934   -0.099974
   6 H   1.0000    1     1.008   -4.470642    0.576488    2.978420
   7 S  16.0000    1    32.060   -8.168738    2.305877   -0.073850
   8 N   7.0000    1    14.007   -2.749306    1.240954    2.449791
   9 H   1.0000    1     1.008   -1.530472   -0.239547    2.506889
  10 C   6.0000    1    12.011   -0.534321    3.978064   -0.500564
  11 H   1.0000    1     1.008   -5.146743    5.528623    0.973899
  12 O   8.0000    1    15.999    0.189125    4.620302   -2.543241
  13 H   1.0000    1     1.008   -0.388797    3.871103    3.043977

------------------------------------------------------------------------------
                         ORCA GEOMETRY RELAXATION STEP
------------------------------------------------------------------------------

Reading the OPT-File                    .... done

---------------------------------------------
FINAL SINGLE POINT ENERGY       -24.279085037950
---------------------------------------------

Getting information on internals        .... done
Copying old internal coords+grads       .... done
Making the new internal coordinates     .... (2022 redundants) done
Validating the new internal coordinates .... (2022 redundants) done
Calculating the B-matrix                .... done
Calculating the G,G- and P matrices     .... done
Transforming gradient to internals      .... done
Projecting the internal gradient        .... done
Number of atoms                         ....  14
Number of internal coordinates          ....  57
Current Energy                          ....   -24.279085038 Eh
Current gradient norm                   ....     0.000109139 Eh/bohr
Maximum allowed component of the step   ....  0.300
Current trust radius                    ....  0.300
Updating the Hessian (BFGS)             .... done
Making initial random step              .... (random uniform) done
Converting the step to Cartesian space:
 Initial RMS(Int)=    0.0430729398
Transforming coordinates:
 Iter   0:  RMS(Cart)=    0.0511527869 RMS(Int)=    0.8257547429
 Iter   5:  RMS(Cart)=    0.0000000218 RMS(Int)=    0.0000000182
Imposing constraints:
 Iter   0:  RMS(Cart)=    0.0034794044 RMS(Int)=    0.0002107448
 Iter   5:  RMS(Cart)=    0.0000000522 RMS(Int)=    0.0000000034
CONVERGED
done
Storing new coordinates                 .... done
Current trust radius                    ....     0.3000
Energy difference                       ....     0.0000 kcal/mol
Maximum difference                      ....     0.4200 kcal/mol
New trust radius                        ....     0.4500

                                .--------------------.
          ----------------------|Geometry convergence|-------------------------
          Item                value                   Tolerance       Converged
          ---------------------------------------------------------------------
          Energy change      -0.0000000489            0.0000050000      YES
          RMS gradient        0.0000079630            0.0001000000      YES
          MAX gradient        0.0000246377            0.0003000000      YES
          RMS step            0.0430729398            0.0020000000      NO
          MAX step            0.0836945319            0.0040000000      NO
          -------------------------------------------------------------------------
          ........................................................
          Max(Bonds)      0.0381      Max(Angles)    4.74
          Max(Dihed)        4.80      Max(Improp)    0.00
          ---------------------------------------------------------------------

Geometry step timings:
Preparation and reading OPT file:      0.000 s ( 2.724 %)
Internal coordinates            :      0.000 s ( 2.259 %)
B/P matrices and projection     :      0.001 s (47.442 %)
Hessian update/contruction      :      0.000 s (21.395 %)
Making the step                 :      0.000 s ( 8.904 %)
Converting the step to Cartesian:      0.000 s ( 9.635 %)
Storing new data                :      0.000 s ( 1.794 %)
Checking convergence            :      0.000 s ( 2.924 %)
GOAT stuff                      :      0.000 s ( 0.066 %)
Final printing                  :      0.000 s ( 2.857 %)
Total time                      :      0.002 s

Time for energy+gradient        :      0.036 s
Time for complete geometry iter :      0.039 s

         *************************************************************
         *                GEOMETRY OPTIMIZATION CYCLE   3            *
         *************************************************************
---------------------------------
CARTESIAN COORDINATES (ANGSTROEM)
---------------------------------
  H    -1.573401    0.398620   -0.805597
  C    -2.694988    2.138309   -0.215904
  H    -2.743897    2.519809   -1.234460
  H    -4.410529    1.386208    1.284570
  O     0.223194    2.533483    0.880377
  C    -1.514097    1.182716   -0.037047
  H    -2.363808    0.287262    1.560560
  S    -4.281534    1.240287   -0.034441
  N    -1.441635    0.632648    1.311721
  H    -0.809688   -0.161755    1.295352
  C    -0.302818    2.112188   -0.262079
  H    -2.679606    2.957504    0.500658
  O     0.083270    2.477656   -1.333461
  H    -0.257197    2.041599    1.584225

----------------------------
CARTESIAN COORDINATES (A.U.)
----------------------------
  NO LB    ZA    FRAG    MASS        X           Y           Z
   0 H   1.0000    1     1.008   -2.973297    0.753283   -1.522358
   1 C   6.0000    1    12.011   -5.092790    4.040818   -0.407999
   2 H   1.0000    1     1.008   -5.185214    4.761750   -2.332791
   3 H   1.0000    1     1.008   -8.334692    2.619554    2.427485
   4 O   8.0000    1    15.999    0.421776    4.787589    1.663672
   5 C   6.0000    1    12.011   -2.861229    2.235010   -0.070009
   6 H   1.0000    1     1.008   -4.466949    0.542847    2.949031
   7 S  16.0000    1    32.060   -8.090927    2.343803   -0.065083
   8 N   7.0000    1    14.007   -2.724295    1.195532    2.478793
   9 H   1.0000    1     1.008   -1.530088   -0.305672    2.447860
  10 C   6.0000    1    12.011   -0.572243    3.991456   -0.495257
  11 H   1.0000    1     1.008   -5.063722    5.588872    0.946106
  12 O   8.0000    1    15.999    0.157357    4.682092   -2.519876
  13 H   1.0000    1     1.008   -0.486033    3.858063    2.993750

------------------------------------------------------------------------------
                         ORCA GEOMETRY RELAXATION STEP
------------------------------------------------------------------------------

Reading the OPT-File                    .... done

---------------------------------------------
FINAL SINGLE POINT ENERGY       -24.277396509390
---------------------------------------------

Getting information on internals        .... done
Copying old internal coords+grads       .... done
Making the new internal coordinates     .... (2022 redundants) done
Validating the new internal coordinates .... (2022 redundants) done
Calculating the B-matrix                .... done
Calculating the G,G- and P matrices     .... done
Transforming gradient to internals      .... done
Projecting the internal gradient        .... done
Number of atoms                         ....  14
Number of internal coordinates          ....  57
Current Energy                          ....   -24.277396509 Eh
Current gradient norm                   ....     0.019763682 Eh/bohr
Maximum allowed component of the step   ....  0.300
Current trust radius                    ....  0.450
Updating the Hessian (BFGS)             .... done
Making uphill step                      .... done
Uphill step size                        .... 0.449180
Converting the step to Cartesian space:
 Initial RMS(Int)=    0.0594953536
Transforming coordinates:
 Iter   0:  RMS(Cart)=    0.0888296665 RMS(Int)=    0.0588503625
 Iter   5:  RMS(Cart)=    0.0000015416 RMS(Int)=    0.0000014669
Imposing constraints:
 Iter   0:  RMS(Cart)=    0.0003945878 RMS(Int)=    0.0000319202
CONVERGED
done
Storing new coordinates                 .... done
Current trust radius                    ....     0.4500
Energy difference                       ....     1.0596 kcal/mol
Maximum difference                      ....     0.4200 kcal/mol
New trust radius                        ....     0.3000

                                .--------------------.
          ----------------------|Geometry convergence|-------------------------
          Item                value                   Tolerance       Converged
          ---------------------------------------------------------------------
          Energy change       0.0016885286            0.0000050000      NO
          RMS gradient        0.0028825644            0.0001000000      NO
          MAX gradient        0.0096650803            0.0003000000      NO
          RMS step            0.0594953536            0.0020000000      NO
          MAX step            0.2264001440            0.0040000000      NO
          -------------------------------------------------------------------------
          ........................................................
          Max(Bonds)      0.1198      Max(Angles)    4.22
          Max(Dihed)        8.15      Max(Improp)    0.00
          ---------------------------------------------------------------------

Geometry step timings:
Preparation and reading OPT file:      0.000 s ( 1.871 %)
Internal coordinates            :      0.000 s ( 1.583 %)
B/P matrices and projection     :      0.001 s (32.182 %)
Hessian update/contruction      :      0.000 s (12.950 %)
Making the step                 :      0.001 s (37.458 %)
Converting the step to Cartesian:      0.000 s ( 7.626 %)
Storing new data                :      0.000 s ( 1.295 %)
Checking convergence            :      0.000 s ( 2.350 %)
GOAT stuff                      :      0.000 s ( 0.048 %)
Final printing                  :      0.000 s ( 2.542 %)
Total time                      :      0.002 s

Time for energy+gradient        :      0.037 s
Time for complete geometry iter :      0.041 s

         *************************************************************
         *                GEOMETRY OPTIMIZATION CYCLE   4            *
         *************************************************************
---------------------------------
CARTESIAN COORDINATES (ANGSTROEM)
---------------------------------
  H    -1.609396    0.362824   -0.812532
  C    -2.651181    2.152780   -0.236727
  H    -2.776929    2.468397   -1.271119
  H    -4.286580    1.381474    1.363322
  O     0.094120    2.577586    0.925416
  C    -1.499317    1.161206   -0.064561
  H    -2.377244    0.302604    1.509387
  S    -4.226694    1.258734    0.037023
  N    -1.444842    0.645903    1.298705
  H    -0.836620   -0.166603    1.274176
  C    -0.289930    2.101511   -0.251547
  H    -2.610737    2.993904    0.452948
  O     0.116626    2.512519   -1.298579
  H    -0.368010    1.993697    1.568561

----------------------------
CARTESIAN COORDINATES (A.U.)
----------------------------
  NO LB    ZA    FRAG    MASS        X           Y           Z
   0 H   1.0000    1     1.008   -3.041318    0.685637   -1.535462
   1 C   6.0000    1    12.011   -5.010006    4.068164   -0.447350
   2 H   1.0000    1     1.008   -5.247636    4.664594   -2.402066
   3 H   1.0000    1     1.008   -8.100463    2.610607    2.576305
   4 O   8.0000    1    15.999    0.177861    4.870932    1.748783
   5 C   6.0000    1    12.011   -2.833298    2.194362   -0.122002
   6 H   1.0000    1     1.008   -4.492340    0.571839    2.852328
   7 S  16.0000    1    32.060   -7.987294    2.378662    0.069963
   8 N   7.0000    1    14.007   -2.730355    1.220579    2.454197
   9 H   1.0000    1     1.008   -1.580982   -0.314834    2.407844
  10 C   6.0000    1    12.011   -0.547889    3.971281   -0.475355
  11 H   1.0000    1     1.008   -4.933579    5.657659    0.855947
  12 O   8.0000    1    15.999    0.220392    4.747973   -2.453958
  13 H   1.0000    1     1.008   -0.695439    3.767541    2.964151

------------------------------------------------------------------------------
                         ORCA GEOMETRY RELAXATION STEP
------------------------------------------------------------------------------

Reading the OPT-File                    .... done

---------------------------------------------
FINAL SINGLE POINT ENERGY       -24.272636906300
---------------------------------------------

Getting information on internals        .... done
Copying old internal coords+grads       .... done
Making the new internal coordinates     .... (2022 redundants) done
Validating the new internal coordinates .... (2022 redundants) done
Calculating the B-matrix                .... done
Calculating the G,G- and P matrices     .... done
Transforming gradient to internals      .... done
Projecting the internal gradient        .... done
Number of atoms                         ....  14
Number of internal coordinates          ....  57
Current Energy                          ....   -24.272636906 Eh
Current gradient norm                   ....     0.034665312 Eh/bohr
Maximum allowed component of the step   ....  0.300
Current trust radius                    ....  0.300
Updating the Hessian (BFGS)             .... done
Making uphill step                      .... done
Uphill step size                        .... 0.298544
Converting the step to Cartesian space:
 Initial RMS(Int)=    0.0395431843
Transforming coordinates:
 Iter   0:  RMS(Cart)=    0.0645696821 RMS(Int)=    0.0391890099
 Iter   5:  RMS(Cart)=    0.0000000431 RMS(Int)=    0.0000000477
Imposing constraints:
 Iter   0:  RMS(Cart)=    0.0003687781 RMS(Int)=    0.0000282193
CONVERGED
done
Storing new coordinates                 .... done
Current trust radius                    ....     0.3000
Energy difference                       ....     2.9867 kcal/mol
Maximum difference                      ....     0.4200 kcal/mol
New trust radius                        ....     0.3000

                                .--------------------.
          ----------------------|Geometry convergence|-------------------------
          Item                value                   Tolerance       Converged
          ---------------------------------------------------------------------
          Energy change       0.0047596031            0.0000050000      NO
          RMS gradient        0.0044256837            0.0001000000      NO
          MAX gradient        0.0155151577            0.0003000000      NO
          RMS step            0.0395431843            0.0020000000      NO
          MAX step            0.1756021883            0.0040000000      NO
          -------------------------------------------------------------------------
          ........................................................
          Max(Bonds)      0.0929      Max(Angles)    1.76
          Max(Dihed)        4.21      Max(Improp)    0.00
          ---------------------------------------------------------------------

Geometry step timings:
Preparation and reading OPT file:      0.000 s ( 1.567 %)
Internal coordinates            :      0.000 s ( 1.469 %)
B/P matrices and projection     :      0.001 s (29.187 %)
Hessian update/contruction      :      0.000 s (12.194 %)
Making the step                 :      0.001 s (37.904 %)
Converting the step to Cartesian:      0.000 s ( 8.668 %)
Storing new data                :      0.000 s ( 1.469 %)
Checking convergence            :      0.000 s ( 2.302 %)
GOAT stuff                      :      0.000 s ( 0.049 %)
Final printing                  :      0.000 s ( 5.142 %)
Total time                      :      0.002 s

Time for energy+gradient        :      0.028 s
Time for complete geometry iter :      0.031 s

         *************************************************************
         *                GEOMETRY OPTIMIZATION CYCLE   5            *
         *************************************************************
---------------------------------
CARTESIAN COORDINATES (ANGSTROEM)
---------------------------------
  H    -1.617046    0.365635   -0.842527
  C    -2.644401    2.154481   -0.252860
  H    -2.810015    2.433972   -1.292017
  H    -4.190749    1.371059    1.433353
  O     0.015810    2.591988    0.956222
  C    -1.490480    1.162783   -0.095850
  H    -2.392017    0.315640    1.464742
  S    -4.204958    1.263698    0.104446
  N    -1.456940    0.663267    1.273953
  H    -0.856073   -0.155061    1.274716
  C    -0.272364    2.099191   -0.241063
  H    -2.586698    3.008803    0.419137
  O     0.182342    2.502787   -1.271035
  H    -0.443145    1.968293    1.563258

----------------------------
CARTESIAN COORDINATES (A.U.)
----------------------------
  NO LB    ZA    FRAG    MASS        X           Y           Z
   0 H   1.0000    1     1.008   -3.055775    0.690949   -1.592146
   1 C   6.0000    1    12.011   -4.997193    4.071378   -0.477836
   2 H   1.0000    1     1.008   -5.310159    4.599541   -2.441559
   3 H   1.0000    1     1.008   -7.919368    2.590926    2.708644
   4 O   8.0000    1    15.999    0.029876    4.898147    1.806998
   5 C   6.0000    1    12.011   -2.816598    2.197342   -0.181129
   6 H   1.0000    1     1.008   -4.520258    0.596473    2.767961
   7 S  16.0000    1    32.060   -7.946218    2.388042    0.197374
   8 N   7.0000    1    14.007   -2.753218    1.253392    2.407422
   9 H   1.0000    1     1.008   -1.617744   -0.293022    2.408864
  10 C   6.0000    1    12.011   -0.514692    3.966896   -0.455543
  11 H   1.0000    1     1.008   -4.888151    5.685814    0.792055
  12 O   8.0000    1    15.999    0.344576    4.729583   -2.401909
  13 H   1.0000    1     1.008   -0.837423    3.719534    2.954129

------------------------------------------------------------------------------
                         ORCA GEOMETRY RELAXATION STEP
------------------------------------------------------------------------------

Reading the OPT-File                    .... done

---------------------------------------------
FINAL SINGLE POINT ENERGY       -24.269796755930
---------------------------------------------

Getting information on internals        .... done
Copying old internal coords+grads       .... done
Making the new internal coordinates     .... (2022 redundants) done
Validating the new internal coordinates .... (2022 redundants) done
Calculating the B-matrix                .... done
Calculating the G,G- and P matrices     .... done
Transforming gradient to internals      .... done
Projecting the internal gradient        .... done
Number of atoms                         ....  14
Number of internal coordinates          ....  57
Current Energy                          ....   -24.269796756 Eh
Current gradient norm                   ....     0.041112849 Eh/bohr
Maximum allowed component of the step   ....  0.300
Current trust radius                    ....  0.300
Updating the Hessian (BFGS)             .... done
Making uphill step                      .... done
Uphill step size                        .... 0.297620
Converting the step to Cartesian space:
 Initial RMS(Int)=    0.0394207574
Transforming coordinates:
 Iter   0:  RMS(Cart)=    0.0677778040 RMS(Int)=    0.0389871207
 Iter   5:  RMS(Cart)=    0.0000000280 RMS(Int)=    0.0000000241
Imposing constraints:
 Iter   0:  RMS(Cart)=    0.0003564827 RMS(Int)=    0.0000283371
CONVERGED
done
Storing new coordinates                 .... done
Current trust radius                    ....     0.3000
Energy difference                       ....     1.7822 kcal/mol
Maximum difference                      ....     0.4200 kcal/mol
New trust radius                        ....     0.3000

                                .--------------------.
          ----------------------|Geometry convergence|-------------------------
          Item                value                   Tolerance       Converged
          ---------------------------------------------------------------------
          Energy change       0.0028401504            0.0000050000      NO
          RMS gradient        0.0047781358            0.0001000000      NO
          MAX gradient        0.0173843781            0.0003000000      NO
          RMS step            0.0394207574            0.0020000000      NO
          MAX step            0.1807254464            0.0040000000      NO
          -------------------------------------------------------------------------
          ........................................................
          Max(Bonds)      0.0956      Max(Angles)    1.50
          Max(Dihed)        4.10      Max(Improp)    0.00
          ---------------------------------------------------------------------

Geometry step timings:
Preparation and reading OPT file:      0.000 s ( 2.123 %)
Internal coordinates            :      0.000 s ( 1.719 %)
B/P matrices and projection     :      0.000 s (32.255 %)
Hessian update/contruction      :      0.000 s (14.055 %)
Making the step                 :      0.000 s (35.187 %)
Converting the step to Cartesian:      0.000 s ( 6.977 %)
Storing new data                :      0.000 s ( 1.618 %)
Checking convergence            :      0.000 s ( 2.224 %)
GOAT stuff                      :      0.000 s ( 0.101 %)
Final printing                  :      0.000 s ( 3.640 %)
Total time                      :      0.001 s

Time for energy+gradient        :      0.033 s
Time for complete geometry iter :      0.035 s

         *************************************************************
         *                GEOMETRY OPTIMIZATION CYCLE   6            *
         *************************************************************
---------------------------------
CARTESIAN COORDINATES (ANGSTROEM)
---------------------------------
  H    -1.614687    0.378533   -0.877008
  C    -2.646060    2.152560   -0.267092
  H    -2.845502    2.397235   -1.309084
  H    -4.092279    1.368841    1.507277
  O    -0.054906    2.609440    0.981554
  C    -1.482495    1.169897   -0.125169
  H    -2.410167    0.317163    1.410417
  S    -4.187069    1.268867    0.181101
  N    -1.472618    0.671222    1.245314
  H    -0.873810   -0.148090    1.274599
  C    -0.255861    2.100902   -0.226912
  H    -2.572013    3.022905    0.382365
  O     0.262619    2.477656   -1.236727
  H    -0.521887    1.959406    1.553839

----------------------------
CARTESIAN COORDINATES (A.U.)
----------------------------
  NO LB    ZA    FRAG    MASS        X           Y           Z
   0 H   1.0000    1     1.008   -3.051315    0.715324   -1.657305
   1 C   6.0000    1    12.011   -5.000329    4.067749   -0.504730
   2 H   1.0000    1     1.008   -5.377220    4.530118   -2.473811
   3 H   1.0000    1     1.008   -7.733287    2.586734    2.848340
   4 O   8.0000    1    15.999   -0.103757    4.931127    1.854868
   5 C   6.0000    1    12.011   -2.801510    2.210785   -0.236536
   6 H   1.0000    1     1.008   -4.554555    0.599351    2.665302
   7 S  16.0000    1    32.060   -7.912414    2.397811    0.342231
   8 N   7.0000    1    14.007   -2.782845    1.268426    2.353303
   9 H   1.0000    1     1.008   -1.651262   -0.279850    2.408643
  10 C   6.0000    1    12.011   -0.483507    3.970129   -0.428802
  11 H   1.0000    1     1.008   -4.860399    5.712462    0.722566
  12 O   8.0000    1    15.999    0.496278    4.682091   -2.337075
  13 H   1.0000    1     1.008   -0.986224    3.702740    2.936331

------------------------------------------------------------------------------
                         ORCA GEOMETRY RELAXATION STEP
------------------------------------------------------------------------------

Reading the OPT-File                    .... done

---------------------------------------------
FINAL SINGLE POINT ENERGY       -24.266957659440
---------------------------------------------

Getting information on internals        .... done
Copying old internal coords+grads       .... done
Making the new internal coordinates     .... (2022 redundants) done
Validating the new internal coordinates .... (2022 redundants) done
Calculating the B-matrix                .... done
Calculating the G,G- and P matrices     .... done
Transforming gradient to internals      .... done
Projecting the internal gradient        .... done
Number of atoms                         ....  14
Number of internal coordinates          ....  57
Current Energy                          ....   -24.266957659 Eh
Current gradient norm                   ....     0.046488179 Eh/bohr
Maximum allowed component of the step   ....  0.300
Current trust radius                    ....  0.300
Updating the Hessian (BFGS)             .... done
Making uphill step                      .... done
Uphill step size                        .... 0.296805
Converting the step to Cartesian space:
 Initial RMS(Int)=    0.0393127840
Transforming coordinates:
 Iter   0:  RMS(Cart)=    0.0692090271 RMS(Int)=    0.0388001301
 Iter   5:  RMS(Cart)=    0.0000000342 RMS(Int)=    0.0000000266
Imposing constraints:
 Iter   0:  RMS(Cart)=    0.0004328969 RMS(Int)=    0.0000347911
CONVERGED
done
Storing new coordinates                 .... done
Current trust radius                    ....     0.3000
Energy difference                       ....     1.7816 kcal/mol
Maximum difference                      ....     0.4200 kcal/mol
New trust radius                        ....     0.3000

                                .--------------------.
          ----------------------|Geometry convergence|-------------------------
          Item                value                   Tolerance       Converged
          ---------------------------------------------------------------------
          Energy change       0.0028390965            0.0000050000      NO
          RMS gradient        0.0052688364            0.0001000000      NO
          MAX gradient        0.0188211760            0.0003000000      NO
          RMS step            0.0393127840            0.0020000000      NO
          MAX step            0.1742254130            0.0040000000      NO
          -------------------------------------------------------------------------
          ........................................................
          Max(Bonds)      0.0922      Max(Angles)    1.11
          Max(Dihed)        4.80      Max(Improp)    0.00
          ---------------------------------------------------------------------

Geometry step timings:
Preparation and reading OPT file:      0.000 s ( 2.195 %)
Internal coordinates            :      0.000 s ( 1.317 %)
B/P matrices and projection     :      0.000 s (27.041 %)
Hessian update/contruction      :      0.000 s (13.696 %)
Making the step                 :      0.000 s (36.523 %)
Converting the step to Cartesian:      0.000 s ( 8.253 %)
Storing new data                :      0.000 s ( 1.756 %)
Checking convergence            :      0.000 s ( 3.161 %)
GOAT stuff                      :      0.000 s ( 0.000 %)
Final printing                  :      0.000 s ( 6.058 %)
Total time                      :      0.001 s

Time for energy+gradient        :      0.035 s
Time for complete geometry iter :      0.037 s

         *************************************************************
         *                GEOMETRY OPTIMIZATION CYCLE   7            *
         *************************************************************
---------------------------------
CARTESIAN COORDINATES (ANGSTROEM)
---------------------------------
  H    -1.605755    0.396332   -0.912077
  C    -2.652284    2.147942   -0.279889
  H    -2.883846    2.355266   -1.323339
  H    -3.996274    1.381082    1.580769
  O    -0.119650    2.630092    1.003076
  C    -1.476096    1.178678   -0.150424
  H    -2.428205    0.307739    1.348884
  S    -4.169262    1.275800    0.262926
  N    -1.488330    0.669125    1.216034
  H    -0.886772   -0.147060    1.267719
  C    -0.243302    2.105266   -0.208804
  H    -2.563347    3.038872    0.339070
  O     0.345132    2.445624   -1.192873
  H    -0.598743    1.961777    1.543402

----------------------------
CARTESIAN COORDINATES (A.U.)
----------------------------
  NO LB    ZA    FRAG    MASS        X           Y           Z
   0 H   1.0000    1     1.008   -3.034438    0.748959   -1.723575
   1 C   6.0000    1    12.011   -5.012091    4.059021   -0.528914
   2 H   1.0000    1     1.008   -5.449680    4.450809   -2.500748
   3 H   1.0000    1     1.008   -7.551863    2.609866    2.987221
   4 O   8.0000    1    15.999   -0.226106    4.970153    1.895539
   5 C   6.0000    1    12.011   -2.789418    2.227379   -0.284259
   6 H   1.0000    1     1.008   -4.588643    0.581543    2.549021
   7 S  16.0000    1    32.060   -7.878763    2.410913    0.496857
   8 N   7.0000    1    14.007   -2.812536    1.264462    2.297970
   9 H   1.0000    1     1.008   -1.675756   -0.277904    2.395642
  10 C   6.0000    1    12.011   -0.459775    3.978376   -0.394582
  11 H   1.0000    1     1.008   -4.844023    5.742636    0.640749
  12 O   8.0000    1    15.999    0.652205    4.621561   -2.254203
  13 H   1.0000    1     1.008   -1.131460    3.707221    2.916606

------------------------------------------------------------------------------
                         ORCA GEOMETRY RELAXATION STEP
------------------------------------------------------------------------------

Reading the OPT-File                    .... done

---------------------------------------------
FINAL SINGLE POINT ENERGY       -24.264084927170
---------------------------------------------

Getting information on internals        .... done
Copying old internal coords+grads       .... done
Making the new internal coordinates     .... (2022 redundants) done
Validating the new internal coordinates .... (2022 redundants) done
Calculating the B-matrix                .... done
Calculating the G,G- and P matrices     .... done
Transforming gradient to internals      .... done
Projecting the internal gradient        .... done
Number of atoms                         ....  14
Number of internal coordinates          ....  57
Current Energy                          ....   -24.264084927 Eh
Current gradient norm                   ....     0.050296258 Eh/bohr
Maximum allowed component of the step   ....  0.300
Current trust radius                    ....  0.300
Updating the Hessian (BFGS)             .... done
Making uphill step                      .... done
Uphill step size                        .... 0.296131
Converting the step to Cartesian space:
 Initial RMS(Int)=    0.0392235707
Transforming coordinates:
 Iter   0:  RMS(Cart)=    0.0702812976 RMS(Int)=    0.0386743406
 Iter   5:  RMS(Cart)=    0.0000000385 RMS(Int)=    0.0000000316
Imposing constraints:
 Iter   0:  RMS(Cart)=    0.0005193902 RMS(Int)=    0.0000406810
CONVERGED
done
Storing new coordinates                 .... done
Current trust radius                    ....     0.3000
Energy difference                       ....     1.8027 kcal/mol
Maximum difference                      ....     0.4200 kcal/mol
New trust radius                        ....     0.3000

                                .--------------------.
          ----------------------|Geometry convergence|-------------------------
          Item                value                   Tolerance       Converged
          ---------------------------------------------------------------------
          Energy change       0.0028727323            0.0000050000      NO
          RMS gradient        0.0057884587            0.0001000000      NO
          MAX gradient        0.0223049193            0.0003000000      NO
          RMS step            0.0392235707            0.0020000000      NO
          MAX step            0.1591094998            0.0040000000      NO
          -------------------------------------------------------------------------
          ........................................................
          Max(Bonds)      0.0842      Max(Angles)    1.13
          Max(Dihed)        5.02      Max(Improp)    0.00
          ---------------------------------------------------------------------

Geometry step timings:
Preparation and reading OPT file:      0.000 s ( 1.998 %)
Internal coordinates            :      0.000 s ( 1.618 %)
B/P matrices and projection     :      0.000 s (33.016 %)
Hessian update/contruction      :      0.000 s (13.225 %)
Making the step                 :      0.000 s (37.108 %)
Converting the step to Cartesian:      0.000 s ( 6.755 %)
Storing new data                :      0.000 s ( 1.427 %)
Checking convergence            :      0.000 s ( 2.188 %)
GOAT stuff                      :      0.000 s ( 0.095 %)
Final printing                  :      0.000 s ( 2.379 %)
Total time                      :      0.001 s

Time for energy+gradient        :      0.025 s
Time for complete geometry iter :      0.026 s

         *************************************************************
         *                GEOMETRY OPTIMIZATION CYCLE   8            *
         *************************************************************
---------------------------------
CARTESIAN COORDINATES (ANGSTROEM)
---------------------------------
  H    -1.592038    0.417877   -0.948771
  C    -2.662035    2.140399   -0.292063
  H    -2.926219    2.306012   -1.335217
  H    -3.904963    1.410118    1.652408
  O    -0.180038    2.650411    1.023203
  C    -1.471115    1.187905   -0.173253
  H    -2.443924    0.291521    1.283286
  S    -4.150412    1.284993    0.347870
  N    -1.502440    0.659947    1.185893
  H    -0.893874   -0.149838    1.253692
  C    -0.234314    2.110877   -0.187310
  H    -2.560598    3.056127    0.287532
  O     0.424425    2.412163   -1.139035
  H    -0.669190    1.968023    1.536238

----------------------------
CARTESIAN COORDINATES (A.U.)
----------------------------
  NO LB    ZA    FRAG    MASS        X           Y           Z
   0 H   1.0000    1     1.008   -3.008516    0.789673   -1.792917
   1 C   6.0000    1    12.011   -5.030517    4.044768   -0.551919
   2 H   1.0000    1     1.008   -5.529753    4.357732   -2.523194
   3 H   1.0000    1     1.008   -7.379310    2.664737    3.122599
   4 O   8.0000    1    15.999   -0.340222    5.008551    1.933574
   5 C   6.0000    1    12.011   -2.780005    2.244815   -0.327402
   6 H   1.0000    1     1.008   -4.618347    0.550895    2.425059
   7 S  16.0000    1    32.060   -7.843141    2.428284    0.657379
   8 N   7.0000    1    14.007   -2.839201    1.247119    2.241013
   9 H   1.0000    1     1.008   -1.689178   -0.283153    2.369134
  10 C   6.0000    1    12.011   -0.442789    3.988980   -0.353964
  11 H   1.0000    1     1.008   -4.838829    5.775243    0.543357
  12 O   8.0000    1    15.999    0.802047    4.558327   -2.152464
  13 H   1.0000    1     1.008   -1.264586    3.719025    2.903068

------------------------------------------------------------------------------
                         ORCA GEOMETRY RELAXATION STEP
------------------------------------------------------------------------------

Reading the OPT-File                    .... done

---------------------------------------------
FINAL SINGLE POINT ENERGY       -24.261223071690
---------------------------------------------

Getting information on internals        .... done
Copying old internal coords+grads       .... done
Making the new internal coordinates     .... (2022 redundants) done
Validating the new internal coordinates .... (2022 redundants) done
Calculating the B-matrix                .... done
Calculating the G,G- and P matrices     .... done
Transforming gradient to internals      .... done
Projecting the internal gradient        .... done
Number of atoms                         ....  14
Number of internal coordinates          ....  57
Current Energy                          ....   -24.261223072 Eh
Current gradient norm                   ....     0.052871683 Eh/bohr
Maximum allowed component of the step   ....  0.300
Current trust radius                    ....  0.300
Updating the Hessian (BFGS)             .... done
Making uphill step                      .... done
Uphill step size                        .... 0.295642
Converting the step to Cartesian space:
 Initial RMS(Int)=    0.0391586880
Transforming coordinates:
 Iter   0:  RMS(Cart)=    0.0713339354 RMS(Int)=    0.0386376267
 Iter   5:  RMS(Cart)=    0.0000000392 RMS(Int)=    0.0000000329
Imposing constraints:
 Iter   0:  RMS(Cart)=    0.0005806165 RMS(Int)=    0.0000442279
CONVERGED
done
Storing new coordinates                 .... done
Current trust radius                    ....     0.3000
Energy difference                       ....     1.7958 kcal/mol
Maximum difference                      ....     0.4200 kcal/mol
New trust radius                        ....     0.3000

                                .--------------------.
          ----------------------|Geometry convergence|-------------------------
          Item                value                   Tolerance       Converged
          ---------------------------------------------------------------------
          Energy change       0.0028618555            0.0000050000      NO
          RMS gradient        0.0062440991            0.0001000000      NO
          MAX gradient        0.0245731447            0.0003000000      NO
          RMS step            0.0391586880            0.0020000000      NO
          MAX step            0.1386954138            0.0040000000      NO
          -------------------------------------------------------------------------
          ........................................................
          Max(Bonds)      0.0734      Max(Angles)    1.12
          Max(Dihed)        5.07      Max(Improp)    0.00
          ---------------------------------------------------------------------

Geometry step timings:
Preparation and reading OPT file:      0.000 s ( 1.715 %)
Internal coordinates            :      0.000 s ( 1.244 %)
B/P matrices and projection     :      0.001 s (34.949 %)
Hessian update/contruction      :      0.000 s (14.880 %)
Making the step                 :      0.001 s (34.177 %)
Converting the step to Cartesian:      0.000 s ( 6.861 %)
Storing new data                :      0.000 s ( 1.372 %)
Checking convergence            :      0.000 s ( 2.144 %)
GOAT stuff                      :      0.000 s ( 0.043 %)
Final printing                  :      0.000 s ( 2.530 %)
Total time                      :      0.002 s

Time for energy+gradient        :      0.027 s
Time for complete geometry iter :      0.031 s

         *************************************************************
         *                GEOMETRY OPTIMIZATION CYCLE   9            *
         *************************************************************
---------------------------------
CARTESIAN COORDINATES (ANGSTROEM)
---------------------------------
  H    -1.574854    0.442738   -0.987059
  C    -2.674102    2.130616   -0.303792
  H    -2.972620    2.250280   -1.343965
  H    -3.816708    1.453507    1.720381
  O    -0.237157    2.668865    1.042686
  C    -1.467276    1.197199   -0.194463
  H    -2.457146    0.271785    1.217491
  S    -4.129219    1.296821    0.433716
  N    -1.514831    0.645583    1.154780
  H    -0.896260   -0.155630    1.233063
  C    -0.228408    2.116980   -0.163435
  H    -2.563115    3.073574    0.228458
  O     0.498305    2.379213   -1.076460
  H    -0.733346    1.975004    1.533074

----------------------------
CARTESIAN COORDINATES (A.U.)
----------------------------
  NO LB    ZA    FRAG    MASS        X           Y           Z
   0 H   1.0000    1     1.008   -2.976043    0.836654   -1.865272
   1 C   6.0000    1    12.011   -5.053321    4.026281   -0.574084
   2 H   1.0000    1     1.008   -5.617437    4.252413   -2.539726
   3 H   1.0000    1     1.008   -7.212532    2.746730    3.251049
   4 O   8.0000    1    15.999   -0.448162    5.043424    1.970392
   5 C   6.0000    1    12.011   -2.772749    2.262379   -0.367483
   6 H   1.0000    1     1.008   -4.643332    0.513599    2.300725
   7 S  16.0000    1    32.060   -7.803093    2.450636    0.819604
   8 N   7.0000    1    14.007   -2.862615    1.219975    2.182218
   9 H   1.0000    1     1.008   -1.693685   -0.294098    2.330151
  10 C   6.0000    1    12.011   -0.431628    4.000512   -0.308848
  11 H   1.0000    1     1.008   -4.843585    5.808213    0.431723
  12 O   8.0000    1    15.999    0.941660    4.496061   -2.034214
  13 H   1.0000    1     1.008   -1.385824    3.732217    2.897089

------------------------------------------------------------------------------
                         ORCA GEOMETRY RELAXATION STEP
------------------------------------------------------------------------------

Reading the OPT-File                    .... done

---------------------------------------------
FINAL SINGLE POINT ENERGY       -24.258407546590
---------------------------------------------

Getting information on internals        .... done
Copying old internal coords+grads       .... done
Making the new internal coordinates     .... (2022 redundants) done
Validating the new internal coordinates .... (2022 redundants) done
Calculating the B-matrix                .... done
Calculating the G,G- and P matrices     .... done
Transforming gradient to internals      .... done
Projecting the internal gradient        .... done
Number of atoms                         ....  14
Number of internal coordinates          ....  57
Current Energy                          ....   -24.258407547 Eh
Current gradient norm                   ....     0.054639606 Eh/bohr
Maximum allowed component of the step   ....  0.300
Current trust radius                    ....  0.300
Updating the Hessian (BFGS)             .... done
Making uphill step                      .... done
Uphill step size                        .... 0.295296
Converting the step to Cartesian space:
 Initial RMS(Int)=    0.0391129265
Transforming coordinates:
 Iter   0:  RMS(Cart)=    0.0717728352 RMS(Int)=    0.0386824436
 Iter   5:  RMS(Cart)=    0.0000000377 RMS(Int)=    0.0000000317
Imposing constraints:
 Iter   0:  RMS(Cart)=    0.0006007934 RMS(Int)=    0.0000453621
CONVERGED
done
Storing new coordinates                 .... done
Current trust radius                    ....     0.3000
Energy difference                       ....     1.7668 kcal/mol
Maximum difference                      ....     0.4200 kcal/mol
New trust radius                        ....     0.3000

                                .--------------------.
          ----------------------|Geometry convergence|-------------------------
          Item                value                   Tolerance       Converged
          ---------------------------------------------------------------------
          Energy change       0.0028155251            0.0000050000      NO
          RMS gradient        0.0066179452            0.0001000000      NO
          MAX gradient        0.0257453302            0.0003000000      NO
          RMS step            0.0391129265            0.0020000000      NO
          MAX step            0.1151300398            0.0040000000      NO
          -------------------------------------------------------------------------
          ........................................................
          Max(Bonds)      0.0609      Max(Angles)    1.11
          Max(Dihed)        5.34      Max(Improp)    0.00
          ---------------------------------------------------------------------

Geometry step timings:
Preparation and reading OPT file:      0.000 s ( 1.934 %)
Internal coordinates            :      0.000 s ( 1.450 %)
B/P matrices and projection     :      0.000 s (31.023 %)
Hessian update/contruction      :      0.000 s (16.197 %)
Making the step                 :      0.000 s (36.342 %)
Converting the step to Cartesian:      0.000 s ( 6.527 %)
Storing new data                :      0.000 s ( 1.289 %)
Checking convergence            :      0.000 s ( 2.095 %)
GOAT stuff                      :      0.000 s ( 0.081 %)
Final printing                  :      0.000 s ( 2.981 %)
Total time                      :      0.001 s

Time for energy+gradient        :      0.028 s
Time for complete geometry iter :      0.030 s

         *************************************************************
         *                GEOMETRY OPTIMIZATION CYCLE  10            *
         *************************************************************
---------------------------------
CARTESIAN COORDINATES (ANGSTROEM)
---------------------------------
  H    -1.555155    0.471000   -1.026648
  C    -2.687631    2.119409   -0.315019
  H    -3.022415    2.190041   -1.348615
  H    -3.729101    1.506259    1.782321
  O    -0.291448    2.685058    1.061563
  C    -1.464415    1.206570   -0.214431
  H    -2.468598    0.251417    1.155567
  S    -4.105364    1.311659    0.518091
  N    -1.525739    0.627656    1.122766
  H    -0.895549   -0.163821    1.207183
  C    -0.224982    2.122933   -0.138013
  H    -2.570044    3.089948    0.163525
  O     0.565696    2.347041   -1.006975
  H    -0.791989    1.981366    1.533159

----------------------------
CARTESIAN COORDINATES (A.U.)
----------------------------
  NO LB    ZA    FRAG    MASS        X           Y           Z
   0 H   1.0000    1     1.008   -2.938818    0.890062   -1.940084
   1 C   6.0000    1    12.011   -5.078887    4.005102   -0.595299
   2 H   1.0000    1     1.008   -5.711537    4.138578   -2.548514
   3 H   1.0000    1     1.008   -7.046979    2.846416    3.368099
   4 O   8.0000    1    15.999   -0.550758    5.074024    2.006063
   5 C   6.0000    1    12.011   -2.767343    2.280087   -0.405217
   6 H   1.0000    1     1.008   -4.664974    0.475109    2.183705
   7 S  16.0000    1    32.060   -7.758014    2.478675    0.979050
   8 N   7.0000    1    14.007   -2.883228    1.186098    2.121721
   9 H   1.0000    1     1.008   -1.692343   -0.309577    2.281245
  10 C   6.0000    1    12.011   -0.425155    4.011761   -0.260807
  11 H   1.0000    1     1.008   -4.856679    5.839156    0.309017
  12 O   8.0000    1    15.999    1.069010    4.435264   -1.902907
  13 H   1.0000    1     1.008   -1.496642    3.744239    2.897251

------------------------------------------------------------------------------
                         ORCA GEOMETRY RELAXATION STEP
------------------------------------------------------------------------------

Reading the OPT-File                    .... done

---------------------------------------------
FINAL SINGLE POINT ENERGY       -24.255645211690
---------------------------------------------

Getting information on internals        .... done
Copying old internal coords+grads       .... done
Making the new internal coordinates     .... (2022 redundants) done
Validating the new internal coordinates .... (2022 redundants) done
Calculating the B-matrix                .... done
Calculating the G,G- and P matrices     .... done
Transforming gradient to internals      .... done
Projecting the internal gradient        .... done
Number of atoms                         ....  14
Number of internal coordinates          ....  57
Current Energy                          ....   -24.255645212 Eh
Current gradient norm                   ....     0.056008323 Eh/bohr
Maximum allowed component of the step   ....  0.300
Current trust radius                    ....  0.300
Updating the Hessian (BFGS)             .... done
Making uphill step                      .... done
Uphill step size                        .... 0.295096
Converting the step to Cartesian space:
 Initial RMS(Int)=    0.0390864235
Transforming coordinates:
 Iter   0:  RMS(Cart)=    0.0712224336 RMS(Int)=    0.0387804401
 Iter   5:  RMS(Cart)=    0.0000000352 RMS(Int)=    0.0000000297
Imposing constraints:
 Iter   0:  RMS(Cart)=    0.0005879105 RMS(Int)=    0.0000447929
CONVERGED
done
Storing new coordinates                 .... done
Current trust radius                    ....     0.3000
Energy difference                       ....     1.7334 kcal/mol
Maximum difference                      ....     0.4200 kcal/mol
New trust radius                        ....     0.3000

                                .--------------------.
          ----------------------|Geometry convergence|-------------------------
          Item                value                   Tolerance       Converged
          ---------------------------------------------------------------------
          Energy change       0.0027623349            0.0000050000      NO
          RMS gradient        0.0069236813            0.0001000000      NO
          MAX gradient        0.0260443631            0.0003000000      NO
          RMS step            0.0390864235            0.0020000000      NO
          MAX step            0.0978847124            0.0040000000      NO
          -------------------------------------------------------------------------
          ........................................................
          Max(Bonds)      0.0475      Max(Angles)    1.09
          Max(Dihed)        5.61      Max(Improp)    0.00
          ---------------------------------------------------------------------

Geometry step timings:
Preparation and reading OPT file:      0.000 s ( 1.729 %)
Internal coordinates            :      0.000 s ( 2.223 %)
B/P matrices and projection     :      0.001 s (31.028 %)
Hessian update/contruction      :      0.000 s (12.945 %)
Making the step                 :      0.001 s (36.759 %)
Converting the step to Cartesian:      0.000 s ( 8.152 %)
Storing new data                :      0.000 s ( 1.433 %)
Checking convergence            :      0.000 s ( 2.372 %)
GOAT stuff                      :      0.000 s ( 0.049 %)
Final printing                  :      0.000 s ( 3.261 %)
Total time                      :      0.002 s

Time for energy+gradient        :      0.025 s
Time for complete geometry iter :      0.028 s

         *************************************************************
         *                GEOMETRY OPTIMIZATION CYCLE  11            *
         *************************************************************
---------------------------------
CARTESIAN COORDINATES (ANGSTROEM)
---------------------------------
  H    -1.533789    0.502694   -1.066978
  C    -2.701932    2.107488   -0.325516
  H    -3.074521    2.127210   -1.348346
  H    -3.641439    1.563223    1.836353
  O    -0.343081    2.699207    1.079611
  C    -1.462397    1.216029   -0.233283
  H    -2.478794    0.232478    1.100628
  S    -4.079549    1.330152    0.598832
  N    -1.534919    0.607450    1.090111
  H    -0.892677   -0.173978    1.177276
  C    -0.223572    2.128323   -0.111688
  H    -2.580304    3.104251    0.094540
  O     0.626037    2.315295   -0.932479
  H    -0.845796    1.986713    1.535413

----------------------------
CARTESIAN COORDINATES (A.U.)
----------------------------
  NO LB    ZA    FRAG    MASS        X           Y           Z
   0 H   1.0000    1     1.008   -2.898440    0.949953   -2.016297
   1 C   6.0000    1    12.011   -5.105912    3.982574   -0.615136
   2 H   1.0000    1     1.008   -5.810002    4.019845   -2.548004
   3 H   1.0000    1     1.008   -6.881322    2.954063    3.470204
   4 O   8.0000    1    15.999   -0.648328    5.100762    2.040169
   5 C   6.0000    1    12.011   -2.763531    2.297963   -0.440841
   6 H   1.0000    1     1.008   -4.684243    0.439320    2.079886
   7 S  16.0000    1    32.060   -7.709231    2.513622    1.131628
   8 N   7.0000    1    14.007   -2.900577    1.147913    2.060011
   9 H   1.0000    1     1.008   -1.686916   -0.328771    2.224729
  10 C   6.0000    1    12.011   -0.422490    4.021948   -0.211060
  11 H   1.0000    1     1.008   -4.876069    5.866184    0.178654
  12 O   8.0000    1    15.999    1.183038    4.375274   -1.762130
  13 H   1.0000    1     1.008   -1.598323    3.754344    2.901511

------------------------------------------------------------------------------
                         ORCA GEOMETRY RELAXATION STEP
------------------------------------------------------------------------------

Reading the OPT-File                    .... done

---------------------------------------------
FINAL SINGLE POINT ENERGY       -24.252951314550
---------------------------------------------

Getting information on internals        .... done
Copying old internal coords+grads       .... done
Making the new internal coordinates     .... (2022 redundants) done
Validating the new internal coordinates .... (2022 redundants) done
Calculating the B-matrix                .... done
Calculating the G,G- and P matrices     .... done
Transforming gradient to internals      .... done
Projecting the internal gradient        .... done
Number of atoms                         ....  14
Number of internal coordinates          ....  57
Current Energy                          ....   -24.252951315 Eh
Current gradient norm                   ....     0.057269005 Eh/bohr
Maximum allowed component of the step   ....  0.300
Current trust radius                    ....  0.300
Updating the Hessian (BFGS)             .... done
Making uphill step                      .... done
Uphill step size                        .... 0.295061
Converting the step to Cartesian space:
 Initial RMS(Int)=    0.0390818029
Transforming coordinates:
 Iter   0:  RMS(Cart)=    0.0697108639 RMS(Int)=    0.0388994502
 Iter   5:  RMS(Cart)=    0.0000000318 RMS(Int)=    0.0000000270
Imposing constraints:
 Iter   0:  RMS(Cart)=    0.0005600098 RMS(Int)=    0.0000431453
CONVERGED
done
Storing new coordinates                 .... done
Current trust radius                    ....     0.3000
Energy difference                       ....     1.6904 kcal/mol
Maximum difference                      ....     0.4200 kcal/mol
New trust radius                        ....     0.3000

                                .--------------------.
          ----------------------|Geometry convergence|-------------------------
          Item                value                   Tolerance       Converged
          ---------------------------------------------------------------------
          Energy change       0.0026938971            0.0000050000      NO
          RMS gradient        0.0071767319            0.0001000000      NO
          MAX gradient        0.0257094212            0.0003000000      NO
          RMS step            0.0390818029            0.0020000000      NO
          MAX step            0.1032567213            0.0040000000      NO
          -------------------------------------------------------------------------
          ........................................................
          Max(Bonds)      0.0339      Max(Angles)    1.19
          Max(Dihed)        5.92      Max(Improp)    0.00
          ---------------------------------------------------------------------

Geometry step timings:
Preparation and reading OPT file:      0.000 s ( 2.114 %)
Internal coordinates            :      0.000 s ( 2.326 %)
B/P matrices and projection     :      0.000 s (33.404 %)
Hessian update/contruction      :      0.000 s (11.311 %)
Making the step                 :      0.000 s (37.949 %)
Converting the step to Cartesian:      0.000 s ( 6.448 %)
Storing new data                :      0.000 s ( 1.163 %)
Checking convergence            :      0.000 s ( 2.537 %)
GOAT stuff                      :      0.000 s ( 0.000 %)
Final printing                  :      0.000 s ( 2.748 %)
Total time                      :      0.001 s

Time for energy+gradient        :      0.029 s
Time for complete geometry iter :      0.031 s

         *************************************************************
         *                GEOMETRY OPTIMIZATION CYCLE  12            *
         *************************************************************
---------------------------------
CARTESIAN COORDINATES (ANGSTROEM)
---------------------------------
  H    -1.511370    0.537638   -1.107351
  C    -2.716409    2.095312   -0.335025
  H    -3.127385    2.063085   -1.342722
  H    -3.555114    1.620902    1.881929
  O    -0.391876    2.711614    1.096682
  C    -1.461001    1.225515   -0.251034
  H    -2.487852    0.215869    1.054056
  S    -4.052945    1.352900    0.674427
  N    -1.541955    0.585847    1.057122
  H    -0.888049   -0.185848    1.144269
  C    -0.223825    2.133029   -0.085004
  H    -2.592960    3.115778    0.023008
  O     0.678851    2.283976   -0.854993
  H    -0.894844    1.990916    1.539111

----------------------------
CARTESIAN COORDINATES (A.U.)
----------------------------
  NO LB    ZA    FRAG    MASS        X           Y           Z
   0 H   1.0000    1     1.008   -2.856076    1.015988   -2.092591
   1 C   6.0000    1    12.011   -5.133269    3.959567   -0.633106
   2 H   1.0000    1     1.008   -5.909901    3.898666   -2.537377
   3 H   1.0000    1     1.008   -6.718192    3.063061    3.556330
   4 O   8.0000    1    15.999   -0.740538    5.124208    2.072429
   5 C   6.0000    1    12.011   -2.760892    2.315889   -0.474385
   6 H   1.0000    1     1.008   -4.701359    0.407934    1.991877
   7 S  16.0000    1    32.060   -7.658956    2.556610    1.274482
   8 N   7.0000    1    14.007   -2.913872    1.107091    1.997671
   9 H   1.0000    1     1.008   -1.678169   -0.351201    2.162354
  10 C   6.0000    1    12.011   -0.422967    4.030841   -0.160635
  11 H   1.0000    1     1.008   -4.899984    5.887967    0.043479
  12 O   8.0000    1    15.999    1.282842    4.316089   -1.615703
  13 H   1.0000    1     1.008   -1.691010    3.762286    2.908499

------------------------------------------------------------------------------
                         ORCA GEOMETRY RELAXATION STEP
------------------------------------------------------------------------------

Reading the OPT-File                    .... done

---------------------------------------------
FINAL SINGLE POINT ENERGY       -24.250407596180
---------------------------------------------

Getting information on internals        .... done
Copying old internal coords+grads       .... done
Making the new internal coordinates     .... (2022 redundants) done
Validating the new internal coordinates .... (2022 redundants) done
Calculating the B-matrix                .... done
Calculating the G,G- and P matrices     .... done
Transforming gradient to internals      .... done
Projecting the internal gradient        .... done
Number of atoms                         ....  14
Number of internal coordinates          ....  57
Current Energy                          ....   -24.250407596 Eh
Current gradient norm                   ....     0.058430851 Eh/bohr
Maximum allowed component of the step   ....  0.300
Current trust radius                    ....  0.300
Updating the Hessian (BFGS)             .... done
Making uphill step                      .... done
Uphill step size                        .... 0.295193
Converting the step to Cartesian space:
 Initial RMS(Int)=    0.0390992282
Transforming coordinates:
 Iter   0:  RMS(Cart)=    0.0676608740 RMS(Int)=    0.0390181156
 Iter   5:  RMS(Cart)=    0.0000000284 RMS(Int)=    0.0000000241
Imposing constraints:
 Iter   0:  RMS(Cart)=    0.0005254502 RMS(Int)=    0.0000404092
CONVERGED
done
Storing new coordinates                 .... done
Current trust radius                    ....     0.3000
Energy difference                       ....     1.5962 kcal/mol
Maximum difference                      ....     0.4200 kcal/mol
New trust radius                        ....     0.3000

                                .--------------------.
          ----------------------|Geometry convergence|-------------------------
          Item                value                   Tolerance       Converged
          ---------------------------------------------------------------------
          Energy change       0.0025437184            0.0000050000      NO
          RMS gradient        0.0073675700            0.0001000000      NO
          MAX gradient        0.0249213649            0.0003000000      NO
          RMS step            0.0390992282            0.0020000000      NO
          MAX step            0.1071718660            0.0040000000      NO
          -------------------------------------------------------------------------
          ........................................................
          Max(Bonds)      0.0209      Max(Angles)    1.28
          Max(Dihed)        6.14      Max(Improp)    0.00
          ---------------------------------------------------------------------

Geometry step timings:
Preparation and reading OPT file:      0.000 s ( 2.782 %)
Internal coordinates            :      0.000 s ( 1.939 %)
B/P matrices and projection     :      0.000 s (30.607 %)
Hessian update/contruction      :      0.000 s (13.744 %)
Making the step                 :      0.000 s (35.919 %)
Converting the step to Cartesian:      0.000 s ( 6.239 %)
Storing new data                :      0.000 s ( 1.771 %)
Checking convergence            :      0.000 s ( 1.939 %)
GOAT stuff                      :      0.000 s ( 0.084 %)
Final printing                  :      0.000 s ( 4.806 %)
Total time                      :      0.001 s

Time for energy+gradient        :      0.034 s
Time for complete geometry iter :      0.036 s

         *************************************************************
         *                GEOMETRY OPTIMIZATION CYCLE  13            *
         *************************************************************
---------------------------------
CARTESIAN COORDINATES (ANGSTROEM)
---------------------------------
  H    -1.488207    0.575421   -1.147062
  C    -2.730565    2.083140   -0.343454
  H    -3.179334    1.998380   -1.331793
  H    -3.472016    1.677987    1.919757
  O    -0.437517    2.722429    1.112951
  C    -1.459985    1.234885   -0.267685
  H    -2.495695    0.201344    1.015623
  S    -4.026406    1.380222    0.744296
  N    -1.546721    0.563275    1.023986
  H    -0.882012   -0.199409    1.108709
  C    -0.225565    2.137182   -0.058351
  H    -2.607364    3.124073   -0.050099
  O     0.723747    2.253644   -0.776496
  H    -0.939095    1.993962    1.544091

----------------------------
CARTESIAN COORDINATES (A.U.)
----------------------------
  NO LB    ZA    FRAG    MASS        X           Y           Z
   0 H   1.0000    1     1.008   -2.812304    1.087388   -2.167633
   1 C   6.0000    1    12.011   -5.160020    3.936564   -0.649035
   2 H   1.0000    1     1.008   -6.008070    3.776391   -2.516725
   3 H   1.0000    1     1.008   -6.561159    3.170935    3.627816
   4 O   8.0000    1    15.999   -0.826787    5.144644    2.103173
   5 C   6.0000    1    12.011   -2.758972    2.333595   -0.505852
   6 H   1.0000    1     1.008   -4.716179    0.380486    1.919250
   7 S  16.0000    1    32.060   -7.608805    2.608241    1.406516
   8 N   7.0000    1    14.007   -2.922879    1.064435    1.935054
   9 H   1.0000    1     1.008   -1.666762   -0.376828    2.095157
  10 C   6.0000    1    12.011   -0.426257    4.038689   -0.110267
  11 H   1.0000    1     1.008   -4.927204    5.903642   -0.094673
  12 O   8.0000    1    15.999    1.367684    4.258770   -1.467365
  13 H   1.0000    1     1.008   -1.774633    3.768042    2.917910

------------------------------------------------------------------------------
                         ORCA GEOMETRY RELAXATION STEP
------------------------------------------------------------------------------

Reading the OPT-File                    .... done

---------------------------------------------
FINAL SINGLE POINT ENERGY       -24.248147498230
---------------------------------------------

Getting information on internals        .... done
Copying old internal coords+grads       .... done
Making the new internal coordinates     .... (2022 redundants) done
Validating the new internal coordinates .... (2022 redundants) done
Calculating the B-matrix                .... done
Calculating the G,G- and P matrices     .... done
Transforming gradient to internals      .... done
Projecting the internal gradient        .... done
Number of atoms                         ....  14
Number of internal coordinates          ....  57
Current Energy                          ....   -24.248147498 Eh
Current gradient norm                   ....     0.059248667 Eh/bohr
Maximum allowed component of the step   ....  0.300
Current trust radius                    ....  0.300
Updating the Hessian (BFGS)             .... done
Making uphill step                      .... done
Uphill step size                        .... 0.295467
Converting the step to Cartesian space:
 Initial RMS(Int)=    0.0391356096
Transforming coordinates:
 Iter   0:  RMS(Cart)=    0.0655784565 RMS(Int)=    0.0391298124
 Iter   5:  RMS(Cart)=    0.0000000257 RMS(Int)=    0.0000000218
Imposing constraints:
 Iter   0:  RMS(Cart)=    0.0004870336 RMS(Int)=    0.0000366158
CONVERGED
done
Storing new coordinates                 .... done
Current trust radius                    ....     0.3000
Energy difference                       ....     1.4182 kcal/mol
Maximum difference                      ....     0.4200 kcal/mol
New trust radius                        ....     0.3000

                                .--------------------.
          ----------------------|Geometry convergence|-------------------------
          Item                value                   Tolerance       Converged
          ---------------------------------------------------------------------
          Energy change       0.0022600979            0.0000050000      NO
          RMS gradient        0.0074663711            0.0001000000      NO
          MAX gradient        0.0237792537            0.0003000000      NO
          RMS step            0.0391356096            0.0020000000      NO
          MAX step            0.1101240594            0.0040000000      NO
          -------------------------------------------------------------------------
          ........................................................
          Max(Bonds)      0.0210      Max(Angles)    1.30
          Max(Dihed)        6.31      Max(Improp)    0.00
          ---------------------------------------------------------------------

Geometry step timings:
Preparation and reading OPT file:      0.000 s ( 2.542 %)
Internal coordinates            :      0.000 s ( 1.662 %)
B/P matrices and projection     :      0.000 s (29.326 %)
Hessian update/contruction      :      0.000 s (13.294 %)
Making the step                 :      0.000 s (39.003 %)
Converting the step to Cartesian:      0.000 s ( 6.843 %)
Storing new data                :      0.000 s ( 1.271 %)
Checking convergence            :      0.000 s ( 2.248 %)
GOAT stuff                      :      0.000 s ( 0.000 %)
Final printing                  :      0.000 s ( 3.812 %)
Total time                      :      0.001 s

Time for energy+gradient        :      0.024 s
Time for complete geometry iter :      0.026 s

         *************************************************************
         *                GEOMETRY OPTIMIZATION CYCLE  14            *
         *************************************************************
---------------------------------
CARTESIAN COORDINATES (ANGSTROEM)
---------------------------------
  H    -1.464335    0.615529   -1.185493
  C    -2.744061    2.071065   -0.350900
  H    -3.228923    1.933385   -1.315962
  H    -3.393231    1.734854    1.951113
  O    -0.479812    2.731628    1.128942
  C    -1.459159    1.243963   -0.283254
  H    -2.502273    0.187966    0.984086
  S    -4.000192    1.412215    0.808649
  N    -1.549499    0.539805    0.990717
  H    -0.875118   -0.214838    1.070868
  C    -0.228783    2.141044   -0.031911
  H    -2.623174    3.128808   -0.124307
  O     0.760533    2.225271   -0.698733
  H    -0.978708    1.995841    1.550660

----------------------------
CARTESIAN COORDINATES (A.U.)
----------------------------
  NO LB    ZA    FRAG    MASS        X           Y           Z
   0 H   1.0000    1     1.008   -2.767192    1.163181   -2.240258
   1 C   6.0000    1    12.011   -5.185525    3.913747   -0.663104
   2 H   1.0000    1     1.008   -6.101779    3.653569   -2.486808
   3 H   1.0000    1     1.008   -6.412278    3.278399    3.687069
   4 O   8.0000    1    15.999   -0.906714    5.162028    2.133391
   5 C   6.0000    1    12.011   -2.757410    2.350749   -0.535272
[...]
Making the step                 :      0.001 s (36.568 %)
Converting the step to Cartesian:      0.000 s ( 8.284 %)
Storing new data                :      0.000 s ( 1.465 %)
Checking convergence            :      0.000 s ( 1.831 %)
GOAT stuff                      :      0.000 s ( 0.046 %)
Final printing                  :      0.000 s ( 2.563 %)
Total time                      :      0.002 s

Time for energy+gradient        :      0.026 s
Time for complete geometry iter :      0.029 s

         *************************************************************
         *                GEOMETRY OPTIMIZATION CYCLE  97            *
         *************************************************************
---------------------------------
CARTESIAN COORDINATES (ANGSTROEM)
---------------------------------
  H    -1.195981    2.022751   -1.090037
  C    -2.982004    1.808638    0.050551
  H    -3.290566    1.546678    1.063842
  H    -2.139918    4.020413    0.214606
  O    -0.880065    1.469961    2.159076
  C    -1.513556    1.454806   -0.205707
  H    -0.546432   -0.401814    0.010425
  S    -3.315496    3.581283   -0.218723
  N    -1.315515    0.037149   -0.487917
  H    -2.156884   -0.509632   -0.349229
  C    -0.640429    1.970290    0.957226
  H    -3.611443    1.286619   -0.671982
  O     0.159643    2.855983    0.835843
  H    -1.338090    0.603409    2.226500

----------------------------
CARTESIAN COORDINATES (A.U.)
----------------------------
  NO LB    ZA    FRAG    MASS        X           Y           Z
   0 H   1.0000    1     1.008   -2.260076    3.822445   -2.059872
   1 C   6.0000    1    12.011   -5.635170    3.417831    0.095527
   2 H   1.0000    1     1.008   -6.218268    2.922798    2.010370
   3 H   1.0000    1     1.008   -4.043859    7.597479    0.405546
   4 O   8.0000    1    15.999   -1.663083    2.777823    4.080062
   5 C   6.0000    1    12.011   -2.860207    2.749186   -0.388729
   6 H   1.0000    1     1.008   -1.032607   -0.759319    0.019700
   7 S  16.0000    1    32.060   -6.265379    6.767644   -0.413326
   8 N   7.0000    1    14.007   -2.485963    0.070202   -0.922030
   9 H   1.0000    1     1.008   -4.075921   -0.963065   -0.659948
  10 C   6.0000    1    12.011   -1.210236    3.723309    1.808896
  11 H   1.0000    1     1.008   -6.824638    2.431358   -1.269861
  12 O   8.0000    1    15.999    0.301682    5.397026    1.579514
  13 H   1.0000    1     1.008   -2.528623    1.140278    4.207475

------------------------------------------------------------------------------
                         ORCA GEOMETRY RELAXATION STEP
------------------------------------------------------------------------------

Reading the OPT-File                    .... done

---------------------------------------------
FINAL SINGLE POINT ENERGY       -24.262264284540
---------------------------------------------

Getting information on internals        .... done
Copying old internal coords+grads       .... done
Making the new internal coordinates     .... (2022 redundants) done
Validating the new internal coordinates .... (2022 redundants) done
Calculating the B-matrix                .... done
Calculating the G,G- and P matrices     .... done
Transforming gradient to internals      .... done
Projecting the internal gradient        .... done
Number of atoms                         ....  14
Number of internal coordinates          ....  57
Current Energy                          ....   -24.262264285 Eh
Current gradient norm                   ....     0.035028895 Eh/bohr
Maximum allowed component of the step   ....  0.300
Current trust radius                    ....  0.300
Updating the Hessian (BFGS)             .... done
Making uphill step                      .... done
Uphill step size                        .... 0.296988
Converting the step to Cartesian space:
 Initial RMS(Int)=    0.0393370269
Transforming coordinates:
 Iter   0:  RMS(Cart)=    0.0581873433 RMS(Int)=    0.0387888386
 Iter   5:  RMS(Cart)=    0.0000010945 RMS(Int)=    0.0000008681
Imposing constraints:
 Iter   0:  RMS(Cart)=    0.0004391603 RMS(Int)=    0.0001313388
 Iter   5:  RMS(Cart)=    0.0000059880 RMS(Int)=    0.0000020890
 Iter  10:  RMS(Cart)=    0.0000000960 RMS(Int)=    0.0000000335
CONVERGED
done
Storing new coordinates                 .... done
Current trust radius                    ....     0.3000
Energy difference                       ....     1.0711 kcal/mol
Maximum difference                      ....     0.4200 kcal/mol
New trust radius                        ....     0.3000

                                .--------------------.
          ----------------------|Geometry convergence|-------------------------
          Item                value                   Tolerance       Converged
          ---------------------------------------------------------------------
          Energy change      -0.0017069583            0.0000050000      NO
          RMS gradient        0.0032402019            0.0001000000      NO
          MAX gradient        0.0144091389            0.0003000000      NO
          RMS step            0.0393370269            0.0020000000      NO
          MAX step            0.1310386818            0.0040000000      NO
          -------------------------------------------------------------------------
          ........................................................
          Max(Bonds)      0.0545      Max(Angles)    2.55
          Max(Dihed)        7.51      Max(Improp)    0.00
          ---------------------------------------------------------------------

Geometry step timings:
Preparation and reading OPT file:      0.000 s ( 1.716 %)
Internal coordinates            :      0.000 s ( 1.397 %)
B/P matrices and projection     :      0.001 s (27.534 %)
Hessian update/contruction      :      0.001 s (23.025 %)
Making the step                 :      0.001 s (33.160 %)
Converting the step to Cartesian:      0.000 s ( 7.901 %)
Storing new data                :      0.000 s ( 1.237 %)
Checking convergence            :      0.000 s ( 1.836 %)
GOAT stuff                      :      0.000 s ( 0.040 %)
Final printing                  :      0.000 s ( 2.155 %)
Total time                      :      0.003 s

Time for energy+gradient        :      0.035 s
Time for complete geometry iter :      0.039 s

         *************************************************************
         *                GEOMETRY OPTIMIZATION CYCLE  98            *
         *************************************************************
---------------------------------
CARTESIAN COORDINATES (ANGSTROEM)
---------------------------------
  H    -1.176497    2.020031   -1.099591
  C    -2.970185    1.806182    0.050103
  H    -3.275048    1.536758    1.062557
  H    -2.181359    4.036985    0.244835
  O    -0.878762    1.457888    2.150200
  C    -1.500645    1.461175   -0.211862
  H    -0.512624   -0.379053   -0.033121
  S    -3.343784    3.573797   -0.198804
  N    -1.326482    0.037092   -0.476947
  H    -2.153952   -0.508367   -0.267483
  C    -0.623583    1.963608    0.953819
  H    -3.595497    1.276154   -0.670178
  O     0.219575    2.807043    0.823415
  H    -1.447893    0.657242    2.167532

----------------------------
CARTESIAN COORDINATES (A.U.)
----------------------------
  NO LB    ZA    FRAG    MASS        X           Y           Z
   0 H   1.0000    1     1.008   -2.223256    3.817305   -2.077926
   1 C   6.0000    1    12.011   -5.612836    3.413189    0.094682
   2 H   1.0000    1     1.008   -6.188943    2.904052    2.007942
   3 H   1.0000    1     1.008   -4.122171    7.628796    0.462670
   4 O   8.0000    1    15.999   -1.660620    2.755009    4.063289
   5 C   6.0000    1    12.011   -2.835808    2.761220   -0.400360
   6 H   1.0000    1     1.008   -0.968719   -0.716306   -0.062590
   7 S  16.0000    1    32.060   -6.318837    6.753497   -0.375686
   8 N   7.0000    1    14.007   -2.506688    0.070094   -0.901299
   9 H   1.0000    1     1.008   -4.070380   -0.960674   -0.505470
  10 C   6.0000    1    12.011   -1.178401    3.710681    1.802456
  11 H   1.0000    1     1.008   -6.794505    2.411582   -1.266454
  12 O   8.0000    1    15.999    0.414937    5.304542    1.556029
  13 H   1.0000    1     1.008   -2.736121    1.242008    4.096041

------------------------------------------------------------------------------
                         ORCA GEOMETRY RELAXATION STEP
------------------------------------------------------------------------------

Reading the OPT-File                    .... done

---------------------------------------------
FINAL SINGLE POINT ENERGY       -24.264068443600
---------------------------------------------

Getting information on internals        .... done
Copying old internal coords+grads       .... done
Making the new internal coordinates     .... (2022 redundants) done
Validating the new internal coordinates .... (2022 redundants) done
Calculating the B-matrix                .... done
Calculating the G,G- and P matrices     .... done
Transforming gradient to internals      .... done
Projecting the internal gradient        .... done
Number of atoms                         ....  14
Number of internal coordinates          ....  57
Current Energy                          ....   -24.264068444 Eh
Current gradient norm                   ....     0.031466170 Eh/bohr
Maximum allowed component of the step   ....  0.300
Current trust radius                    ....  0.300
Updating the Hessian (BFGS)             .... done
Making uphill step                      .... done
Uphill step size                        .... 0.297350
Converting the step to Cartesian space:
 Initial RMS(Int)=    0.0393849082
Transforming coordinates:
 Iter   0:  RMS(Cart)=    0.0480872783 RMS(Int)=    0.0388254413
 Iter   5:  RMS(Cart)=    0.0000003270 RMS(Int)=    0.0000002710
Imposing constraints:
 Iter   0:  RMS(Cart)=    0.0018018481 RMS(Int)=    0.0001638215
 Iter   5:  RMS(Cart)=    0.0000049927 RMS(Int)=    0.0000017503
 Iter  10:  RMS(Cart)=    0.0000000784 RMS(Int)=    0.0000000275
CONVERGED
done
Storing new coordinates                 .... done
Current trust radius                    ....     0.3000
Energy difference                       ....     1.1321 kcal/mol
Maximum difference                      ....     0.4200 kcal/mol
New trust radius                        ....     0.3000

                                .--------------------.
          ----------------------|Geometry convergence|-------------------------
          Item                value                   Tolerance       Converged
          ---------------------------------------------------------------------
          Energy change      -0.0018041591            0.0000050000      NO
          RMS gradient        0.0028228451            0.0001000000      NO
          MAX gradient        0.0138070393            0.0003000000      NO
          RMS step            0.0393849082            0.0020000000      NO
          MAX step            0.1176369157            0.0040000000      NO
          -------------------------------------------------------------------------
          ........................................................
          Max(Bonds)      0.0348      Max(Angles)    2.19
          Max(Dihed)        6.74      Max(Improp)    0.00
          ---------------------------------------------------------------------

Geometry step timings:
Preparation and reading OPT file:      0.000 s ( 2.509 %)
Internal coordinates            :      0.000 s ( 1.673 %)
B/P matrices and projection     :      0.001 s (29.798 %)
Hessian update/contruction      :      0.000 s (16.681 %)
Making the step                 :      0.001 s (35.123 %)
Converting the step to Cartesian:      0.000 s ( 8.319 %)
Storing new data                :      0.000 s ( 1.188 %)
Checking convergence            :      0.000 s ( 2.069 %)
GOAT stuff                      :      0.000 s ( 0.044 %)
Final printing                  :      0.000 s ( 2.597 %)
Total time                      :      0.002 s

Time for energy+gradient        :      0.025 s
Time for complete geometry iter :      0.028 s

         *************************************************************
         *                GEOMETRY OPTIMIZATION CYCLE  99            *
         *************************************************************
---------------------------------
CARTESIAN COORDINATES (ANGSTROEM)
---------------------------------
  H    -1.167893    2.011176   -1.110971
  C    -2.968729    1.808969    0.040636
  H    -3.279399    1.534180    1.049878
  H    -2.202895    4.041778    0.289173
  O    -0.867393    1.429906    2.135515
  C    -1.498945    1.463238   -0.218993
  H    -0.478846   -0.353517   -0.077286
  S    -3.349312    3.577181   -0.192978
  N    -1.335930    0.033874   -0.461808
  H    -2.135625   -0.512942   -0.165856
  C    -0.618395    1.957783    0.947431
  H    -3.591377    1.281714   -0.683976
  O     0.243045    2.782050    0.813982
  H    -1.515040    0.691147    2.129727

----------------------------
CARTESIAN COORDINATES (A.U.)
----------------------------
  NO LB    ZA    FRAG    MASS        X           Y           Z
   0 H   1.0000    1     1.008   -2.206998    3.800571   -2.099431
   1 C   6.0000    1    12.011   -5.610085    3.418455    0.076792
   2 H   1.0000    1     1.008   -6.197166    2.899180    1.983982
   3 H   1.0000    1     1.008   -4.162869    7.637854    0.546457
   4 O   8.0000    1    15.999   -1.639135    2.702130    4.035538
   5 C   6.0000    1    12.011   -2.832596    2.765119   -0.413836
   6 H   1.0000    1     1.008   -0.904888   -0.668051   -0.146049
   7 S  16.0000    1    32.060   -6.329283    6.759893   -0.364676
   8 N   7.0000    1    14.007   -2.524543    0.064012   -0.872691
   9 H   1.0000    1     1.008   -4.035747   -0.969321   -0.313423
  10 C   6.0000    1    12.011   -1.168597    3.699674    1.790386
  11 H   1.0000    1     1.008   -6.786719    2.422089   -1.292527
  12 O   8.0000    1    15.999    0.459288    5.257312    1.538202
  13 H   1.0000    1     1.008   -2.863010    1.306079    4.024600

------------------------------------------------------------------------------
                         ORCA GEOMETRY RELAXATION STEP
------------------------------------------------------------------------------

Reading the OPT-File                    .... done

---------------------------------------------
FINAL SINGLE POINT ENERGY       -24.265382472990
---------------------------------------------

Getting information on internals        .... done
Copying old internal coords+grads       .... done
Making the new internal coordinates     .... (2022 redundants) done
Validating the new internal coordinates .... (2022 redundants) done
Calculating the B-matrix                .... done
Calculating the G,G- and P matrices     .... done
Transforming gradient to internals      .... done
Projecting the internal gradient        .... done
Number of atoms                         ....  14
Number of internal coordinates          ....  57
Current Energy                          ....   -24.265382473 Eh
Current gradient norm                   ....     0.029725432 Eh/bohr
Maximum allowed component of the step   ....  0.300
Current trust radius                    ....  0.300
Updating the Hessian (BFGS)             .... done
Making uphill step                      .... done
Uphill step size                        .... 0.297281
Converting the step to Cartesian space:
 Initial RMS(Int)=    0.0393758478
Transforming coordinates:
 Iter   0:  RMS(Cart)=    0.0447951190 RMS(Int)=    0.8260502559
 Iter   5:  RMS(Cart)=    0.0000001266 RMS(Int)=    0.0000001152
Imposing constraints:
 Iter   0:  RMS(Cart)=    0.0013043095 RMS(Int)=    0.0001427747
 Iter   5:  RMS(Cart)=    0.0000051209 RMS(Int)=    0.0000017397
 Iter  10:  RMS(Cart)=    0.0000000765 RMS(Int)=    0.0000000260
CONVERGED
done
Storing new coordinates                 .... done
Current trust radius                    ....     0.3000
Energy difference                       ....     0.8246 kcal/mol
Maximum difference                      ....     0.4200 kcal/mol
New trust radius                        ....     0.3000

                                .--------------------.
          ----------------------|Geometry convergence|-------------------------
          Item                value                   Tolerance       Converged
          ---------------------------------------------------------------------
          Energy change      -0.0013140294            0.0000050000      NO
          RMS gradient        0.0026300417            0.0001000000      NO
          MAX gradient        0.0133468741            0.0003000000      NO
          RMS step            0.0393758478            0.0020000000      NO
          MAX step            0.1085996240            0.0040000000      NO
          -------------------------------------------------------------------------
          ........................................................
          Max(Bonds)      0.0347      Max(Angles)    1.25
          Max(Dihed)        6.22      Max(Improp)    0.00
          ---------------------------------------------------------------------

Geometry step timings:
Preparation and reading OPT file:      0.000 s ( 2.885 %)
Internal coordinates            :      0.000 s ( 2.226 %)
B/P matrices and projection     :      0.000 s (38.912 %)
Hessian update/contruction      :      0.000 s (13.190 %)
Making the step                 :      0.000 s (30.915 %)
Converting the step to Cartesian:      0.000 s ( 6.678 %)
Storing new data                :      0.000 s ( 1.072 %)
Checking convergence            :      0.000 s ( 1.979 %)
GOAT stuff                      :      0.000 s ( 0.000 %)
Final printing                  :      0.000 s ( 2.143 %)
Total time                      :      0.001 s

Time for energy+gradient        :      0.029 s
Time for complete geometry iter :      0.031 s

         *************************************************************
         *                GEOMETRY OPTIMIZATION CYCLE 100            *
         *************************************************************
---------------------------------
CARTESIAN COORDINATES (ANGSTROEM)
---------------------------------
  H    -1.159569    1.993982   -1.124521
  C    -2.969775    1.814559    0.022026
  H    -3.293305    1.534979    1.025897
  H    -2.215856    4.041980    0.344093
  O    -0.846331    1.398564    2.120635
  C    -1.499717    1.461846   -0.226419
  H    -0.462864   -0.338123   -0.114697
  S    -3.338132    3.586859   -0.199923
  N    -1.352464    0.026636   -0.443459
  H    -2.118883   -0.511268   -0.056977
  C    -0.622906    1.958212    0.942046
  H    -3.588826    1.295463   -0.711505
  O     0.231060    2.790530    0.810547
  H    -1.529167    0.692317    2.106731

----------------------------
CARTESIAN COORDINATES (A.U.)
----------------------------
  NO LB    ZA    FRAG    MASS        X           Y           Z
   0 H   1.0000    1     1.008   -2.191267    3.768080   -2.125036
   1 C   6.0000    1    12.011   -5.612062    3.429019    0.041622
   2 H   1.0000    1     1.008   -6.223445    2.900691    1.938664
   3 H   1.0000    1     1.008   -4.187361    7.638235    0.650241
   4 O   8.0000    1    15.999   -1.599333    2.642902    4.007420
   5 C   6.0000    1    12.011   -2.834054    2.762488   -0.427870
   6 H   1.0000    1     1.008   -0.874686   -0.638960   -0.216745
   7 S  16.0000    1    32.060   -6.308155    6.778180   -0.377800
   8 N   7.0000    1    14.007   -2.555787    0.050335   -0.838016
   9 H   1.0000    1     1.008   -4.004109   -0.966156   -0.107671
  10 C   6.0000    1    12.011   -1.177122    3.700485    1.780209
  11 H   1.0000    1     1.008   -6.781898    2.448070   -1.344549
  12 O   8.0000    1    15.999    0.436640    5.273337    1.531712
  13 H   1.0000    1     1.008   -2.889707    1.308289    3.981144

