                                 *****************
                                 * O   R   C   A *
                                 *****************

                       *****************************
                       * Geometry Optimization Run *
                       *****************************

Geometry optimization settings:
Update method            Update   .... BFGS
Choice of coordinates    CoordSys .... (2022) Redundant Internals
Initial Hessian          InHess   .... Almloef's Model
Max. no of cycles        MaxIter  .... 14000

Convergence Tolerances:
Energy Change            TolE     ....  5.0000e-06 Eh
Max. Gradient            TolMAXG  ....  3.0000e-04 Eh/bohr
RMS Gradient             TolRMSG  ....  1.0000e-04 Eh/bohr
Max. Displacement        TolMAXD  ....  4.0000e-03 bohr
RMS Displacement         TolRMSD  ....  2.0000e-03 bohr
Strict Convergence                .... True

------------------------------------------------------------------------------
                        ORCA OPTIMIZATION COORDINATE SETUP
------------------------------------------------------------------------------

The optimization will be done in redundant internal coordinates (2022)
Making redundant internal coordinates   ...  (2022 redundants) done
Evaluating the initial hessian          ...  (Almloef) done
Evaluating the coordinates              ...  done
Calculating the B-matrix                .... done
Calculating the G-matrix                .... done
The number of degrees of freedom        ....   57

    -----------------------------------------------------------------
                    Redundant Internal Coordinates


    -----------------------------------------------------------------
         Definition                    Initial Value    Approx d2E/dq
    -----------------------------------------------------------------
      1. B(H   2,C   1)                  1.0887         0.361761   
      2. B(C   5,C   1)                  1.5296         0.374104   
      3. B(C   5,H   0)                  1.0995         0.347727   
      4. B(S   7,H   6)                  2.6972         0.010000   
      5. B(S   7,H   3)                  1.3333         0.397190   
      6. B(S   7,C   1)                  1.8321         0.332030   
      7. B(N   8,H   6)                  1.0157         0.423752   
      8. B(N   8,C   5)                  1.4584         0.435231   
      9. B(H   9,N   8)                  1.0152         0.424475   
     10. B(C  10,C   5)                  1.5433         0.355733   
     11. B(C  10,O   4)                  1.3264         0.706899   
     12. B(H  11,C   1)                  1.0885         0.362129   
     13. B(O  12,C  10)                  1.1960         1.141145   
     14. B(H  13,N   8)                  1.8960         0.016695   
     15. B(H  13,O   4)                  0.9839         0.476195   
     16. A(H   2,C   1,C   5)          109.2788         0.324639   
     17. A(H   2,C   1,H  11)          109.5850         0.291307   
     18. A(C   5,C   1,S   7)          112.6922         0.374973   
     19. A(H   2,C   1,S   7)          105.9352         0.334463   
     20. A(C   5,C   1,H  11)          111.1965         0.324694   
     21. A(S   7,C   1,H  11)          107.9904         0.334520   
     22. A(C  10,O   4,H  13)          107.8445         0.372882   
     23. A(C   1,C   5,N   8)          111.0014         0.370756   
     24. A(C   1,C   5,C  10)          105.9839         0.360416   
     25. A(H   0,C   5,N   8)          114.1571         0.328688   
     26. A(H   0,C   5,C  10)          108.6625         0.319892   
     27. A(N   8,C   5,C  10)          108.1229         0.367564   
     28. A(H   0,C   5,C   1)          108.5724         0.322539   
     29. A(C   1,S   7,H   3)           96.7387         0.364130   
     30. A(H   6,N   8,H   9)          107.1152         0.301320   
     31. A(C   5,N   8,H   9)          110.2728         0.336834   
     32. A(C   5,N   8,H   6)          110.2216         0.336738   
     33. A(O   4,C  10,C   5)          112.8535         0.399885   
     34. A(C   5,C  10,O  12)          123.0972         0.435477   
     35. A(O   4,C  10,O  12)          124.0182         0.490409   
     36. D(N   8,C   5,C   1,H   2)    178.2594         0.011173   
     37. D(H   0,C   5,C   1,H   2)    -55.4819         0.011173   
     38. D(N   8,C   5,C   1,S   7)    -64.2550         0.011173   
     39. D(H   0,C   5,C   1,S   7)     62.0037         0.011173   
     40. D(H   0,C   5,C   1,H  11)   -176.5818         0.011173   
     41. D(N   8,C   5,C   1,H  11)     57.1595         0.011173   
     42. D(H   3,S   7,C   1,H  11)    -34.0738         0.010000   
     43. D(H   3,S   7,C   1,C   5)     89.1451         0.010000   
     44. D(H   3,S   7,C   1,H   2)   -151.4117         0.010000   
     45. D(H   9,N   8,C   5,C   1)    164.7174         0.017309   
     46. D(H   9,N   8,C   5,H   0)     41.6179         0.017309   
     47. D(H   6,N   8,C   5,C  10)    162.5064         0.017309   
     48. D(H   6,N   8,C   5,H   0)    -76.4422         0.017309   
     49. D(H   9,N   8,C   5,C  10)    -79.4336         0.017309   
     50. D(H   6,N   8,C   5,C   1)     46.6573         0.017309   
     51. D(O  12,C  10,C   5,C   1)    -78.4185         0.010000   
     52. D(O  12,C  10,C   5,H   0)     38.0973         0.010000   
     53. D(O   4,C  10,C   5,N   8)    -19.4538         0.010000   
     54. D(O   4,C  10,C   5,C   1)     99.6251         0.010000   
     55. D(O   4,C  10,C   5,H   0)   -143.8591         0.010000   
     56. D(O  12,C  10,O   4,H  13)   -178.1844         0.037492   
     57. D(C   5,C  10,O   4,H  13)      3.7929         0.037492   
    -----------------------------------------------------------------

Number of atoms                         .... 14
Number of degrees of freedom            .... 57


         *************************************************************
         *                GEOMETRY OPTIMIZATION CYCLE   1            *
         *************************************************************
------------------------------------------------------------------------------
                         ORCA GEOMETRY RELAXATION STEP
------------------------------------------------------------------------------

Reading the OPT-File                    .... done

---------------------------------------------
FINAL SINGLE POINT ENERGY       -24.279084989030
---------------------------------------------

Getting information on internals        .... done
Copying old internal coords+grads       .... done
Making the new internal coordinates     .... (2022 redundants) done
Validating the new internal coordinates .... (2022 redundants) done
Calculating the B-matrix                .... done
Calculating the G,G- and P matrices     .... done
Transforming gradient to internals      .... done
Projecting the internal gradient        .... done
Number of atoms                         ....  14
Number of internal coordinates          ....  57
Current Energy                          ....   -24.279084989 Eh
Current gradient norm                   ....     0.000181232 Eh/bohr
Maximum allowed component of the step   ....  0.300
Current trust radius                    ....  0.300
Evaluating the initial hessian          ....  (Almloef) done
Projecting the Hessian                  .... done
Forming the augmented Hessian           .... done
Diagonalizing the augmented Hessian     .... done
Last element of RFO vector              ....  0.999998765
Lowest eigenvalues of augmented Hessian:
 -0.000000069  0.010000000  0.010568079  0.010779658  0.017101942
Length of the computed step             ....  0.001571331
The final length of the internal step   ....  0.001571331
Converting the step to Cartesian space:
 Initial RMS(Int)=    0.0002081279
Transforming coordinates:
 Iter   0:  RMS(Cart)=    0.0003344833 RMS(Int)=    0.0002081486
done
Storing new coordinates                 .... done

                                .--------------------.
          ----------------------|Geometry convergence|-------------------------
          Item                value                   Tolerance       Converged
          ---------------------------------------------------------------------
          RMS gradient        0.0000126902            0.0001000000      YES
          MAX gradient        0.0000304081            0.0003000000      YES
          RMS step            0.0002081279            0.0020000000      YES
          MAX step            0.0007060033            0.0040000000      YES
          -------------------------------------------------------------------------
          ........................................................
          Max(Bonds)      0.0004      Max(Angles)    0.01
          Max(Dihed)        0.04      Max(Improp)    0.00
          ---------------------------------------------------------------------

			-----------------------
			     GOAT ITER   1       
			-----------------------

	Minimum found after 1 optimization iterations! E = -24.279085

	No previous minimum found yet, adding first to c.goat.0.0.ensembleen.tmp.

	Number of GOAT steps per global cycle: 20

	Current MaxEn         : 42.00 kcal/mol
	Current Temperature   : 2903.97 K
	Current UphillGradComp: 1.00

Geometry step timings:
Preparation and reading OPT file:      0.000 s ( 0.423 %)
Internal coordinates            :      0.000 s ( 0.372 %)
B/P matrices and projection     :      0.001 s ( 6.948 %)
Hessian update/contruction      :      0.000 s ( 2.474 %)
Making the step                 :      0.000 s ( 4.884 %)
Converting the step to Cartesian:      0.000 s ( 0.679 %)
Storing new data                :      0.000 s ( 0.320 %)
Checking convergence            :      0.000 s ( 0.397 %)
GOAT stuff                      :      0.000 s ( 3.564 %)
Final printing                  :      0.006 s (79.938 %)
Total time                      :      0.008 s

Time for energy+gradient        :      0.090 s
Time for complete geometry iter :      0.098 s

         *************************************************************
         *                GEOMETRY OPTIMIZATION CYCLE   2            *
         *************************************************************
---------------------------------
CARTESIAN COORDINATES (ANGSTROEM)
---------------------------------
  H    -1.542641    0.446857   -0.847518
  C    -2.736092    2.119115   -0.215502
  H    -2.739741    2.537550   -1.220635
  H    -4.440664    1.368700    1.280678
  O     0.276992    2.488439    0.874904
  C    -1.519405    1.206489   -0.052904
  H    -2.365762    0.305064    1.576112
  S    -4.322710    1.220218   -0.039080
  N    -1.454870    0.656685    1.296374
  H    -0.809891   -0.126763    1.326589
  C    -0.282751    2.105101   -0.264887
  H    -2.723539    2.925621    0.515365
  O     0.100081    2.444959   -1.345825
  H    -0.205743    2.048500    1.610803

----------------------------
CARTESIAN COORDINATES (A.U.)
----------------------------
  NO LB    ZA    FRAG    MASS        X           Y           Z
   0 H   1.0000    1     1.008   -2.915169    0.844438   -1.601577
   1 C   6.0000    1    12.011   -5.170464    4.004547   -0.407241
   2 H   1.0000    1     1.008   -5.177361    4.795275   -2.306665
   3 H   1.0000    1     1.008   -8.391638    2.586468    2.420131
   4 O   8.0000    1    15.999    0.523439    4.702469    1.653330
   5 C   6.0000    1    12.011   -2.871259    2.279934   -0.099974
   6 H   1.0000    1     1.008   -4.470642    0.576488    2.978420
   7 S  16.0000    1    32.060   -8.168738    2.305877   -0.073850
   8 N   7.0000    1    14.007   -2.749306    1.240954    2.449791
   9 H   1.0000    1     1.008   -1.530472   -0.239547    2.506889
  10 C   6.0000    1    12.011   -0.534321    3.978064   -0.500564
  11 H   1.0000    1     1.008   -5.146743    5.528623    0.973899
  12 O   8.0000    1    15.999    0.189125    4.620302   -2.543241
  13 H   1.0000    1     1.008   -0.388797    3.871103    3.043977

------------------------------------------------------------------------------
                         ORCA GEOMETRY RELAXATION STEP
------------------------------------------------------------------------------

Reading the OPT-File                    .... done

---------------------------------------------
FINAL SINGLE POINT ENERGY       -24.279085037950
---------------------------------------------

Getting information on internals        .... done
Copying old internal coords+grads       .... done
Making the new internal coordinates     .... (2022 redundants) done
Validating the new internal coordinates .... (2022 redundants) done
Calculating the B-matrix                .... done
Calculating the G,G- and P matrices     .... done
Transforming gradient to internals      .... done
Projecting the internal gradient        .... done
Number of atoms                         ....  14
Number of internal coordinates          ....  57
Current Energy                          ....   -24.279085038 Eh
Current gradient norm                   ....     0.000109139 Eh/bohr
Maximum allowed component of the step   ....  0.300
Current trust radius                    ....  0.300
Updating the Hessian (BFGS)             .... done
Making initial random step              .... (random uniform) done
Converting the step to Cartesian space:
 Initial RMS(Int)=    0.0420608241
Transforming coordinates:
 Iter   0:  RMS(Cart)=    0.0574206723 RMS(Int)=    0.8276414775
 Iter   5:  RMS(Cart)=    0.0000000739 RMS(Int)=    0.0000000663
Imposing constraints:
 Iter   0:  RMS(Cart)=    0.0041422155 RMS(Int)=    0.0002707706
 Iter   5:  RMS(Cart)=    0.0000000237 RMS(Int)=    0.0000000018
CONVERGED
done
Storing new coordinates                 .... done
Current trust radius                    ....     0.3000
Energy difference                       ....     0.0000 kcal/mol
Maximum difference                      ....     0.4200 kcal/mol
New trust radius                        ....     0.4500

                                .--------------------.
          ----------------------|Geometry convergence|-------------------------
          Item                value                   Tolerance       Converged
          ---------------------------------------------------------------------
          Energy change      -0.0000000489            0.0000050000      YES
          RMS gradient        0.0000079630            0.0001000000      YES
          MAX gradient        0.0000246377            0.0003000000      YES
          RMS step            0.0420608241            0.0020000000      NO
          MAX step            0.0854782108            0.0040000000      NO
          -------------------------------------------------------------------------
          ........................................................
          Max(Bonds)      0.0306      Max(Angles)    4.90
          Max(Dihed)        4.65      Max(Improp)    0.00
          ---------------------------------------------------------------------

Geometry step timings:
Preparation and reading OPT file:      0.000 s ( 2.765 %)
Internal coordinates            :      0.000 s ( 2.765 %)
B/P matrices and projection     :      0.000 s (45.008 %)
Hessian update/contruction      :      0.000 s (18.587 %)
Making the step                 :      0.000 s (11.367 %)
Converting the step to Cartesian:      0.000 s (10.292 %)
Storing new data                :      0.000 s ( 1.997 %)
Checking convergence            :      0.000 s ( 3.994 %)
GOAT stuff                      :      0.000 s ( 0.000 %)
Final printing                  :      0.000 s ( 3.226 %)
Total time                      :      0.001 s

Time for energy+gradient        :      0.042 s
Time for complete geometry iter :      0.043 s

         *************************************************************
         *                GEOMETRY OPTIMIZATION CYCLE   3            *
         *************************************************************
---------------------------------
CARTESIAN COORDINATES (ANGSTROEM)
---------------------------------
  H    -1.507616    0.488990   -0.871139
  C    -2.757082    2.103038   -0.201886
  H    -2.763731    2.542912   -1.197807
  H    -4.429773    1.387059    1.261648
  O     0.343199    2.484143    0.858984
  C    -1.509921    1.229217   -0.058089
  H    -2.379384    0.323340    1.569947
  S    -4.355710    1.219590   -0.059029
  N    -1.463261    0.653216    1.280958
  H    -0.824139   -0.130199    1.373074
  C    -0.246063    2.090993   -0.262439
  H    -2.818772    2.867739    0.570256
  O     0.128382    2.413951   -1.351466
  H    -0.182865    2.072550    1.581462

----------------------------
CARTESIAN COORDINATES (A.U.)
----------------------------
  NO LB    ZA    FRAG    MASS        X           Y           Z
   0 H   1.0000    1     1.008   -2.848982    0.924056   -1.646214
   1 C   6.0000    1    12.011   -5.210130    3.974165   -0.381510
   2 H   1.0000    1     1.008   -5.222694    4.805407   -2.263528
   3 H   1.0000    1     1.008   -8.371057    2.621162    2.384170
   4 O   8.0000    1    15.999    0.648551    4.694349    1.623244
   5 C   6.0000    1    12.011   -2.853338    2.322884   -0.109771
   6 H   1.0000    1     1.008   -4.496384    0.611023    2.966770
   7 S  16.0000    1    32.060   -8.231099    2.304690   -0.111550
   8 N   7.0000    1    14.007   -2.765162    1.234399    2.420659
   9 H   1.0000    1     1.008   -1.557397   -0.246041    2.594734
  10 C   6.0000    1    12.011   -0.464992    3.951403   -0.495938
  11 H   1.0000    1     1.008   -5.326707    5.419240    1.077628
  12 O   8.0000    1    15.999    0.242607    4.561705   -2.553900
  13 H   1.0000    1     1.008   -0.345564    3.916551    2.988530

------------------------------------------------------------------------------
                         ORCA GEOMETRY RELAXATION STEP
------------------------------------------------------------------------------

Reading the OPT-File                    .... done

---------------------------------------------
FINAL SINGLE POINT ENERGY       -24.276721846460
---------------------------------------------

Getting information on internals        .... done
Copying old internal coords+grads       .... done
Making the new internal coordinates     .... (2022 redundants) done
Validating the new internal coordinates .... (2022 redundants) done
Calculating the B-matrix                .... done
Calculating the G,G- and P matrices     .... done
Transforming gradient to internals      .... done
Projecting the internal gradient        .... done
Number of atoms                         ....  14
Number of internal coordinates          ....  57
Current Energy                          ....   -24.276721846 Eh
Current gradient norm                   ....     0.022745950 Eh/bohr
Maximum allowed component of the step   ....  0.300
Current trust radius                    ....  0.450
Updating the Hessian (BFGS)             .... done
Making uphill step                      .... done
Uphill step size                        .... 0.449037
Converting the step to Cartesian space:
 Initial RMS(Int)=    0.0594764326
Transforming coordinates:
 Iter   0:  RMS(Cart)=    0.0937818377 RMS(Int)=    0.8192877819
 Iter   5:  RMS(Cart)=    0.0000008777 RMS(Int)=    0.0000007231
Imposing constraints:
 Iter   0:  RMS(Cart)=    0.0005647032 RMS(Int)=    0.0000356437
CONVERGED
done
Storing new coordinates                 .... done
Current trust radius                    ....     0.4500
Energy difference                       ....     1.4829 kcal/mol
Maximum difference                      ....     0.4200 kcal/mol
New trust radius                        ....     0.3000

                                .--------------------.
          ----------------------|Geometry convergence|-------------------------
          Item                value                   Tolerance       Converged
          ---------------------------------------------------------------------
          Energy change       0.0023631915            0.0000050000      NO
          RMS gradient        0.0034815458            0.0001000000      NO
          MAX gradient        0.0114275818            0.0003000000      NO
          RMS step            0.0594764326            0.0020000000      NO
          MAX step            0.2309004177            0.0040000000      NO
          -------------------------------------------------------------------------
          ........................................................
          Max(Bonds)      0.1222      Max(Angles)    2.99
          Max(Dihed)        8.09      Max(Improp)    0.00
          ---------------------------------------------------------------------

Geometry step timings:
Preparation and reading OPT file:      0.000 s ( 1.929 %)
Internal coordinates            :      0.000 s ( 1.608 %)
B/P matrices and projection     :      0.000 s (32.154 %)
Hessian update/contruction      :      0.000 s (11.147 %)
Making the step                 :      0.000 s (40.407 %)
Converting the step to Cartesian:      0.000 s ( 6.645 %)
Storing new data                :      0.000 s ( 1.286 %)
Checking convergence            :      0.000 s ( 2.465 %)
GOAT stuff                      :      0.000 s ( 0.000 %)
Final printing                  :      0.000 s ( 2.251 %)
Total time                      :      0.001 s

Time for energy+gradient        :      0.029 s
Time for complete geometry iter :      0.030 s

         *************************************************************
         *                GEOMETRY OPTIMIZATION CYCLE   4            *
         *************************************************************
---------------------------------
CARTESIAN COORDINATES (ANGSTROEM)
---------------------------------
  H    -1.499475    0.520209   -0.868326
  C    -2.769490    2.107823   -0.166638
  H    -2.750653    2.621477   -1.126428
  H    -4.489688    1.354050    1.185671
  O     0.405947    2.490498    0.808990
  C    -1.509670    1.248924   -0.045002
  H    -2.372113    0.381546    1.624572
  S    -4.367964    1.213197   -0.134581
  N    -1.451263    0.625149    1.272000
  H    -0.840950   -0.179984    1.371898
  C    -0.218510    2.061093   -0.279609
  H    -2.902187    2.784736    0.675358
  O     0.152795    2.322436   -1.386100
  H    -0.153515    2.195381    1.562670

----------------------------
CARTESIAN COORDINATES (A.U.)
----------------------------
  NO LB    ZA    FRAG    MASS        X           Y           Z
   0 H   1.0000    1     1.008   -2.833597    0.983052   -1.640899
   1 C   6.0000    1    12.011   -5.233579    3.983208   -0.314901
   2 H   1.0000    1     1.008   -5.197980    4.953874   -2.128640
   3 H   1.0000    1     1.008   -8.484281    2.558783    2.240593
   4 O   8.0000    1    15.999    0.767129    4.706360    1.528769
   5 C   6.0000    1    12.011   -2.852863    2.360124   -0.085041
   6 H   1.0000    1     1.008   -4.482644    0.721018    3.069996
   7 S  16.0000    1    32.060   -8.254255    2.292611   -0.254321
   8 N   7.0000    1    14.007   -2.742489    1.181361    2.403732
   9 H   1.0000    1     1.008   -1.589164   -0.340120    2.592512
  10 C   6.0000    1    12.011   -0.412925    3.894901   -0.528385
  11 H   1.0000    1     1.008   -5.484339    5.262388    1.276242
  12 O   8.0000    1    15.999    0.288741    4.388769   -2.619350
  13 H   1.0000    1     1.008   -0.290100    4.148668    2.953019

------------------------------------------------------------------------------
                         ORCA GEOMETRY RELAXATION STEP
------------------------------------------------------------------------------

Reading the OPT-File                    .... done

---------------------------------------------
FINAL SINGLE POINT ENERGY       -24.271980258950
---------------------------------------------

Getting information on internals        .... done
Copying old internal coords+grads       .... done
Making the new internal coordinates     .... (2022 redundants) done
Validating the new internal coordinates .... (2022 redundants) done
Calculating the B-matrix                .... done
Calculating the G,G- and P matrices     .... done
Transforming gradient to internals      .... done
Projecting the internal gradient        .... done
Number of atoms                         ....  14
Number of internal coordinates          ....  57
Current Energy                          ....   -24.271980259 Eh
Current gradient norm                   ....     0.037404653 Eh/bohr
Maximum allowed component of the step   ....  0.300
Current trust radius                    ....  0.300
Updating the Hessian (BFGS)             .... done
Making uphill step                      .... done
Uphill step size                        .... 0.298962
Converting the step to Cartesian space:
 Initial RMS(Int)=    0.0395984777
Transforming coordinates:
 Iter   0:  RMS(Cart)=    0.0638113167 RMS(Int)=    0.0399410228
 Iter   5:  RMS(Cart)=    0.0000000741 RMS(Int)=    0.0000000563
Imposing constraints:
 Iter   0:  RMS(Cart)=    0.0007081359 RMS(Int)=    0.0000428136
CONVERGED
done
Storing new coordinates                 .... done
Current trust radius                    ....     0.3000
Energy difference                       ....     2.9754 kcal/mol
Maximum difference                      ....     0.4200 kcal/mol
New trust radius                        ....     0.3000

                                .--------------------.
          ----------------------|Geometry convergence|-------------------------
          Item                value                   Tolerance       Converged
          ---------------------------------------------------------------------
          Energy change       0.0047415875            0.0000050000      NO
          RMS gradient        0.0052711239            0.0001000000      NO
          MAX gradient        0.0173840056            0.0003000000      NO
          RMS step            0.0395984777            0.0020000000      NO
          MAX step            0.1570730219            0.0040000000      NO
          -------------------------------------------------------------------------
          ........................................................
          Max(Bonds)      0.0831      Max(Angles)    2.19
          Max(Dihed)        4.61      Max(Improp)    0.00
          ---------------------------------------------------------------------

Geometry step timings:
Preparation and reading OPT file:      0.000 s ( 1.820 %)
Internal coordinates            :      0.000 s ( 2.376 %)
B/P matrices and projection     :      0.001 s (32.710 %)
Hessian update/contruction      :      0.000 s (12.841 %)
Making the step                 :      0.001 s (36.754 %)
Converting the step to Cartesian:      0.000 s ( 7.280 %)
Storing new data                :      0.000 s ( 1.314 %)
Checking convergence            :      0.000 s ( 2.174 %)
GOAT stuff                      :      0.000 s ( 0.051 %)
Final printing                  :      0.000 s ( 2.679 %)
Total time                      :      0.002 s

Time for energy+gradient        :      0.034 s
Time for complete geometry iter :      0.037 s

         *************************************************************
         *                GEOMETRY OPTIMIZATION CYCLE   5            *
         *************************************************************
---------------------------------
CARTESIAN COORDINATES (ANGSTROEM)
---------------------------------
  H    -1.519369    0.519542   -0.853227
  C    -2.766063    2.123093   -0.143208
  H    -2.724700    2.685333   -1.074641
  H    -4.550870    1.304860    1.123868
  O     0.419701    2.496602    0.775208
  C    -1.515099    1.250027   -0.031420
  H    -2.355350    0.427354    1.679591
  S    -4.349972    1.203576   -0.190324
  N    -1.440968    0.608338    1.276150
  H    -0.853976   -0.216958    1.347053
  C    -0.218061    2.043434   -0.295905
  H    -2.911606    2.754076    0.731694
  O     0.150732    2.269174   -1.411039
  H    -0.131134    2.278084    1.560674

----------------------------
CARTESIAN COORDINATES (A.U.)
----------------------------
  NO LB    ZA    FRAG    MASS        X           Y           Z
   0 H   1.0000    1     1.008   -2.871190    0.981792   -1.612365
   1 C   6.0000    1    12.011   -5.227101    4.012064   -0.270624
   2 H   1.0000    1     1.008   -5.148936    5.074544   -2.030776
   3 H   1.0000    1     1.008   -8.599898    2.465829    2.123803
   4 O   8.0000    1    15.999    0.793121    4.717894    1.464930
   5 C   6.0000    1    12.011   -2.863122    2.362209   -0.059376
   6 H   1.0000    1     1.008   -4.450967    0.807583    3.173967
   7 S  16.0000    1    32.060   -8.220255    2.274428   -0.359661
   8 N   7.0000    1    14.007   -2.723035    1.149592    2.411573
   9 H   1.0000    1     1.008   -1.613781   -0.409992    2.545562
  10 C   6.0000    1    12.011   -0.412076    3.861531   -0.559179
  11 H   1.0000    1     1.008   -5.502139    5.204449    1.382702
  12 O   8.0000    1    15.999    0.284842    4.288118   -2.666477
  13 H   1.0000    1     1.008   -0.247807    4.304955    2.949246

------------------------------------------------------------------------------
                         ORCA GEOMETRY RELAXATION STEP
------------------------------------------------------------------------------

Reading the OPT-File                    .... done

---------------------------------------------
FINAL SINGLE POINT ENERGY       -24.271439637160
---------------------------------------------

Getting information on internals        .... done
Copying old internal coords+grads       .... done
Making the new internal coordinates     .... (2022 redundants) done
Validating the new internal coordinates .... (2022 redundants) done
Calculating the B-matrix                .... done
Calculating the G,G- and P matrices     .... done
Transforming gradient to internals      .... done
Projecting the internal gradient        .... done
Number of atoms                         ....  14
Number of internal coordinates          ....  57
Current Energy                          ....   -24.271439637 Eh
Current gradient norm                   ....     0.037090688 Eh/bohr
Maximum allowed component of the step   ....  0.300
Current trust radius                    ....  0.300
Updating the Hessian (BFGS)             .... done
Making uphill step                      .... done
Uphill step size                        .... 0.298657
Converting the step to Cartesian space:
 Initial RMS(Int)=    0.0395580680
Transforming coordinates:
 Iter   0:  RMS(Cart)=    0.0656169411 RMS(Int)=    0.0398386306
 Iter   5:  RMS(Cart)=    0.0000000659 RMS(Int)=    0.0000000470
Imposing constraints:
 Iter   0:  RMS(Cart)=    0.0004338084 RMS(Int)=    0.0000260388
CONVERGED
done
Storing new coordinates                 .... done
Current trust radius                    ....     0.3000
Energy difference                       ....     0.3392 kcal/mol
Maximum difference                      ....     0.4200 kcal/mol
New trust radius                        ....     0.4500

                                .--------------------.
          ----------------------|Geometry convergence|-------------------------
          Item                value                   Tolerance       Converged
          ---------------------------------------------------------------------
          Energy change       0.0005406218            0.0000050000      NO
          RMS gradient        0.0045990345            0.0001000000      NO
          MAX gradient        0.0124095300            0.0003000000      NO
          RMS step            0.0395580680            0.0020000000      NO
          MAX step            0.1489938815            0.0040000000      NO
          -------------------------------------------------------------------------
          ........................................................
          Max(Bonds)      0.0788      Max(Angles)    2.68
          Max(Dihed)        4.04      Max(Improp)    0.00
          ---------------------------------------------------------------------

Geometry step timings:
Preparation and reading OPT file:      0.000 s ( 2.354 %)
Internal coordinates            :      0.000 s ( 1.695 %)
B/P matrices and projection     :      0.000 s (33.992 %)
Hessian update/contruction      :      0.000 s (14.030 %)
Making the step                 :      0.000 s (35.782 %)
Converting the step to Cartesian:      0.000 s ( 6.309 %)
Storing new data                :      0.000 s ( 1.318 %)
Checking convergence            :      0.000 s ( 1.977 %)
GOAT stuff                      :      0.000 s ( 0.000 %)
Final printing                  :      0.000 s ( 2.448 %)
Total time                      :      0.001 s

Time for energy+gradient        :      0.033 s
Time for complete geometry iter :      0.035 s

         *************************************************************
         *                GEOMETRY OPTIMIZATION CYCLE   6            *
         *************************************************************
---------------------------------
CARTESIAN COORDINATES (ANGSTROEM)
---------------------------------
  H    -1.552913    0.506725   -0.834268
  C    -2.756191    2.138628   -0.118076
  H    -2.691991    2.745949   -1.019425
  H    -4.614178    1.248060    1.051709
  O     0.420652    2.507969    0.741354
  C    -1.521189    1.241832   -0.017198
  H    -2.332543    0.475316    1.739669
  S    -4.319566    1.192254   -0.247448
  N    -1.431206    0.595825    1.287248
  H    -0.876520   -0.253977    1.316566
  C    -0.228158    2.030862   -0.312590
  H    -2.896576    2.735625    0.781182
  O     0.135730    2.228935   -1.434572
  H    -0.102087    2.352532    1.560323

----------------------------
CARTESIAN COORDINATES (A.U.)
----------------------------
  NO LB    ZA    FRAG    MASS        X           Y           Z
   0 H   1.0000    1     1.008   -2.934580    0.957571   -1.576537
   1 C   6.0000    1    12.011   -5.208447    4.041421   -0.223130
   2 H   1.0000    1     1.008   -5.087126    5.189092   -1.926434
   3 H   1.0000    1     1.008   -8.719532    2.358492    1.987443
   4 O   8.0000    1    15.999    0.794917    4.739375    1.400956
   5 C   6.0000    1    12.011   -2.874630    2.346723   -0.032499
   6 H   1.0000    1     1.008   -4.407867    0.898217    3.287497
   7 S  16.0000    1    32.060   -8.162796    2.253034   -0.467609
   8 N   7.0000    1    14.007   -2.704588    1.125947    2.432546
   9 H   1.0000    1     1.008   -1.656382   -0.479947    2.487948
  10 C   6.0000    1    12.011   -0.431156    3.837772   -0.590710
  11 H   1.0000    1     1.008   -5.473734    5.169582    1.476220
  12 O   8.0000    1    15.999    0.256492    4.212078   -2.710949
  13 H   1.0000    1     1.008   -0.192916    4.445641    2.948583

------------------------------------------------------------------------------
                         ORCA GEOMETRY RELAXATION STEP
------------------------------------------------------------------------------

Reading the OPT-File                    .... done

---------------------------------------------
FINAL SINGLE POINT ENERGY       -24.271772524590
---------------------------------------------

Getting information on internals        .... done
Copying old internal coords+grads       .... done
Making the new internal coordinates     .... (2022 redundants) done
Validating the new internal coordinates .... (2022 redundants) done
Calculating the B-matrix                .... done
Calculating the G,G- and P matrices     .... done
Transforming gradient to internals      .... done
Projecting the internal gradient        .... done
Number of atoms                         ....  14
Number of internal coordinates          ....  57
Current Energy                          ....   -24.271772525 Eh
Current gradient norm                   ....     0.033513014 Eh/bohr
Maximum allowed component of the step   ....  0.300
Current trust radius                    ....  0.450
Updating the Hessian (BFGS)             .... done
Making uphill step                      .... done
Uphill step size                        .... 0.448771
Converting the step to Cartesian space:
 Initial RMS(Int)=    0.0594411866
Transforming coordinates:
 Iter   0:  RMS(Cart)=    0.0959520600 RMS(Int)=    0.0598076703
 Iter   5:  RMS(Cart)=    0.0000004023 RMS(Int)=    0.0000002779
Imposing constraints:
 Iter   0:  RMS(Cart)=    0.0007847008 RMS(Int)=    0.0000504802
 Iter   5:  RMS(Cart)=    0.0000000133 RMS(Int)=    0.0000000009
CONVERGED
done
Storing new coordinates                 .... done
Current trust radius                    ....     0.4500
Energy difference                       ....     0.2089 kcal/mol
Maximum difference                      ....     0.4200 kcal/mol
New trust radius                        ....     0.6750

                                .--------------------.
          ----------------------|Geometry convergence|-------------------------
          Item                value                   Tolerance       Converged
          ---------------------------------------------------------------------
          Energy change      -0.0003328874            0.0000050000      NO
          RMS gradient        0.0034802695            0.0001000000      NO
          MAX gradient        0.0085649864            0.0003000000      NO
          RMS step            0.0594411866            0.0020000000      NO
          MAX step            0.1961837086            0.0040000000      NO
          -------------------------------------------------------------------------
          ........................................................
          Max(Bonds)      0.1038      Max(Angles)    2.95
          Max(Dihed)        6.36      Max(Improp)    0.00
          ---------------------------------------------------------------------

Geometry step timings:
Preparation and reading OPT file:      0.000 s ( 1.903 %)
Internal coordinates            :      0.000 s ( 1.522 %)
B/P matrices and projection     :      0.000 s (32.731 %)
Hessian update/contruction      :      0.000 s (12.845 %)
Making the step                 :      0.000 s (37.203 %)
Converting the step to Cartesian:      0.000 s ( 7.136 %)
Storing new data                :      0.000 s ( 1.522 %)
Checking convergence            :      0.000 s ( 2.664 %)
GOAT stuff                      :      0.000 s ( 0.095 %)
Final printing                  :      0.000 s ( 2.284 %)
Total time                      :      0.001 s

Time for energy+gradient        :      0.031 s
Time for complete geometry iter :      0.033 s

         *************************************************************
         *                GEOMETRY OPTIMIZATION CYCLE   7            *
         *************************************************************
---------------------------------
CARTESIAN COORDINATES (ANGSTROEM)
---------------------------------
  H    -1.594630    0.483849   -0.807197
  C    -2.742429    2.145767   -0.072966
  H    -2.644140    2.822531   -0.920150
  H    -4.699699    1.190023    0.930004
  O     0.420068    2.539920    0.686773
  C    -1.524070    1.224077    0.002789
  H    -2.289963    0.542826    1.816188
  S    -4.282381    1.188848   -0.336315
  N    -1.412030    0.580781    1.306866
  H    -0.922391   -0.308362    1.287413
  C    -0.245145    2.018796   -0.335628
  H    -2.882847    2.688213    0.860208
  O     0.108438    2.177477   -1.467127
  H    -0.055516    2.451791    1.543617

----------------------------
CARTESIAN COORDINATES (A.U.)
----------------------------
  NO LB    ZA    FRAG    MASS        X           Y           Z
   0 H   1.0000    1     1.008   -3.013413    0.914342   -1.525382
   1 C   6.0000    1    12.011   -5.182440    4.054912   -0.137885
   2 H   1.0000    1     1.008   -4.996700    5.333811   -1.738831
   3 H   1.0000    1     1.008   -8.881144    2.248817    1.757454
   4 O   8.0000    1    15.999    0.793814    4.799754    1.297814
   5 C   6.0000    1    12.011   -2.880075    2.313169    0.005270
   6 H   1.0000    1     1.008   -4.327402    1.025792    3.432098
   7 S  16.0000    1    32.060   -8.092528    2.246597   -0.635544
   8 N   7.0000    1    14.007   -2.668351    1.097517    2.469619
   9 H   1.0000    1     1.008   -1.743067   -0.582721    2.432857
  10 C   6.0000    1    12.011   -0.463257    3.814971   -0.634245
  11 H   1.0000    1     1.008   -5.447791    5.079986    1.625557
  12 O   8.0000    1    15.999    0.204919    4.114835   -2.772468
  13 H   1.0000    1     1.008   -0.104909    4.633214    2.917012

------------------------------------------------------------------------------
                         ORCA GEOMETRY RELAXATION STEP
------------------------------------------------------------------------------

Reading the OPT-File                    .... done

---------------------------------------------
FINAL SINGLE POINT ENERGY       -24.270734252780
---------------------------------------------

Getting information on internals        .... done
Copying old internal coords+grads       .... done
Making the new internal coordinates     .... (2022 redundants) done
Validating the new internal coordinates .... (2022 redundants) done
Calculating the B-matrix                .... done
Calculating the G,G- and P matrices     .... done
Transforming gradient to internals      .... done
Projecting the internal gradient        .... done
Number of atoms                         ....  14
Number of internal coordinates          ....  57
Current Energy                          ....   -24.270734253 Eh
Current gradient norm                   ....     0.030764802 Eh/bohr
Maximum allowed component of the step   ....  0.300
Current trust radius                    ....  0.675
Updating the Hessian (BFGS)             .... done
Making uphill step                      .... done
Uphill step size                        .... 0.652269
Converting the step to Cartesian space:
 Initial RMS(Int)=    0.0863951779
Transforming coordinates:
 Iter   0:  RMS(Cart)=    0.1360557183 RMS(Int)=    0.0867126721
 Iter   5:  RMS(Cart)=    0.0000026377 RMS(Int)=    0.0000019304
Imposing constraints:
 Iter   0:  RMS(Cart)=    0.0017118813 RMS(Int)=    0.0001306984
 Iter   5:  RMS(Cart)=    0.0000000612 RMS(Int)=    0.0000000047
CONVERGED
done
Storing new coordinates                 .... done
Current trust radius                    ....     0.6750
Energy difference                       ....     0.6515 kcal/mol
Maximum difference                      ....     0.4200 kcal/mol
New trust radius                        ....     0.4500

                                .--------------------.
          ----------------------|Geometry convergence|-------------------------
          Item                value                   Tolerance       Converged
          ---------------------------------------------------------------------
          Energy change       0.0010382718            0.0000050000      NO
          RMS gradient        0.0028600591            0.0001000000      NO
          MAX gradient        0.0108700926            0.0003000000      NO
          RMS step            0.0863951779            0.0020000000      NO
          MAX step            0.3000000000            0.0040000000      NO
          -------------------------------------------------------------------------
          ........................................................
          Max(Bonds)      0.1588      Max(Angles)    2.80
          Max(Dihed)        9.28      Max(Improp)    0.00
          ---------------------------------------------------------------------

Geometry step timings:
Preparation and reading OPT file:      0.000 s ( 1.968 %)
Internal coordinates            :      0.000 s ( 1.620 %)
B/P matrices and projection     :      0.001 s (34.259 %)
Hessian update/contruction      :      0.000 s (14.178 %)
Making the step                 :      0.001 s (34.259 %)
Converting the step to Cartesian:      0.000 s ( 7.581 %)
Storing new data                :      0.000 s ( 1.215 %)
Checking convergence            :      0.000 s ( 2.141 %)
GOAT stuff                      :      0.000 s ( 0.058 %)
Final printing                  :      0.000 s ( 2.720 %)
Total time                      :      0.002 s

Time for energy+gradient        :      0.031 s
Time for complete geometry iter :      0.033 s

         *************************************************************
         *                GEOMETRY OPTIMIZATION CYCLE   8            *
         *************************************************************
---------------------------------
CARTESIAN COORDINATES (ANGSTROEM)
---------------------------------
  H    -1.635073    0.451222   -0.772999
  C    -2.726553    2.136601   -0.001271
  H    -2.584099    2.912793   -0.751354
  H    -4.805242    1.156509    0.746783
  O     0.408407    2.602528    0.605822
  C    -1.520516    1.196231    0.027520
  H    -2.210357    0.628817    1.901925
  S    -4.238654    1.208960   -0.459015
  N    -1.373279    0.558754    1.330956
  H    -0.996745   -0.381977    1.268117
  C    -0.265022    2.002495   -0.366721
  H    -2.885058    2.584878    0.977862
  O     0.077721    2.101361   -1.508317
  H    -0.012264    2.587364    1.495165

----------------------------
CARTESIAN COORDINATES (A.U.)
----------------------------
  NO LB    ZA    FRAG    MASS        X           Y           Z
   0 H   1.0000    1     1.008   -3.089841    0.852687   -1.460757
   1 C   6.0000    1    12.011   -5.152439    4.037591   -0.002401
   2 H   1.0000    1     1.008   -4.883240    5.504381   -1.419853
   3 H   1.0000    1     1.008   -9.080591    2.185486    1.411215
   4 O   8.0000    1    15.999    0.771778    4.918065    1.144837
   5 C   6.0000    1    12.011   -2.873359    2.260549    0.052006
   6 H   1.0000    1     1.008   -4.176970    1.188292    3.594117
   7 S  16.0000    1    32.060   -8.009896    2.284602   -0.867413
   8 N   7.0000    1    14.007   -2.595121    1.055892    2.515142
   9 H   1.0000    1     1.008   -1.883576   -0.721832    2.396395
  10 C   6.0000    1    12.011   -0.500820    3.784168   -0.693001
  11 H   1.0000    1     1.008   -5.451969    4.884711    1.847892
  12 O   8.0000    1    15.999    0.146872    3.970996   -2.850307
  13 H   1.0000    1     1.008   -0.023176    4.889410    2.825453

------------------------------------------------------------------------------
                         ORCA GEOMETRY RELAXATION STEP
------------------------------------------------------------------------------

Reading the OPT-File                    .... done

---------------------------------------------
FINAL SINGLE POINT ENERGY       -24.267710985010
---------------------------------------------

Getting information on internals        .... done
Copying old internal coords+grads       .... done
Making the new internal coordinates     .... (2022 redundants) done
Validating the new internal coordinates .... (2022 redundants) done
Calculating the B-matrix                .... done
Calculating the G,G- and P matrices     .... done
Transforming gradient to internals      .... done
Projecting the internal gradient        .... done
Number of atoms                         ....  14
Number of internal coordinates          ....  57
Current Energy                          ....   -24.267710985 Eh
Current gradient norm                   ....     0.030151556 Eh/bohr
Maximum allowed component of the step   ....  0.300
Current trust radius                    ....  0.450
Updating the Hessian (BFGS)             .... done
Making uphill step                      .... done
Uphill step size                        .... 0.448813
Converting the step to Cartesian space:
 Initial RMS(Int)=    0.0594467620
Transforming coordinates:
 Iter   0:  RMS(Cart)=    0.0862011405 RMS(Int)=    0.0594803354
 Iter   5:  RMS(Cart)=    0.0000001723 RMS(Int)=    0.0000001536
Imposing constraints:
 Iter   0:  RMS(Cart)=    0.0006750445 RMS(Int)=    0.0000568331
 Iter   5:  RMS(Cart)=    0.0000000364 RMS(Int)=    0.0000000030
CONVERGED
done
Storing new coordinates                 .... done
Current trust radius                    ....     0.4500
Energy difference                       ....     1.8971 kcal/mol
Maximum difference                      ....     0.4200 kcal/mol
New trust radius                        ....     0.3000

                                .--------------------.
          ----------------------|Geometry convergence|-------------------------
          Item                value                   Tolerance       Converged
          ---------------------------------------------------------------------
          Energy change       0.0030232678            0.0000050000      NO
          RMS gradient        0.0029330958            0.0001000000      NO
          MAX gradient        0.0127330186            0.0003000000      NO
          RMS step            0.0594467620            0.0020000000      NO
          MAX step            0.2679733717            0.0040000000      NO
          -------------------------------------------------------------------------
          ........................................................
          Max(Bonds)      0.1418      Max(Angles)    1.15
          Max(Dihed)        6.11      Max(Improp)    0.00
          ---------------------------------------------------------------------

Geometry step timings:
Preparation and reading OPT file:      0.000 s ( 1.622 %)
Internal coordinates            :      0.000 s ( 1.229 %)
B/P matrices and projection     :      0.001 s (29.499 %)
Hessian update/contruction      :      0.000 s (11.849 %)
Making the step                 :      0.001 s (38.004 %)
Converting the step to Cartesian:      0.000 s ( 9.735 %)
Storing new data                :      0.000 s ( 1.622 %)
Checking convergence            :      0.000 s ( 2.802 %)
GOAT stuff                      :      0.000 s ( 0.049 %)
Final printing                  :      0.000 s ( 3.589 %)
Total time                      :      0.002 s

Time for energy+gradient        :      0.023 s
Time for complete geometry iter :      0.026 s

         *************************************************************
         *                GEOMETRY OPTIMIZATION CYCLE   9            *
         *************************************************************
---------------------------------
CARTESIAN COORDINATES (ANGSTROEM)
---------------------------------
  H    -1.649474    0.420530   -0.750080
  C    -2.717275    2.114811    0.038618
  H    -2.547856    2.944023   -0.646288
  H    -4.875029    1.198339    0.633964
  O     0.375560    2.661283    0.559521
  C    -1.514295    1.170104    0.042926
  H    -2.129555    0.649874    1.953403
  S    -4.228028    1.248820   -0.530752
  N    -1.325220    0.537685    1.343424
  H    -1.028091   -0.429288    1.257524
  C    -0.281669    1.996202   -0.381278
  H    -2.888353    2.509033    1.038667
  O     0.064510    2.053278   -1.524691
  H    -0.021960    2.671843    1.459517

----------------------------
CARTESIAN COORDINATES (A.U.)
----------------------------
  NO LB    ZA    FRAG    MASS        X           Y           Z
   0 H   1.0000    1     1.008   -3.117055    0.794686   -1.417445
   1 C   6.0000    1    12.011   -5.134905    3.996413    0.072978
   2 H   1.0000    1     1.008   -4.814751    5.563396   -1.221308
   3 H   1.0000    1     1.008   -9.212469    2.264532    1.198017
   4 O   8.0000    1    15.999    0.709706    5.029095    1.057342
   5 C   6.0000    1    12.011   -2.861602    2.211176    0.081118
   6 H   1.0000    1     1.008   -4.024276    1.228085    3.691396
   7 S  16.0000    1    32.060   -7.989815    2.359927   -1.002976
   8 N   7.0000    1    14.007   -2.504304    1.016077    2.538704
   9 H   1.0000    1     1.008   -1.942810   -0.811237    2.376375
  10 C   6.0000    1    12.011   -0.532277    3.772275   -0.720511
  11 H   1.0000    1     1.008   -5.458196    4.741385    1.962797
  12 O   8.0000    1    15.999    0.121905    3.880134   -2.881249
  13 H   1.0000    1     1.008   -0.041498    5.049051    2.758088

------------------------------------------------------------------------------
                         ORCA GEOMETRY RELAXATION STEP
------------------------------------------------------------------------------

Reading the OPT-File                    .... done

---------------------------------------------
FINAL SINGLE POINT ENERGY       -24.266219228540
---------------------------------------------

Getting information on internals        .... done
Copying old internal coords+grads       .... done
Making the new internal coordinates     .... (2022 redundants) done
Validating the new internal coordinates .... (2022 redundants) done
Calculating the B-matrix                .... done
Calculating the G,G- and P matrices     .... done
Transforming gradient to internals      .... done
Projecting the internal gradient        .... done
Number of atoms                         ....  14
Number of internal coordinates          ....  57
Current Energy                          ....   -24.266219229 Eh
Current gradient norm                   ....     0.028671178 Eh/bohr
Maximum allowed component of the step   ....  0.300
Current trust radius                    ....  0.300
Updating the Hessian (BFGS)             .... done
Making uphill step                      .... done
Uphill step size                        .... 0.298417
Converting the step to Cartesian space:
 Initial RMS(Int)=    0.0395262479
Transforming coordinates:
 Iter   0:  RMS(Cart)=    0.0543270794 RMS(Int)=    0.0395211090
 Iter   5:  RMS(Cart)=    0.0000000185 RMS(Int)=    0.0000000164
Imposing constraints:
 Iter   0:  RMS(Cart)=    0.0002526817 RMS(Int)=    0.0000167537
CONVERGED
done
Storing new coordinates                 .... done
Current trust radius                    ....     0.3000
Energy difference                       ....     0.9361 kcal/mol
Maximum difference                      ....     0.4200 kcal/mol
New trust radius                        ....     0.3000

                                .--------------------.
          ----------------------|Geometry convergence|-------------------------
          Item                value                   Tolerance       Converged
          ---------------------------------------------------------------------
          Energy change       0.0014917565            0.0000050000      NO
          RMS gradient        0.0028434117            0.0001000000      NO
          MAX gradient        0.0132996709            0.0003000000      NO
          RMS step            0.0395262479            0.0020000000      NO
          MAX step            0.1897876591            0.0040000000      NO
          -------------------------------------------------------------------------
          ........................................................
          Max(Bonds)      0.1004      Max(Angles)    1.74
          Max(Dihed)        4.21      Max(Improp)    0.00
          ---------------------------------------------------------------------

Geometry step timings:
Preparation and reading OPT file:      0.000 s ( 1.868 %)
Internal coordinates            :      0.000 s ( 1.588 %)
B/P matrices and projection     :      0.001 s (31.948 %)
Hessian update/contruction      :      0.000 s (15.413 %)
Making the step                 :      0.001 s (36.245 %)
Converting the step to Cartesian:      0.000 s ( 6.586 %)
Storing new data                :      0.000 s ( 1.401 %)
Checking convergence            :      0.000 s ( 1.962 %)
GOAT stuff                      :      0.000 s ( 0.047 %)
Final printing                  :      0.000 s ( 2.943 %)
Total time                      :      0.002 s

Time for energy+gradient        :      0.030 s
Time for complete geometry iter :      0.033 s

         *************************************************************
         *                GEOMETRY OPTIMIZATION CYCLE  10            *
         *************************************************************
---------------------------------
CARTESIAN COORDINATES (ANGSTROEM)
---------------------------------
  H    -1.652865    0.402203   -0.736925
  C    -2.712887    2.096713    0.059400
  H    -2.530526    2.954921   -0.585281
  H    -4.911005    1.246473    0.570929
  O     0.348330    2.701353    0.533221
  C    -1.508141    1.154278    0.052018
  H    -2.067102    0.652531    1.984736
  S    -4.227342    1.282620   -0.573194
  N    -1.285038    0.526024    1.349138
  H    -1.044795   -0.456013    1.256459
  C    -0.288791    1.991476   -0.388481
  H    -2.901895    2.455910    1.069366
  O     0.060335    2.024563   -1.531944
  H    -0.045011    2.713483    1.435032

----------------------------
CARTESIAN COORDINATES (A.U.)
----------------------------
  NO LB    ZA    FRAG    MASS        X           Y           Z
   0 H   1.0000    1     1.008   -3.123463    0.760053   -1.392586
   1 C   6.0000    1    12.011   -5.126614    3.962213    0.112251
   2 H   1.0000    1     1.008   -4.782002    5.583992   -1.106022
   3 H   1.0000    1     1.008   -9.280455    2.355494    1.078900
   4 O   8.0000    1    15.999    0.658249    5.104817    1.007642
   5 C   6.0000    1    12.011   -2.849974    2.181270    0.098299
   6 H   1.0000    1     1.008   -3.906258    1.233105    3.750608
   7 S  16.0000    1    32.060   -7.988519    2.423800   -1.083181
   8 N   7.0000    1    14.007   -2.428369    0.994041    2.549501
   9 H   1.0000    1     1.008   -1.974377   -0.861739    2.374364
  10 C   6.0000    1    12.011   -0.545736    3.763344   -0.734123
  11 H   1.0000    1     1.008   -5.483788    4.640998    2.020809
  12 O   8.0000    1    15.999    0.114016    3.825870   -2.894955
  13 H   1.0000    1     1.008   -0.085058    5.127739    2.711817

------------------------------------------------------------------------------
                         ORCA GEOMETRY RELAXATION STEP
------------------------------------------------------------------------------

Reading the OPT-File                    .... done

---------------------------------------------
FINAL SINGLE POINT ENERGY       -24.265741943690
---------------------------------------------

Getting information on internals        .... done
Copying old internal coords+grads       .... done
Making the new internal coordinates     .... (2022 redundants) done
Validating the new internal coordinates .... (2022 redundants) done
Calculating the B-matrix                .... done
Calculating the G,G- and P matrices     .... done
Transforming gradient to internals      .... done
Projecting the internal gradient        .... done
Number of atoms                         ....  14
Number of internal coordinates          ....  57
Current Energy                          ....   -24.265741944 Eh
Current gradient norm                   ....     0.026672196 Eh/bohr
Maximum allowed component of the step   ....  0.300
Current trust radius                    ....  0.300
Updating the Hessian (BFGS)             .... done
Making uphill step                      .... done
Uphill step size                        .... 0.298348
Converting the step to Cartesian space:
 Initial RMS(Int)=    0.0395171711
Transforming coordinates:
 Iter   0:  RMS(Cart)=    0.0524300271 RMS(Int)=    0.0394710703
 Iter   5:  RMS(Cart)=    0.0000000218 RMS(Int)=    0.0000000186
Imposing constraints:
 Iter   0:  RMS(Cart)=    0.0002301475 RMS(Int)=    0.0000137750
CONVERGED
done
Storing new coordinates                 .... done
Current trust radius                    ....     0.3000
Energy difference                       ....     0.2995 kcal/mol
Maximum difference                      ....     0.4200 kcal/mol
New trust radius                        ....     0.4500

                                .--------------------.
          ----------------------|Geometry convergence|-------------------------
          Item                value                   Tolerance       Converged
          ---------------------------------------------------------------------
          Energy change       0.0004772848            0.0000050000      NO
          RMS gradient        0.0026255925            0.0001000000      NO
          MAX gradient        0.0133772860            0.0003000000      NO
          RMS step            0.0395171711            0.0020000000      NO
          MAX step            0.1872600684            0.0040000000      NO
          -------------------------------------------------------------------------
          ........................................................
          Max(Bonds)      0.0991      Max(Angles)    1.87
          Max(Dihed)        4.24      Max(Improp)    0.00
          ---------------------------------------------------------------------

Geometry step timings:
Preparation and reading OPT file:      0.000 s ( 1.828 %)
Internal coordinates            :      0.000 s ( 1.587 %)
B/P matrices and projection     :      0.001 s (31.506 %)
Hessian update/contruction      :      0.000 s (13.035 %)
Making the step                 :      0.001 s (38.721 %)
Converting the step to Cartesian:      0.000 s ( 7.167 %)
Storing new data                :      0.000 s ( 1.299 %)
Checking convergence            :      0.000 s ( 2.068 %)
GOAT stuff                      :      0.000 s ( 0.048 %)
Final printing                  :      0.000 s ( 2.742 %)
Total time                      :      0.002 s

Time for energy+gradient        :      0.031 s
Time for complete geometry iter :      0.034 s

         *************************************************************
         *                GEOMETRY OPTIMIZATION CYCLE  11            *
         *************************************************************
---------------------------------
CARTESIAN COORDINATES (ANGSTROEM)
---------------------------------
  H    -1.656367    0.391680   -0.725067
  C    -2.711880    2.082729    0.080562
  H    -2.520088    2.968574   -0.522667
  H    -4.938027    1.287800    0.509863
  O     0.324280    2.734749    0.506903
  C    -1.503596    1.145006    0.061160
  H    -2.000787    0.659032    2.016252
  S    -4.222999    1.315281   -0.615170
  N    -1.245014    0.518347    1.352451
  H    -1.062928   -0.476058    1.259149
  C    -0.293719    1.986358   -0.397184
  H    -2.928482    2.401391    1.098558
  O     0.061970    1.990744   -1.539093
  H    -0.069098    2.740902    1.408758

----------------------------
CARTESIAN COORDINATES (A.U.)
----------------------------
  NO LB    ZA    FRAG    MASS        X           Y           Z
   0 H   1.0000    1     1.008   -3.130081    0.740168   -1.370178
   1 C   6.0000    1    12.011   -5.124710    3.935787    0.152241
   2 H   1.0000    1     1.008   -4.762276    5.609792   -0.987698
   3 H   1.0000    1     1.008   -9.331520    2.433589    0.963501
   4 O   8.0000    1    15.999    0.612801    5.167927    0.957907
   5 C   6.0000    1    12.011   -2.841384    2.163748    0.115575
   6 H   1.0000    1     1.008   -3.780939    1.245389    3.810164
   7 S  16.0000    1    32.060   -7.980311    2.485522   -1.162503
   8 N   7.0000    1    14.007   -2.352736    0.979534    2.555763
   9 H   1.0000    1     1.008   -2.008644   -0.899619    2.379447
  10 C   6.0000    1    12.011   -0.555048    3.753673   -0.750568
  11 H   1.0000    1     1.008   -5.534030    4.537972    2.075973
  12 O   8.0000    1    15.999    0.117106    3.761960   -2.908465
  13 H   1.0000    1     1.008   -0.130575    5.179554    2.662166

------------------------------------------------------------------------------
                         ORCA GEOMETRY RELAXATION STEP
------------------------------------------------------------------------------

Reading the OPT-File                    .... done

---------------------------------------------
FINAL SINGLE POINT ENERGY       -24.265276410400
---------------------------------------------

Getting information on internals        .... done
Copying old internal coords+grads       .... done
Making the new internal coordinates     .... (2022 redundants) done
Validating the new internal coordinates .... (2022 redundants) done
Calculating the B-matrix                .... done
Calculating the G,G- and P matrices     .... done
Transforming gradient to internals      .... done
Projecting the internal gradient        .... done
Number of atoms                         ....  14
Number of internal coordinates          ....  57
Current Energy                          ....   -24.265276410 Eh
Current gradient norm                   ....     0.025336856 Eh/bohr
Maximum allowed component of the step   ....  0.300
Current trust radius                    ....  0.450
Updating the Hessian (BFGS)             .... done
Making uphill step                      .... done
Uphill step size                        .... 0.448786
Converting the step to Cartesian space:
 Initial RMS(Int)=    0.0594431491
Transforming coordinates:
 Iter   0:  RMS(Cart)=    0.0801674199 RMS(Int)=    0.0592866668
 Iter   5:  RMS(Cart)=    0.0000002414 RMS(Int)=    0.0000002078
Imposing constraints:
 Iter   0:  RMS(Cart)=    0.0002923128 RMS(Int)=    0.0000239950
 Iter   5:  RMS(Cart)=    0.0000000267 RMS(Int)=    0.0000000027
CONVERGED
done
Storing new coordinates                 .... done
Current trust radius                    ....     0.4500
Energy difference                       ....     0.2921 kcal/mol
Maximum difference                      ....     0.4200 kcal/mol
New trust radius                        ....     0.6750

                                .--------------------.
          ----------------------|Geometry convergence|-------------------------
          Item                value                   Tolerance       Converged
          ---------------------------------------------------------------------
          Energy change       0.0004655333            0.0000050000      NO
          RMS gradient        0.0024801789            0.0001000000      NO
          MAX gradient        0.0133237549            0.0003000000      NO
          RMS step            0.0594431491            0.0020000000      NO
          MAX step            0.2772946612            0.0040000000      NO
          -------------------------------------------------------------------------
          ........................................................
          Max(Bonds)      0.1467      Max(Angles)    1.96
          Max(Dihed)        6.08      Max(Improp)    0.00
          ---------------------------------------------------------------------

Geometry step timings:
Preparation and reading OPT file:      0.000 s ( 2.036 %)
Internal coordinates            :      0.000 s ( 1.589 %)
B/P matrices and projection     :      0.001 s (29.940 %)
Hessian update/contruction      :      0.000 s (14.201 %)
Making the step                 :      0.001 s (37.388 %)
Converting the step to Cartesian:      0.000 s ( 8.143 %)
Storing new data                :      0.000 s ( 1.291 %)
Checking convergence            :      0.000 s ( 2.582 %)
GOAT stuff                      :      0.000 s ( 0.050 %)
Final printing                  :      0.000 s ( 2.781 %)
Total time                      :      0.002 s

Time for energy+gradient        :      0.025 s
Time for complete geometry iter :      0.028 s

         *************************************************************
         *                GEOMETRY OPTIMIZATION CYCLE  12            *
         *************************************************************
---------------------------------
CARTESIAN COORDINATES (ANGSTROEM)
---------------------------------
  H    -1.667115    0.377003   -0.706278
  C    -2.711453    2.065701    0.115328
  H    -2.504159    2.991625   -0.418605
  H    -4.974800    1.338593    0.408460
  O     0.285095    2.777056    0.465247
  C    -1.500152    1.132552    0.074914
  H    -1.894482    0.682063    2.064709
  S    -4.205510    1.364709   -0.680224
  N    -1.188235    0.508567    1.355676
  H    -1.091514   -0.498234    1.267936
  C    -0.302644    1.975124   -0.412734
  H    -2.969428    2.317582    1.142354
  O     0.059575    1.943615   -1.552162
  H    -0.101914    2.770579    1.369852

----------------------------
CARTESIAN COORDINATES (A.U.)
----------------------------
  NO LB    ZA    FRAG    MASS        X           Y           Z
   0 H   1.0000    1     1.008   -3.150390    0.712432   -1.334672
   1 C   6.0000    1    12.011   -5.123903    3.903609    0.217938
   2 H   1.0000    1     1.008   -4.732174    5.653352   -0.791049
   3 H   1.0000    1     1.008   -9.401010    2.529574    0.771878
   4 O   8.0000    1    15.999    0.538752    5.247876    0.879190
   5 C   6.0000    1    12.011   -2.834876    2.140213    0.141568
   6 H   1.0000    1     1.008   -3.580053    1.288912    3.901735
   7 S  16.0000    1    32.060   -7.947263    2.578926   -1.285436
   8 N   7.0000    1    14.007   -2.245438    0.961052    2.561856
   9 H   1.0000    1     1.008   -2.062662   -0.941526    2.396052
  10 C   6.0000    1    12.011   -0.571915    3.732444   -0.779955
  11 H   1.0000    1     1.008   -5.611405    4.379595    2.158736
  12 O   8.0000    1    15.999    0.112581    3.672901   -2.933161
  13 H   1.0000    1     1.008   -0.192589    5.235635    2.588644

------------------------------------------------------------------------------
                         ORCA GEOMETRY RELAXATION STEP
------------------------------------------------------------------------------

Reading the OPT-File                    .... done

---------------------------------------------
FINAL SINGLE POINT ENERGY       -24.264294238980
---------------------------------------------

Getting information on internals        .... done
Copying old internal coords+grads       .... done
Making the new internal coordinates     .... (2022 redundants) done
Validating the new internal coordinates .... (2022 redundants) done
Calculating the B-matrix                .... done
Calculating the G,G- and P matrices     .... done
Transforming gradient to internals      .... done
Projecting the internal gradient        .... done
Number of atoms                         ....  14
Number of internal coordinates          ....  57
Current Energy                          ....   -24.264294239 Eh
Current gradient norm                   ....     0.025111649 Eh/bohr
Maximum allowed component of the step   ....  0.300
Current trust radius                    ....  0.675
Updating the Hessian (BFGS)             .... done
Making uphill step                      .... done
Uphill step size                        .... 0.615830
Converting the step to Cartesian space:
 Initial RMS(Int)=    0.0815686665
Transforming coordinates:
 Iter   0:  RMS(Cart)=    0.1148553446 RMS(Int)=    0.8252884253
 Iter   5:  RMS(Cart)=    0.0000022257 RMS(Int)=    0.0000018444
Imposing constraints:
 Iter   0:  RMS(Cart)=    0.0021003793 RMS(Int)=    0.0002541513
 Iter   5:  RMS(Cart)=    0.0000004513 RMS(Int)=    0.0000000521
CONVERGED
done
Storing new coordinates                 .... done
Current trust radius                    ....     0.6750
Energy difference                       ....     0.6163 kcal/mol
Maximum difference                      ....     0.4200 kcal/mol
New trust radius                        ....     0.4500

                                .--------------------.
          ----------------------|Geometry convergence|-------------------------
          Item                value                   Tolerance       Converged
          ---------------------------------------------------------------------
          Energy change       0.0009821714            0.0000050000      NO
          RMS gradient        0.0024725783            0.0001000000      NO
          MAX gradient        0.0132742490            0.0003000000      NO
          RMS step            0.0815686665            0.0020000000      NO
          MAX step            0.3000000000            0.0040000000      NO
          -------------------------------------------------------------------------
          ........................................................
          Max(Bonds)      0.1588      Max(Angles)    2.14
          Max(Dihed)        8.96      Max(Improp)    0.00
          ---------------------------------------------------------------------

Geometry step timings:
Preparation and reading OPT file:      0.000 s ( 2.222 %)
Internal coordinates            :      0.000 s ( 2.222 %)
B/P matrices and projection     :      0.000 s (33.228 %)
Hessian update/contruction      :      0.000 s (11.958 %)
Making the step                 :      0.000 s (37.249 %)
Converting the step to Cartesian:      0.000 s ( 7.302 %)
Storing new data                :      0.000 s ( 1.164 %)
Checking convergence            :      0.000 s ( 2.116 %)
GOAT stuff                      :      0.000 s ( 0.106 %)
Final printing                  :      0.000 s ( 2.328 %)
Total time                      :      0.001 s

Time for energy+gradient        :      0.024 s
Time for complete geometry iter :      0.026 s

         *************************************************************
         *                GEOMETRY OPTIMIZATION CYCLE  13            *
         *************************************************************
---------------------------------
CARTESIAN COORDINATES (ANGSTROEM)
---------------------------------
  H    -1.681293    0.360305   -0.683955
  C    -2.714782    2.042531    0.170674
  H    -2.492928    3.024131   -0.244819
  H    -5.010635    1.392635    0.263493
  O     0.232906    2.824180    0.403223
  C    -1.496753    1.120975    0.088262
  H    -1.753202    0.746705    2.109306
  S    -4.165794    1.433060   -0.767201
  N    -1.118030    0.504603    1.354616
  H    -1.142805   -0.508825    1.299379
  C    -0.316587    1.962238   -0.442057
  H    -3.034985    2.181159    1.201706
  O     0.061428    1.879143   -1.573733
  H    -0.133274    2.783695    1.315582

----------------------------
CARTESIAN COORDINATES (A.U.)
----------------------------
  NO LB    ZA    FRAG    MASS        X           Y           Z
   0 H   1.0000    1     1.008   -3.177183    0.680878   -1.292488
   1 C   6.0000    1    12.011   -5.130194    3.859824    0.322526
   2 H   1.0000    1     1.008   -4.710951    5.714779   -0.462642
   3 H   1.0000    1     1.008   -9.468729    2.631700    0.497929
   4 O   8.0000    1    15.999    0.440128    5.336926    0.761981
   5 C   6.0000    1    12.011   -2.828453    2.118336    0.166790
   6 H   1.0000    1     1.008   -3.313072    1.411069    3.986010
   7 S  16.0000    1    32.060   -7.872210    2.708092   -1.449800
   8 N   7.0000    1    14.007   -2.112770    0.953561    2.559853
   9 H   1.0000    1     1.008   -2.159589   -0.961541    2.455471
  10 C   6.0000    1    12.011   -0.598263    3.708093   -0.835367
  11 H   1.0000    1     1.008   -5.735291    4.121794    2.270896
  12 O   8.0000    1    15.999    0.116083    3.551066   -2.973925
  13 H   1.0000    1     1.008   -0.251852    5.260421    2.486090

------------------------------------------------------------------------------
                         ORCA GEOMETRY RELAXATION STEP
------------------------------------------------------------------------------

Reading the OPT-File                    .... done

---------------------------------------------
FINAL SINGLE POINT ENERGY       -24.263123318340
---------------------------------------------

Getting information on internals        .... done
Copying old internal coords+grads       .... done
Making the new internal coordinates     .... (2022 redundants) done
Validating the new internal coordinates .... (2022 redundants) done
Calculating the B-matrix                .... done
Calculating the G,G- and P matrices     .... done
Transforming gradient to internals      .... done
Projecting the internal gradient        .... done
Number of atoms                         ....  14
Number of internal coordinates          ....  57
Current Energy                          ....   -24.263123318 Eh
Current gradient norm                   ....     0.026353998 Eh/bohr
Maximum allowed component of the step   ....  0.300
Current trust radius                    ....  0.450
Updating the Hessian (BFGS)             .... done
Making uphill step                      .... done
Uphill step size                        .... 0.448757
Converting the step to Cartesian space:
 Initial RMS(Int)=    0.0594393471
Transforming coordinates:
 Iter   0:  RMS(Cart)=    0.0840706136 RMS(Int)=    0.0592308421
 Iter   5:  RMS(Cart)=    0.0000002352 RMS(Int)=    0.0000001708
Imposing constraints:
 Iter   0:  RMS(Cart)=    0.0009778980 RMS(Int)=    0.0001055148
 Iter   5:  RMS(Cart)=    0.0000002385 RMS(Int)=    0.0000000301
CONVERGED
done
Storing new coordinates                 .... done
Current trust radius                    ....     0.4500
Energy difference                       ....     0.7348 kcal/mol
Maximum difference                      ....     0.4200 kcal/mol
New trust radius                        ....     0.3000

                                .--------------------.
          ----------------------|Geometry convergence|-------------------------
          Item                value                   Tolerance       Converged
          ---------------------------------------------------------------------
          Energy change       0.0011709206            0.0000050000      NO
          RMS gradient        0.0025215286            0.0001000000      NO
          MAX gradient        0.0130639427            0.0003000000      NO
          RMS step            0.0594393471            0.0020000000      NO
          MAX step            0.2148317045            0.0040000000      NO
          -------------------------------------------------------------------------
          ........................................................
          Max(Bonds)      0.1137      Max(Angles)    1.52
          Max(Dihed)        6.92      Max(Improp)    0.00
          ---------------------------------------------------------------------

Geometry step timings:
Preparation and reading OPT file:      0.000 s ( 1.671 %)
Internal coordinates            :      0.000 s ( 1.385 %)
B/P matrices and projection     :      0.001 s (30.114 %)
Hessian update/contruction      :      0.000 s (15.770 %)
Making the step                 :      0.001 s (36.349 %)
Converting the step to Cartesian:      0.000 s ( 8.313 %)
Storing new data                :      0.000 s ( 1.385 %)
Checking convergence            :      0.000 s ( 2.323 %)
GOAT stuff                      :      0.000 s ( 0.041 %)
Final printing                  :      0.000 s ( 2.649 %)
Total time                      :      0.002 s

Time for energy+gradient        :      0.033 s
Time for complete geometry iter :      0.036 s

         *************************************************************
         *                GEOMETRY OPTIMIZATION CYCLE  14            *
         *************************************************************
---------------------------------
CARTESIAN COORDINATES (ANGSTROEM)
---------------------------------
  H    -1.695599    0.349926   -0.661016
  C    -2.725353    2.030317    0.208728
  H    -2.495585    3.043108   -0.118156
  H    -5.033013    1.419421    0.145255
  O     0.201922    2.838304    0.365782
  C    -1.501217    1.119683    0.099696
  H    -1.646295    0.812047    2.138852
  S    -4.128439    1.479137   -0.832447
  N    -1.070784    0.516540    1.355859
  H    -1.163456   -0.494236    1.334751
  C    -0.332868    1.954326   -0.466064
  H    -3.093909    2.084143    1.231492
  O     0.040776    1.852849   -1.597693
  H    -0.122915    2.740971    1.289435

----------------------------
CARTESIAN COORDINATES (A.U.)
----------------------------
  NO LB    ZA    FRAG    MASS        X           Y           Z
[...]

                                .--------------------.
          ----------------------|Geometry convergence|-------------------------
          Item                value                   Tolerance       Converged
          ---------------------------------------------------------------------
          Energy change      -0.0000023421            0.0000050000      YES
          RMS gradient        0.0000311762            0.0001000000      YES
          MAX gradient        0.0001075754            0.0003000000      YES
          RMS step            0.0013007162            0.0020000000      YES
          MAX step            0.0040660688            0.0040000000      NO
          -------------------------------------------------------------------------
          ........................................................
          Max(Bonds)      0.0007      Max(Angles)    0.03
          Max(Dihed)        0.23      Max(Improp)    0.00
          ---------------------------------------------------------------------

Geometry step timings:
Preparation and reading OPT file:      0.000 s ( 2.317 %)
Internal coordinates            :      0.000 s ( 1.955 %)
B/P matrices and projection     :      0.001 s (38.450 %)
Hessian update/contruction      :      0.000 s (16.293 %)
Making the step                 :      0.000 s (28.602 %)
Converting the step to Cartesian:      0.000 s ( 3.765 %)
Storing new data                :      0.000 s ( 1.955 %)
Checking convergence            :      0.000 s ( 3.041 %)
GOAT stuff                      :      0.000 s ( 0.072 %)
Final printing                  :      0.000 s ( 3.476 %)
Total time                      :      0.001 s

Time for energy+gradient        :      0.029 s
Time for complete geometry iter :      0.031 s

         *************************************************************
         *                GEOMETRY OPTIMIZATION CYCLE 689            *
         *************************************************************
---------------------------------
CARTESIAN COORDINATES (ANGSTROEM)
---------------------------------
  H    -0.756811    1.266229    1.666462
  C    -2.607333    0.844038    0.621421
  H    -3.219402    1.283832   -0.167769
  H    -3.279332   -1.331004   -0.015947
  O    -1.248344    2.472784   -1.341475
  C    -1.389740    1.737054    0.906480
  H    -2.291888    3.546156    0.651885
  S    -2.053365   -0.814200    0.066172
  N    -1.747599    3.065680    1.360232
  H    -2.292535    3.019999    2.213511
  C    -0.556882    1.875130   -0.364429
  H    -3.199449    0.718532    1.529408
  O     0.573355    1.505259   -0.495724
  H    -0.697410    2.557047   -2.135752

----------------------------
CARTESIAN COORDINATES (A.U.)
----------------------------
  NO LB    ZA    FRAG    MASS        X           Y           Z
   0 H   1.0000    1     1.008   -1.430166    2.392825    3.149156
   1 C   6.0000    1    12.011   -4.927145    1.595001    1.174315
   2 H   1.0000    1     1.008   -6.083787    2.426092   -0.317037
   3 H   1.0000    1     1.008   -6.197040   -2.515233   -0.030136
   4 O   8.0000    1    15.999   -2.359029    4.672884   -2.535019
   5 C   6.0000    1    12.011   -2.626229    3.282557    1.712999
   6 H   1.0000    1     1.008   -4.331041    6.701263    1.231884
   7 S  16.0000    1    32.060   -3.880297   -1.538616    0.125047
   8 N   7.0000    1    14.007   -3.302484    5.793296    2.570465
   9 H   1.0000    1     1.008   -4.332264    5.706971    4.182929
  10 C   6.0000    1    12.011   -1.052355    3.543481   -0.688671
  11 H   1.0000    1     1.008   -6.046082    1.357829    2.890162
  12 O   8.0000    1    15.999    1.083485    2.844527   -0.936782
  13 H   1.0000    1     1.008   -1.317914    4.832119   -4.035987

------------------------------------------------------------------------------
                         ORCA GEOMETRY RELAXATION STEP
------------------------------------------------------------------------------

Reading the OPT-File                    .... done

---------------------------------------------
FINAL SINGLE POINT ENERGY       -24.279005214320
---------------------------------------------

Getting information on internals        .... done
Copying old internal coords+grads       .... done
Making the new internal coordinates     .... (2022 redundants) done
Validating the new internal coordinates .... (2022 redundants) done
Calculating the B-matrix                .... done
Calculating the G,G- and P matrices     .... done
Transforming gradient to internals      .... done
Projecting the internal gradient        .... done
Number of atoms                         ....  14
Number of internal coordinates          ....  57
Current Energy                          ....   -24.279005214 Eh
Current gradient norm                   ....     0.000279824 Eh/bohr
Maximum allowed component of the step   ....  0.300
Current trust radius                    ....  0.467
Updating the Hessian (BFGS)             .... done
Forming the augmented Hessian           .... done
Diagonalizing the augmented Hessian     .... done
Last element of RFO vector              ....  0.999900705
Lowest eigenvalues of augmented Hessian:
 -0.000000760  0.001571716  0.002600910  0.009478371  0.014699595
Length of the computed step             ....  0.014093215
The final length of the internal step   ....  0.014093215
Converting the step to Cartesian space:
 Initial RMS(Int)=    0.0018666919
Transforming coordinates:
 Iter   0:  RMS(Cart)=    0.0026520383 RMS(Int)=    0.0018667036
done
Storing new coordinates                 .... done
The predicted energy change is          ....    -0.000000380
Previously predicted energy change      ....    -0.000000312
Actually observed energy change         ....    -0.000000482
Ratio of predicted to observed change   ....     1.545730143
New trust radius                        ....     0.311111111

                                .--------------------.
          ----------------------|Geometry convergence|-------------------------
          Item                value                   Tolerance       Converged
          ---------------------------------------------------------------------
          Energy change      -0.0000004818            0.0000050000      YES
          RMS gradient        0.0000302293            0.0001000000      YES
          MAX gradient        0.0001064039            0.0003000000      YES
          RMS step            0.0018666919            0.0020000000      YES
          MAX step            0.0053218883            0.0040000000      NO
          -------------------------------------------------------------------------
          ........................................................
          Max(Bonds)      0.0011      Max(Angles)    0.04
          Max(Dihed)        0.30      Max(Improp)    0.00
          ---------------------------------------------------------------------

Geometry step timings:
Preparation and reading OPT file:      0.000 s ( 2.367 %)
Internal coordinates            :      0.000 s ( 1.841 %)
B/P matrices and projection     :      0.001 s (37.410 %)
Hessian update/contruction      :      0.000 s (20.776 %)
Making the step                 :      0.000 s (25.773 %)
Converting the step to Cartesian:      0.000 s ( 3.682 %)
Storing new data                :      0.000 s ( 1.972 %)
Checking convergence            :      0.000 s ( 2.696 %)
GOAT stuff                      :      0.000 s ( 0.131 %)
Final printing                  :      0.000 s ( 3.287 %)
Total time                      :      0.002 s

Time for energy+gradient        :      0.029 s
Time for complete geometry iter :      0.032 s

         *************************************************************
         *                GEOMETRY OPTIMIZATION CYCLE 690            *
         *************************************************************
---------------------------------
CARTESIAN COORDINATES (ANGSTROEM)
---------------------------------
  H    -0.756411    1.266795    1.666624
  C    -2.606890    0.843704    0.622048
  H    -3.219005    1.283240   -0.167323
  H    -3.278799   -1.331643   -0.015360
  O    -1.247543    2.476373   -1.340084
  C    -1.389561    1.737361    0.906592
  H    -2.289885    3.547069    0.650454
  S    -2.053025   -0.814485    0.066755
  N    -1.748114    3.065787    1.360175
  H    -2.295776    3.019613    2.211684
  C    -0.557271    1.874628   -0.364620
  H    -3.198673    0.718025    1.530181
  O     0.571294    1.500401   -0.497900
  H    -0.697076    2.559666   -2.134751

----------------------------
CARTESIAN COORDINATES (A.U.)
----------------------------
  NO LB    ZA    FRAG    MASS        X           Y           Z
   0 H   1.0000    1     1.008   -1.429410    2.393896    3.149464
   1 C   6.0000    1    12.011   -4.926309    1.594369    1.175500
   2 H   1.0000    1     1.008   -6.083037    2.424972   -0.316194
   3 H   1.0000    1     1.008   -6.196033   -2.516441   -0.029027
   4 O   8.0000    1    15.999   -2.357515    4.679667   -2.532392
   5 C   6.0000    1    12.011   -2.625890    3.283137    1.713210
   6 H   1.0000    1     1.008   -4.327255    6.702990    1.229180
   7 S  16.0000    1    32.060   -3.879655   -1.539154    0.126148
   8 N   7.0000    1    14.007   -3.303457    5.793498    2.570358
   9 H   1.0000    1     1.008   -4.338388    5.706242    4.179477
  10 C   6.0000    1    12.011   -1.053089    3.542533   -0.689032
  11 H   1.0000    1     1.008   -6.044616    1.356871    2.891623
  12 O   8.0000    1    15.999    1.079590    2.835346   -0.940895
  13 H   1.0000    1     1.008   -1.317283    4.837068   -4.034096

------------------------------------------------------------------------------
                         ORCA GEOMETRY RELAXATION STEP
------------------------------------------------------------------------------

Reading the OPT-File                    .... done

---------------------------------------------
FINAL SINGLE POINT ENERGY       -24.279005693900
---------------------------------------------

Getting information on internals        .... done
Copying old internal coords+grads       .... done
Making the new internal coordinates     .... (2022 redundants) done
Validating the new internal coordinates .... (2022 redundants) done
Calculating the B-matrix                .... done
Calculating the G,G- and P matrices     .... done
Transforming gradient to internals      .... done
Projecting the internal gradient        .... done
Number of atoms                         ....  14
Number of internal coordinates          ....  57
Current Energy                          ....   -24.279005694 Eh
Current gradient norm                   ....     0.000173794 Eh/bohr
Maximum allowed component of the step   ....  0.300
Current trust radius                    ....  0.311
Updating the Hessian (BFGS)             .... done
Forming the augmented Hessian           .... done
Diagonalizing the augmented Hessian     .... done
Last element of RFO vector              ....  0.999986778
Lowest eigenvalues of augmented Hessian:
 -0.000000181  0.001515681  0.002507435  0.009442423  0.013989837
Length of the computed step             ....  0.005142362
The final length of the internal step   ....  0.005142362
Converting the step to Cartesian space:
 Initial RMS(Int)=    0.0006811225
Transforming coordinates:
 Iter   0:  RMS(Cart)=    0.0009294392 RMS(Int)=    0.0006811314
done
Storing new coordinates                 .... done
The predicted energy change is          ....    -0.000000091
Previously predicted energy change      ....    -0.000000380
Actually observed energy change         ....    -0.000000480
Ratio of predicted to observed change   ....     1.261121168
New trust radius                        ....     0.311111111

                                .--------------------.
          ----------------------|Geometry convergence|-------------------------
          Item                value                   Tolerance       Converged
          ---------------------------------------------------------------------
          Energy change      -0.0000004796            0.0000050000      YES
          RMS gradient        0.0000183142            0.0001000000      YES
          MAX gradient        0.0000726954            0.0003000000      YES
          RMS step            0.0006811225            0.0020000000      YES
          MAX step            0.0016248909            0.0040000000      YES
          -------------------------------------------------------------------------
          ........................................................
          Max(Bonds)      0.0004      Max(Angles)    0.03
          Max(Dihed)        0.09      Max(Improp)    0.00
          ---------------------------------------------------------------------

			-----------------------
			     GOAT ITER  20       
			-----------------------

	Minimum found after 16 optimization iterations! E = -24.279006

	Current MaxEn         : 42.00 kcal/mol
	Current Temperature   : 2903.97 K
	Current UphillGradComp: 0.92

	Difference from last minimum  : 1.92 kcal/mol
	Probability of acceptance     : 71.68 %

	Comparing to previous structures  .... done
	Checking topology                 .... done

	Current minimum different from previous ones!
	Minimum accepted.

	Comparing to the previous accepted final ensemble       .... done
	Writing to final ensemble         .... done

	New MaxEn         : 42.00 kcal/mol
	New Temperature   : 2903.97 K
	New UphillGradComp: 1.48

Geometry step timings:
Preparation and reading OPT file:      0.000 s ( 1.617 %)
Internal coordinates            :      0.000 s ( 1.250 %)
B/P matrices and projection     :      0.001 s (25.285 %)
Hessian update/contruction      :      0.000 s (11.724 %)
Making the step                 :      0.000 s (14.774 %)
Converting the step to Cartesian:      0.000 s ( 2.095 %)
Storing new data                :      0.000 s ( 1.176 %)
Checking convergence            :      0.000 s ( 1.433 %)
GOAT stuff                      :      0.001 s (37.339 %)
Final printing                  :      0.000 s ( 3.308 %)
Total time                      :      0.003 s

Time for energy+gradient        :      0.024 s
Time for complete geometry iter :      0.028 s

         *************************************************************
         *                GEOMETRY OPTIMIZATION CYCLE 691            *
         *************************************************************
---------------------------------
CARTESIAN COORDINATES (ANGSTROEM)
---------------------------------
  H    -0.756255    1.266871    1.666608
  C    -2.606809    0.843581    0.622071
  H    -3.218776    1.283565   -0.167175
  H    -3.278769   -1.332226   -0.014332
  O    -1.247278    2.477477   -1.339704
  C    -1.389481    1.737369    0.906573
  H    -2.288971    3.547477    0.650011
  S    -2.053146   -0.814534    0.066609
  N    -1.748286    3.065690    1.360219
  H    -2.297147    3.019270    2.210947
  C    -0.557353    1.874518   -0.364680
  H    -3.198359    0.717664    1.530296
  O     0.570787    1.499225   -0.498526
  H    -0.696892    2.560588   -2.134443

----------------------------
CARTESIAN COORDINATES (A.U.)
----------------------------
  NO LB    ZA    FRAG    MASS        X           Y           Z
   0 H   1.0000    1     1.008   -1.429115    2.394039    3.149434
   1 C   6.0000    1    12.011   -4.926155    1.594136    1.175545
   2 H   1.0000    1     1.008   -6.082605    2.425587   -0.315915
   3 H   1.0000    1     1.008   -6.195975   -2.517542   -0.027084
   4 O   8.0000    1    15.999   -2.357015    4.681754   -2.531674
   5 C   6.0000    1    12.011   -2.625739    3.283152    1.713174
   6 H   1.0000    1     1.008   -4.325528    6.703760    1.228343
   7 S  16.0000    1    32.060   -3.879883   -1.539246    0.125872
   8 N   7.0000    1    14.007   -3.303782    5.793314    2.570441
   9 H   1.0000    1     1.008   -4.340979    5.705593    4.178085
  10 C   6.0000    1    12.011   -1.053245    3.542325   -0.689145
  11 H   1.0000    1     1.008   -6.044022    1.356189    2.891840
  12 O   8.0000    1    15.999    1.078632    2.833125   -0.942077
  13 H   1.0000    1     1.008   -1.316935    4.838810   -4.033513

------------------------------------------------------------------------------
                         ORCA GEOMETRY RELAXATION STEP
------------------------------------------------------------------------------

Reading the OPT-File                    .... done

---------------------------------------------
FINAL SINGLE POINT ENERGY       -24.279005813820
---------------------------------------------

Getting information on internals        .... done
Copying old internal coords+grads       .... done
Making the new internal coordinates     .... (2022 redundants) done
Validating the new internal coordinates .... (2022 redundants) done
Calculating the B-matrix                .... done
Calculating the G,G- and P matrices     .... done
Transforming gradient to internals      .... done
Projecting the internal gradient        .... done
Number of atoms                         ....  14
Number of internal coordinates          ....  57
Current Energy                          ....   -24.279005814 Eh
Current gradient norm                   ....     0.000104525 Eh/bohr
Maximum allowed component of the step   ....  0.300
Current trust radius                    ....  0.300
Updating the Hessian (BFGS)             .... done
Making initial random step              .... (random normal) done
Converting the step to Cartesian space:
 Initial RMS(Int)=    0.0695380937
Transforming coordinates:
 Iter   0:  RMS(Cart)=    0.1011400182 RMS(Int)=    0.0498377071
 Iter   5:  RMS(Cart)=    0.0000003152 RMS(Int)=    0.0000002368
Imposing constraints:
 Iter   0:  RMS(Cart)=    0.0078501144 RMS(Int)=    0.0016022938
 Iter   5:  RMS(Cart)=    0.0000261569 RMS(Int)=    0.0000063735
 Iter  10:  RMS(Cart)=    0.0000001052 RMS(Int)=    0.0000000260
CONVERGED
done
Storing new coordinates                 .... done
Current trust radius                    ....     0.3000
Energy difference                       ....     0.0001 kcal/mol
Maximum difference                      ....     0.4200 kcal/mol
New trust radius                        ....     0.4500

                                .--------------------.
          ----------------------|Geometry convergence|-------------------------
          Item                value                   Tolerance       Converged
          ---------------------------------------------------------------------
          Energy change      -0.0000001199            0.0000050000      YES
          RMS gradient        0.0000093173            0.0001000000      YES
          MAX gradient        0.0000375956            0.0003000000      YES
          RMS step            0.0695380937            0.0020000000      NO
          MAX step            0.1978079907            0.0040000000      NO
          -------------------------------------------------------------------------
          ........................................................
          Max(Bonds)      0.0563      Max(Angles)   11.33
          Max(Dihed)       10.76      Max(Improp)    0.00
          ---------------------------------------------------------------------

Geometry step timings:
Preparation and reading OPT file:      0.000 s ( 2.659 %)
Internal coordinates            :      0.000 s ( 2.099 %)
B/P matrices and projection     :      0.001 s (38.558 %)
Hessian update/contruction      :      0.000 s (21.763 %)
Making the step                 :      0.000 s (10.077 %)
Converting the step to Cartesian:      0.000 s (15.465 %)
Storing new data                :      0.000 s ( 2.239 %)
Checking convergence            :      0.000 s ( 3.359 %)
GOAT stuff                      :      0.000 s ( 0.070 %)
Final printing                  :      0.000 s ( 3.709 %)
Total time                      :      0.001 s

