
                                 *****************
                                 * O   R   C   A *
                                 *****************

                                            #,                                       
                                            ###                                      
                                            ####                                     
                                            #####                                    
                                            ######                                   
                                           ########,                                 
                                     ,,################,,,,,                         
                               ,,#################################,,                 
                          ,,##########################################,,             
                       ,#########################################, ''#####,          
                    ,#############################################,,   '####,        
                  ,##################################################,,,,####,       
                ,###########''''           ''''###############################       
              ,#####''   ,,,,##########,,,,          '''####'''          '####       
            ,##' ,,,,###########################,,,                        '##       
           ' ,,###''''                  '''############,,,                           
         ,,##''                                '''############,,,,        ,,,,,,###''
      ,#''                                            '''#######################'''  
     '                                                          ''''####''''         
             ,#######,   #######,   ,#######,      ##                                
            ,#'     '#,  ##    ##  ,#'     '#,    #''#        ,####,    ,#,          
            ##       ##  ##   ,#'  ##            #'  '#       #'       ,# #          
            ##       ##  #######   ##           ,######,      #####,      #          
            '#,     ,#'  ##    ##  '#,     ,#' ,#      #,     #,   #      #          
             '#######'   ##     ##  '#######'  #'      '#     '####' #    #          



                #########################################################
                #                        -***-                          #
                #          Department of theory and spectroscopy        #
                #                                                       #
                #                      Frank Neese                      #
                #                                                       #
                #     Directorship, Architecture, Infrastructure        #
                #                    SHARK, DRIVERS                     #
                #        Core code/Algorithms in most modules           #
                #                                                       #
                #        Max Planck Institute fuer Kohlenforschung      #
                #                Kaiser Wilhelm Platz 1                 #
                #                 D-45470 Muelheim/Ruhr                 #
                #                      Germany                          #
                #                                                       #
                #                  All rights reserved                  #
                #                        -***-                          #
                #########################################################


                         Program Version 6.1.0  -  RELEASE   -
                                (GIT: $679e74b$)
                          ($2025-06-10 18:02:51 +0200$)


 With contributions from (in alphabetic order):
[Max-Planck-Institut fuer Kohlenforschung]                               
  Daniel Aravena         : Magnetic Suceptibility                        
  Michael Atanasov       : Ab Initio Ligand Field Theory (pilot matlab implementation)
  Alexander A. Auer      : GIAO ZORA, VPT2 properties, NMR spectrum      
  Ute Becker             : All parallelization in ORCA, NUMFREQ, NUMCALC 
  Giovanni Bistoni       : ED, misc. LED, open-shell LED, HFLD           
  Dmytro Bykov           : pre 5.0 version of the SCF Hessian            
  Marcos Casanova-Páez   : Triplet and SCS-CIS(D). UHF-(DLPNO)-IP/EA/STEOM-CCSD. UHF-CVS-IP/STEOM-CCSD   
  Vijay G. Chilkuri      : MRCI spin determinant printing, contributions to CSF-ICE 
  Pauline Colinet        : FMM embedding                                 
  Dipayan Datta          : RHF DLPNO-CCSD density                        
  Achintya Kumar Dutta   : EOM-CC, STEOM-CC                              
  Nicolas Foglia         : Exact transition moments, OPA infrastructure, MCD improvements    
  Dmitry Ganyushin       : Spin-Orbit,Spin-Spin,Magnetic field MRCI      
  Miquel Garcia-Rates    : C-PCM and meta-GGA Hessian, CCSD/C-PCM, Gaussian charge scheme 
  Tiago L. C. Gouveia    : GS-ROHF, GS-ROCIS                             
  Yang Guo               : DLPNO-NEVPT2, F12-NEVPT2, CIM, IAO-localization        
  Andreas Hansen         : Spin unrestricted coupled pair/coupled cluster methods 
  Ingolf Harden          : AUTO-CI MPn and infrastructure                
  Benjamin Helmich-Paris : MC-RPA, TRAH-(SCF,CASSCF), AVAS, COSX integrals, SCF dyn. polar., MC-PDFT, srDFT 
  Lee Huntington         : MR-EOM, pCC                                   
  Robert Izsak           : Overlap fitted RIJCOSX, COSX-SCS-MP3, EOM     
  Riya Kayal             : Wick's Theorem for AUTO-CI, AUTO-CI UHF-CCSDT 
  Emily Kempfer          : AUTO-CI RHF CISDT and CCSDT, approximate NEVPT4
  Christian Kollmar      : KDIIS, OOCD, Brueckner-CCSD(T), CCSD density, CASPT2, CASPT2-K, improved NEVPT2 
  Axel Koslowski         : Symmetry handling                             
  Simone Kossmann        : meta-GGA functionals, TD-DFT gradient, OOMP2, (MP2 Hessian; deprecated post 5.0) 
  Lucas Lang             : DCDCAS, Hyperfine gauge corrections, ICE-SOC+SSC
  Marvin Lechner         : AUTO-CI (C++ implementation), FIC-MRCC        
  Spencer Leger          : CASSCF response                               
  Dagmar Lenk            : GEPOL surface, SMD, ORCA-2-JSON               
  Dimitrios Liakos       : Extrapolation schemes; Compound Job, Property file
  Dimitrios Manganas     : Further ROCIS development; embedding schemes. LFT, Crystal Embedding 
  Dimitrios Pantazis     : SARC Basis sets                               
  Anastasios Papadopoulos: AUTO-CI, single reference methods and gradients 
  Taras Petrenko         : pre 6.0 DFT Hessian and TD-DFT gradient,  ECA, NRVS 
  Petra Pikulova         : Analytic Raman intensities                    
  Peter Pinski           : DLPNO-MP2, DLPNO-MP2 Gradient                 
  Shashank Vittal Rao    : ES-AILFT, MagRelax                            
  Christoph Reimann      : Effective Core Potentials                     
  Marius Retegan         : Local ZFS, SOC                                
  Christoph Riplinger    : Optimizer, TS searches, QM/MM, DLPNO-CCSD(T), (RO)-DLPNO pert. Triples 
  Michael Roemelt        : Original ROCIS implementation, recursive CI coupling coefficients
  Masaaki Saitow         : Open-shell DLPNO-CCSD energy and density      
  Barbara Sandhoefer     : DKH picture change effects                    
  Yorick L. A. Schmerwitz: GMF and freeze-and-release deltaSCF, NEB S-IDPP initial path                    
  Kantharuban Sivalingam : CASSCF convergence/infrastructure, NEVPT2, NEVPT3, NEVPT4(SD), FIC-MRCI and CEPA variants
  Bernardo de Souza      : ESD, SOC TD-DFT                               
  Georgi L. Stoychev     : AutoAux, RI-MP2 NMR, DLPNO-MP2 response, X2C  
  Van Anh Tran           : RI-MP2 g-tensors                              
  Willem Van den Heuvel  : Paramagnetic NMR                              
  Zikuan Wang            : NOTCH, Electric field optimization            
  Frank Wennmohs         : Technical directorship and infrastructure     
  Hang Xu                : AUTO-CI-Response properties                   
                                                                         
[FACCTs GmbH]                                                            
  Markus Bursch, Nicolas Foglia, Miquel Garcia-Rates, Ingolf Harden, Hagen Neugebauer, Anastasios Papadopoulos, 
  Christoph Riplinger, Bernardo de Souza, Georgi L. Stoychev                                                    
                                                                 
  APM, various basis sets, CI-OPT, improved COSX, DLPNO-Multilevel,           
  DOCKER, DRACO, updates on ESD, Fragmentator, GOAT, IRC, LR-CPCM, L-BFGS, MBIS, meta-GGA TD-DFT gradient, ML-optimized integration grids, 
  MM, NACMEs, nearIR, NEB, NEB-TS, NL-DFT gradient (VV10), 2- and 3-layer-ONIOM, interface openCOSMO-RS, QMMM,   
  Crystal-QMMM, RESP, rigid body optimization, SF, symmetry and pop. for TD-DFT, various functionals, SOLVATOR                                   
                                                                         
[Other institutions]                                                     
  V. Asgeirsson          : NEB                                           
  Christoph Bannwarth    : sTDA-DFT, sTD-DFT, PBEh-3c, B97-3c, D3        
  Giovanni Bistoni       : ETS/NOCV, ADLD/ADEX, COVALED                  
  Martin Brehm           : Molecular dynamics                            
  Ronald Cardenas        : ETS/NOCV                                      
  Martina Colucci        : COVALED                                       
  Sebastian Ehlert       : rSCAN, r2SCAN, r2SCAN-3c, D4, dhf basis sets  
  Marvin Friede          : D4 for Fr, Ra, Ac-Lr                          
  Lars Goerigk           : TD-DFT with DH, B97 family of functionals     
  Stefan Grimme          : VdW corrections, initial TS optimization, DFT functionals, gCP, sTDA/sTD-DF 
  Waldemar Hujo          : DFT-NL                                        
  H. Jonsson             : NEB                                           
  Holger Kruse           : gCP                                           
  Marcel Mueller         : wB97X-3c, vDZP basis set                      
  Hagen Neugebauer       : wr2SCAN, Native XTB                           
  Gianluca Regni         : ADLD/ADEX                                     
  Tobias Risthaus        : pre 6.0 range-separated hybrid DFT and stability analysis
  Lukas Wittmann         : regularized MP2, r2SCAN double-hybrids, wr2SCAN        
                                                                         
We gratefully acknowledge several colleagues who have allowed us to      
interface, adapt or use parts of their codes:                            
  Ed Valeev, F. Pavosevic, A. Kumar             : LibInt (2-el integral package), F12 methods 
  Garnet Chan, S. Sharma, J. Yang, R. Olivares  : DMRG                   
  Ulf Ekstrom                                   : XCFun DFT Library      
  Mihaly Kallay                                 : mrcc  (arbitrary order and MRCC methods)
  Frank Weinhold                                : gennbo (NPA and NBO analysis)           
  Simon Mueller                                 : openCOSMO-RS                            
  Christopher J. Cramer and Donald G. Truhlar   : smd solvation model                     
  S Lehtola, MJT Oliveira, MAL Marques          : LibXC Library                           
  Liviu Ungur et al                             : ANISO software                          


 Your calculation uses the libint2 library for the computation of 2-el integrals
 For citations please refer to: http://libint.valeyev.net

 Your ORCA version has been built with support for libXC version: 7.0.0
 For citations please refer to: https://libxc.gitlab.io

 This ORCA versions uses:
   CBLAS   interface :  Fast vector & matrix operations
   LAPACKE interface :  Fast linear algebra routines
   SCALAPACK package :  Parallel linear algebra routines
   Shared memory     :  Shared parallel matrices
   BLAS/LAPACK       :  OpenBLAS 0.3.29  USE64BITINT DYNAMIC_ARCH NO_AFFINITY Haswell SINGLE_THREADED
        Core in use  :  Haswell
   Copyright (c) 2011-2014, The OpenBLAS Project


  ***********************************
  * Starting time: Wed Aug  6 13:55:59 2025
  * Host name:     debian
  * Process ID:    263512
  * Working dir.:  /home/uni/mm-project/c
  ***********************************



***************************************
The coordinates will be read from file: c-input-coordinates.xyz
***************************************


Your calculation utilizes the semiempirical GFN2-xTB method
Please cite in your paper:
Bannwarth, C.; Ehlert S.; Grimme, S. J. Chem. Theory Comput. 2019, 15, 1652.
   

================================================================================

================================================================================
                                        WARNINGS
                       Please study these warnings very carefully!
================================================================================


================================================================================
 STARTING AUTOMATIC FRAGMENTATION: 
================================================================================

WARNING: Geometry Optimization
  ===> : Switching off AutoStart
         For restart on a previous wavefunction, please use MOREAD

WARNING: Found dipole moment calculation with XTB calculation
  ===> : Switching off dipole moment calculation


================================================================================
                                       INPUT FILE
================================================================================
NAME = c.inp
|  1> ! xtb goat
|  2> 
|  3> %pal
|  4>   nprocs=9
|  5> end
|  6> 
|  7> * xyzfile 0 1 c-input-coordinates.xyz
|  8> 
|  9>                          ****END OF INPUT****
================================================================================

                       *****************************
                       * Geometry Optimization Run *
                       *****************************


                       *********************************
                       *              GOAT             *
                       * Global Optimization Algorithm *
                       *********************************

Geometry optimization settings:
Update method            Update   .... BFGS
Choice of coordinates    CoordSys .... (2022) Redundant Internals
Initial Hessian          InHess   .... Almloef's Model
Max. no of cycles        MaxIter  .... 50

Convergence Tolerances:
Energy Change            TolE     ....  5.0000e-06 Eh
Max. Gradient            TolMAXG  ....  3.0000e-04 Eh/bohr
RMS Gradient             TolRMSG  ....  1.0000e-04 Eh/bohr
Max. Displacement        TolMAXD  ....  4.0000e-03 bohr
RMS Displacement         TolRMSD  ....  2.0000e-03 bohr
Strict Convergence                .... True

------------------------------------------------------------------------------
                        ORCA OPTIMIZATION COORDINATE SETUP
------------------------------------------------------------------------------

The optimization will be done in redundant internal coordinates (2022)
Making redundant internal coordinates   ...  (2022 redundants) done
Evaluating the initial hessian          ...  (Almloef) done
Evaluating the coordinates              ...  done
Calculating the B-matrix                .... done
Calculating the G-matrix                .... done
The number of degrees of freedom        ....   58

    -----------------------------------------------------------------
                    Redundant Internal Coordinates


    -----------------------------------------------------------------
         Definition                    Initial Value    Approx d2E/dq
    -----------------------------------------------------------------
      1. B(H   2,C   1)                  1.0940         0.354818   
      2. B(C   5,C   1)                  1.5099         0.402143   
      3. B(C   5,H   0)                  1.0949         0.353694   
      4. B(S   7,C   1)                  1.8128         0.356356   
      5. B(S   7,H   6)                  2.6925         0.010000   
      6. B(S   7,H   3)                  1.3409         0.386330   
      7. B(N   8,H   6)                  1.0185         0.419473   
      8. B(N   8,C   5)                  1.4477         0.452746   
      9. B(H   9,O   4)                  2.3199         0.010000   
     10. B(H   9,N   8)                  1.0184         0.419631   
     11. B(C  10,C   5)                  1.4890         0.434324   
     12. B(C  10,O   4)                  1.3525         0.642253   
     13. B(H  11,C   1)                  1.0946         0.354103   
     14. B(O  12,C  10)                  1.2208         1.042021   
     15. B(H  13,O   4)                  0.9795         0.483959   
     16. B(H  13,N   8)                  2.1471         0.010000   
     17. A(H   2,C   1,C   5)          110.7400         0.327478   
     18. A(H   2,C   1,H  11)          107.6424         0.289402   
     19. A(C   5,C   1,S   7)          109.8272         0.384378   
     20. A(H   2,C   1,S   7)          109.9290         0.337331   
     21. A(C   5,C   1,H  11)          109.7510         0.327369   
     22. A(S   7,C   1,H  11)          108.9045         0.337218   
     23. A(C  10,O   4,H  13)          112.1458         0.367804   
     24. A(C   1,C   5,N   8)          108.8018         0.377973   
     25. A(C   1,C   5,C  10)          107.9105         0.377643   
     26. A(H   0,C   5,N   8)          111.8824         0.331772   
     27. A(H   0,C   5,C  10)          108.9336         0.331495   
     28. A(N   8,C   5,C  10)          106.6174         0.383052   
     29. A(H   0,C   5,C   1)          112.4541         0.327306   
     30. A(C   1,S   7,H   3)           96.5208         0.366820   
     31. A(H   6,N   8,H   9)          107.0521         0.300283   
     32. A(C   5,N   8,H   9)          109.7957         0.338408   
     33. A(C   5,N   8,H   6)          109.9407         0.338387   
     34. A(O   4,C  10,C   5)          110.4425         0.407268   
     35. A(C   5,C  10,O  12)          124.8438         0.444110   
     36. A(O   4,C  10,O  12)          124.6873         0.473793   
     37. D(N   8,C   5,C   1,H   2)    168.0523         0.012826   
     38. D(H   0,C   5,C   1,H   2)    -67.4263         0.012826   
     39. D(N   8,C   5,C   1,S   7)    -70.3484         0.012826   
     40. D(H   0,C   5,C   1,S   7)     54.1730         0.012826   
     41. D(H   0,C   5,C   1,H  11)    173.8690         0.012826   
     42. D(N   8,C   5,C   1,H  11)     49.3476         0.012826   
     43. D(H   3,S   7,C   1,H  11)    -70.9159         0.010000   
     44. D(H   3,S   7,C   1,C   5)     49.2953         0.010000   
     45. D(H   3,S   7,C   1,H   2)    171.3786         0.010000   
     46. D(H   9,N   8,C   5,C   1)    175.9575         0.018753   
     47. D(H   9,N   8,C   5,H   0)     51.0996         0.018753   
     48. D(H   6,N   8,C   5,C  10)    174.5780         0.018753   
     49. D(H   6,N   8,C   5,H   0)    -66.4243         0.018753   
     50. D(H   9,N   8,C   5,C  10)    -67.8981         0.018753   
     51. D(H   6,N   8,C   5,C   1)     58.4336         0.018753   
     52. D(O  12,C  10,C   5,C   1)    -20.1920         0.013926   
     53. D(O  12,C  10,C   5,H   0)    102.1670         0.013926   
     54. D(O   4,C  10,C   5,N   8)     44.8673         0.013926   
     55. D(O   4,C  10,C   5,C   1)    161.6064         0.013926   
     56. D(O   4,C  10,C   5,H   0)    -76.0346         0.013926   
     57. D(O  12,C  10,O   4,H  13)   -177.5948         0.033594   
     58. D(C   5,C  10,O   4,H  13)      0.6102         0.033594   
    -----------------------------------------------------------------

Number of atoms                         .... 14
Number of degrees of freedom            .... 58


         *************************************************************
         *                GEOMETRY OPTIMIZATION CYCLE   1            *
         *************************************************************
---------------------------------
CARTESIAN COORDINATES (ANGSTROEM)
---------------------------------
  H    -1.487615    0.454428   -0.506356
  C    -2.823611    2.166119   -0.342669
  H    -2.704195    2.560477   -1.356132
  H    -4.073657    0.637041    0.974797
  O     0.644991    1.766500    0.562474
  C    -1.604496    1.377209    0.071216
  H    -2.530897    0.606239    1.710144
  S    -4.295842    1.111597   -0.259439
  N    -1.677324    1.117884    1.493614
  H    -0.896232    0.529278    1.777307
  C    -0.407946    2.236830   -0.144185
  H    -2.959110    3.018115    0.331000
  O    -0.371069    3.208763   -0.881923
  H     0.420268    0.956055    1.064626

----------------------------
CARTESIAN COORDINATES (A.U.)
----------------------------
  NO LB    ZA    FRAG    MASS        X           Y           Z
   0 H   1.0000    1     1.008   -2.811185    0.858744   -0.956874
   1 C   6.0000    1    12.011   -5.335851    4.093372   -0.647551
   2 H   1.0000    1     1.008   -5.110188    4.838600   -2.562718
   3 H   1.0000    1     1.008   -7.698096    1.203833    1.842099
   4 O   8.0000    1    15.999    1.218856    3.338201    1.062922
   5 C   6.0000    1    12.011   -3.032058    2.602548    0.134579
   6 H   1.0000    1     1.008   -4.782702    1.145626    3.231704
   7 S  16.0000    1    32.060   -8.117965    2.100614   -0.490269
   8 N   7.0000    1    14.007   -3.169683    2.112495    2.822521
   9 H   1.0000    1     1.008   -1.693633    1.000190    3.358623
  10 C   6.0000    1    12.011   -0.770906    4.226996   -0.272470
  11 H   1.0000    1     1.008   -5.591908    5.703411    0.625499
  12 O   8.0000    1    15.999   -0.701219    6.063683   -1.666593
  13 H   1.0000    1     1.008    0.794191    1.806682    2.011852

      -----------------------------------------------------------      
     |                   =====================                   |     
     |                           x T B                           |     
     |                   =====================                   |     
     |                         S. Grimme                         |     
     |          Mulliken Center for Theoretical Chemistry        |     
     |                    University of Bonn                     |     
      -----------------------------------------------------------      

   * xtb version 6.7.1 (edcfbbe) compiled by 'albert@albert-system' on 2024-07-22

   xtb is free software: you can redistribute it and/or modify it under
   the terms of the GNU Lesser General Public License as published by
   the Free Software Foundation, either version 3 of the License, or
   (at your option) any later version.
   
   xtb is distributed in the hope that it will be useful,
   but WITHOUT ANY WARRANTY; without even the implied warranty of
   MERCHANTABILITY or FITNESS FOR A PARTICULAR PURPOSE.  See the
   GNU Lesser General Public License for more details.
   
   Cite this work as:
   * C. Bannwarth, E. Caldeweyher, S. Ehlert, A. Hansen, P. Pracht,
     J. Seibert, S. Spicher, S. Grimme, WIREs Comput. Mol. Sci., 2020, 11,
     e01493. DOI: 10.1002/wcms.1493
   
   for GFN2-xTB:
   * C. Bannwarth, S. Ehlert and S. Grimme., J. Chem. Theory Comput., 2019,
     15, 1652-1671. DOI: 10.1021/acs.jctc.8b01176
   for GFN1-xTB:
   * S. Grimme, C. Bannwarth, P. Shushkov, J. Chem. Theory Comput., 2017,
     13, 1989-2009. DOI: 10.1021/acs.jctc.7b00118
   for GFN0-xTB:
   * P. Pracht, E. Caldeweyher, S. Ehlert, S. Grimme, ChemRxiv, 2019, preprint.
     DOI: 10.26434/chemrxiv.8326202.v1
   for GFN-FF:
   * S. Spicher and S. Grimme, Angew. Chem. Int. Ed., 2020, 59, 15665-15673.
     DOI: 10.1002/anie.202004239
   
   for ALPB and GBSA implicit solvation:
   * S. Ehlert, M. Stahn, S. Spicher, S. Grimme, J. Chem. Theory Comput.,
     2021, 17, 4250-4261. DOI: 10.1021/acs.jctc.1c00471
   
   for ddCOSMO and CPCM-X implicit solvation:
   * M. Stahn, S. Ehlert, S. Grimme, J. Phys. Chem. A,
     2023, XX, XXXX-XXXX. DOI: 10.1021/acs.jpca.3c04382
   
   for DFT-D4:
   * E. Caldeweyher, C. Bannwarth and S. Grimme, J. Chem. Phys., 2017,
     147, 034112. DOI: 10.1063/1.4993215
   * E. Caldeweyher, S. Ehlert, A. Hansen, H. Neugebauer, S. Spicher,
     C. Bannwarth and S. Grimme, J. Chem. Phys., 2019, 150, 154122.
     DOI: 10.1063/1.5090222
   * E. Caldeweyher, J.-M. Mewes, S. Ehlert and S. Grimme, Phys. Chem. Chem. Phys.
     2020, 22, 8499-8512. DOI: 10.1039/D0CP00502A
   
   for sTDA-xTB:
   * S. Grimme and C. Bannwarth, J. Chem. Phys., 2016, 145, 054103.
     DOI: 10.1063/1.4959605
   
   in the mass-spec context:
   * V. Asgeirsson, C. Bauer and S. Grimme, Chem. Sci., 2017, 8, 4879.
     DOI: 10.1039/c7sc00601b
   * J. Koopman and S. Grimme, ACS Omega 2019, 4, 12, 15120-15133.
     DOI: 10.1021/acsomega.9b02011
   
   for metadynamics refer to:
   * S. Grimme, J. Chem. Theory Comput., 2019, 155, 2847-2862
     DOI: 10.1021/acs.jctc.9b00143
   
   for SPH calculations refer to:
   * S. Spicher and S. Grimme, J. Chem. Theory Comput., 2021, 17, 1701-1714
     DOI: 10.1021/acs.jctc.0c01306
   
   for ONIOM refer to:
   * C. Plett, A. Katbashev, S. Ehlert, S. Grimme, M. Bursch,
     Phys. Chem. Chem. Phys., 2023, 25, 17860-17868. DOI: 10.1039/D3CP02178E
   
   for DIPRO refer to:
   * J. Kohn, N. Gildemeister, S. Grimme, D. Fazzi, A. Hansen,
     J. Chem. Phys., 2023, just accepted.
   
   for PTB refer to:
   * S. Grimme, M. Mueller, A. Hansen, J. Chem. Phys., 2023, 158, 124111.
     DOI: 10.1063/5.0137838
   
   with help from (in alphabetical order)
   P. Atkinson, C. Bannwarth, F. Bohle, G. Brandenburg, E. Caldeweyher
   M. Checinski, S. Dohm, S. Ehlert, S. Ehrlich, I. Gerasimov, C. Hölzer
   A. Katbashev, J. Kohn, J. Koopman, C. Lavigne, S. Lehtola, F. März, M. Müller,
   F. Musil, H. Neugebauer, J. Pisarek, C. Plett, P. Pracht, F. Pultar,
   J. Seibert, P. Shushkov, S. Spicher, M. Stahn, M. Steiner, T. Strunk,
   J. Stückrath, T. Rose, and J. Unsleber
   
 * started run on 2025/08/06 at 13:56:00.371     
   ID    Z sym.   atoms
    1    1 H      1, 3, 4, 7, 10, 12, 14
    2    6 C      2, 6, 11
    3    8 O      5, 13
    4   16 S      8
    5    7 N      9

           -------------------------------------------------
          |                Calculation Setup                |
           -------------------------------------------------

          program call               : /home/uni/orca_6_1_0/otool_xtb c_XTB.xyz --grad -c 0 -u 0 -P 9 --namespace c --input c_XTB.input.tmp --acc 0.200000
          calculation namespace      : c
          coordinate file            : c_XTB.xyz
          omp threads                :                     9


           -------------------------------------------------
          |                 G F N 2 - x T B                 |
           -------------------------------------------------

        Reference                      10.1021/acs.jctc.8b01176
      * Hamiltonian:
        H0-scaling (s, p, d)           1.850000    2.230000    2.230000
        zeta-weighting                 0.500000
      * Dispersion:
        s8                             2.700000
        a1                             0.520000
        a2                             5.000000
        s9                             5.000000
      * Repulsion:
        kExp                           1.500000    1.000000
        rExp                           1.000000
      * Coulomb:
        alpha                          2.000000
        third order                    shell-resolved
        anisotropic                    true
        a3                             3.000000
        a5                             4.000000
        cn-shift                       1.200000
        cn-exp                         4.000000
        max-rad                        5.000000


          ...................................................
          :                      SETUP                      :
          :.................................................:
          :  # basis functions                  41          :
          :  # atomic orbitals                  40          :
          :  # shells                           22          :
          :  # electrons                        42          :
          :  max. iterations                   250          :
          :  Hamiltonian                  GFN2-xTB          :
          :  restarted?                      false          :
          :  GBSA solvation                  false          :
          :  PC potential                    false          :
          :  electronic temp.          300.0000000     K    :
          :  accuracy                    0.2000000          :
          :  -> integral cutoff          0.3198970E+02      :
          :  -> integral neglect         0.2000000E-08      :
          :  -> SCF convergence          0.2000000E-06 Eh   :
          :  -> wf. convergence          0.2000000E-04 e    :
          :  Broyden damping             0.4000000          :
          :  net charge                          0          :
          :  unpaired electrons                  0          :
          ...................................................

 iter      E             dE          RMSdq      gap      omega  full diag
   1    -24.4109185 -0.244109E+02  0.477E+00    4.00       0.0  T
   2    -24.4532493 -0.423308E-01  0.249E+00    3.69       1.0  T
   3    -24.4548925 -0.164315E-02  0.129E+00    3.75       1.0  T
   4    -24.4590900 -0.419752E-02  0.322E-01    3.27       1.0  T
   5    -24.4592252 -0.135198E-03  0.125E-01    3.30       1.0  T
   6    -24.4592538 -0.286379E-04  0.440E-02    3.29       1.0  T
   7    -24.4592570 -0.318950E-05  0.186E-02    3.30       1.4  T
   8    -24.4592573 -0.313055E-06  0.511E-03    3.30       5.2  T
   9    -24.4592574 -0.402485E-07  0.244E-03    3.30      10.9  T
  10    -24.4592574 -0.188458E-07  0.850E-04    3.30      31.5  T
  11    -24.4592574 -0.172341E-08  0.357E-04    3.30      74.8  T
  12    -24.4592574 -0.642743E-09  0.141E-04    3.30     189.7  T
  13    -24.4592574 -0.189129E-09  0.249E-05    3.30    1073.5  T

   *** convergence criteria satisfied after 13 iterations ***

         #    Occupation            Energy/Eh            Energy/eV
      -------------------------------------------------------------
         1        2.0000           -0.7597054             -20.6726
       ...           ...                  ...                  ...
        15        2.0000           -0.5078817             -13.8202
        16        2.0000           -0.4911502             -13.3649
        17        2.0000           -0.4872330             -13.2583
        18        2.0000           -0.4720302             -12.8446
        19        2.0000           -0.4403814             -11.9834
        20        2.0000           -0.4120682             -11.2129
        21        2.0000           -0.3845965             -10.4654 (HOMO)
        22                         -0.2632280              -7.1628 (LUMO)
        23                         -0.2161665              -5.8822
        24                         -0.1426089              -3.8806
        25                         -0.0508225              -1.3830
        26                         -0.0312504              -0.8504
       ...                                ...                  ...
        40                          0.5743612              15.6292
      -------------------------------------------------------------
                  HL-Gap            0.1213684 Eh            3.3026 eV
             Fermi-level           -0.3239122 Eh           -8.8141 eV

 SCC (total)                   0 d,  0 h,  0 min,  0.012 sec
 SCC setup                      ...        0 min,  0.000 sec (  1.546%)
 Dispersion                     ...        0 min,  0.000 sec (  2.304%)
 classical contributions        ...        0 min,  0.000 sec (  2.015%)
 integral evaluation            ...        0 min,  0.002 sec ( 15.232%)
 iterations                     ...        0 min,  0.008 sec ( 69.663%)
 molecular gradient             ...        0 min,  0.001 sec (  8.652%)
 printout                       ...        0 min,  0.000 sec (  0.474%)

         :::::::::::::::::::::::::::::::::::::::::::::::::::::
         ::                     SUMMARY                     ::
         :::::::::::::::::::::::::::::::::::::::::::::::::::::
         :: total energy             -24.254608171161 Eh    ::
         :: gradient norm              0.072168647735 Eh/a0 ::
         :: HOMO-LUMO gap              3.302603083402 eV    ::
         ::.................................................::
         :: SCC energy               -24.459241521807 Eh    ::
         :: -> isotropic ES            0.062126207670 Eh    ::
         :: -> anisotropic ES          0.007493893226 Eh    ::
         :: -> anisotropic XC          0.008610069460 Eh    ::
         :: -> dispersion             -0.009771302392 Eh    ::
         :: repulsion energy           0.204633350646 Eh    ::
         :: add. restraining           0.000000000000 Eh    ::
         :: total charge               0.000000000000 e     ::
         :::::::::::::::::::::::::::::::::::::::::::::::::::::


Property printout bound to 'properties.out'

           -------------------------------------------------
          | TOTAL ENERGY              -24.254608171161 Eh   |
          | GRADIENT NORM               0.072168647735 Eh/α |
          | HOMO-LUMO GAP               3.302603083402 eV   |
           -------------------------------------------------

------------------------------------------------------------------------
 * finished run on 2025/08/06 at 13:56:00.390     
------------------------------------------------------------------------
 total:
 * wall-time:     0 d,  0 h,  0 min,  0.019 sec
 *  cpu-time:     0 d,  0 h,  0 min,  0.034 sec
 * ratio c/w:     1.763 speedup
 SCF:
 * wall-time:     0 d,  0 h,  0 min,  0.012 sec
 *  cpu-time:     0 d,  0 h,  0 min,  0.025 sec
 * ratio c/w:     2.149 speedup


-------------------------   --------------------
FINAL SINGLE POINT ENERGY       -24.254608171160
-------------------------   --------------------


-------------
DIPOLE MOMENT
-------------
                                X             Y             Z
Total Dipole Moment    :      0.11700      -1.69700       1.13400
                        -----------------------------------------
Magnitude (a.u.)       :      2.04437
Magnitude (Debye)      :      5.19638


------------------
CARTESIAN GRADIENT
------------------

   1   H   :    0.002296514    0.003648766    0.008497538
   2   C   :    0.005691144   -0.004212607    0.000725300
   3   H   :    0.003848607    0.005226249   -0.001936727
   4   H   :    0.003722576   -0.002591619    0.002349569
   5   O   :   -0.004535592   -0.009734739    0.010281086
   6   C   :    0.014521090   -0.002819011   -0.005722462
   7   H   :   -0.002505651   -0.001289079   -0.002654968
   8   S   :    0.007218596    0.001497632    0.005973174
   9   N   :    0.001229124    0.010450826   -0.009526564
  10   H   :    0.008165939    0.002263957   -0.007035590
  11   C   :   -0.026347973   -0.026889019    0.020292238
  12   H   :   -0.000552685    0.002512003    0.000250241
  13   O   :   -0.005604866    0.033864414   -0.028860773
  14   H   :   -0.007146822   -0.011927773    0.007367937

Difference to translation invariance:
           :    0.0000000000    0.0000000000   -0.0000000000

Difference to rotation invariance:
           :   -0.0000000101   -0.0000000050   -0.0000000194

Norm of the Cartesian gradient     ...    0.0721686477
RMS gradient                       ...    0.0111358641
MAX gradient                       ...    0.0338644143
------------------------------------------------------------------------------
                         ORCA GEOMETRY RELAXATION STEP
------------------------------------------------------------------------------

Reading the OPT-File                    .... done
Getting information on internals        .... done
Copying old internal coords+grads       .... done
Making the new internal coordinates     .... (2022 redundants) done
Validating the new internal coordinates .... (2022 redundants) done
Calculating the B-matrix                .... done
Calculating the G,G- and P matrices     .... done
Transforming gradient to internals      .... done
Projecting the internal gradient        .... done
Number of atoms                         ....  14
Number of internal coordinates          ....  58
Current Energy                          ....   -24.254608171 Eh
Current gradient norm                   ....     0.072168648 Eh/bohr
Maximum allowed component of the step   ....  0.300
Current trust radius                    ....  0.300
Evaluating the initial hessian          ....  (Almloef) done
Projecting the Hessian                  .... done
Forming the augmented Hessian           .... done
Diagonalizing the augmented Hessian     .... done
Last element of RFO vector              ....  0.899383340
Lowest eigenvalues of augmented Hessian:
 -0.016368297  0.010307162  0.011839643  0.013504500  0.017091917
Length of the computed step             ....  0.486067318
Warning: the length of the step is outside the trust region - taking restricted step instead
The input lambda is                     ....     0.009000
   iter:   5  x=   -0.002352  g=  245.003438 f(x)=     1.211851
   iter:  10  x=   -0.044776  g=    2.415397 f(x)=     0.005654
The output lambda is                    ....    -0.044903 (14 iterations)
The final length of the internal step   ....  0.300000000
Converting the step to Cartesian space:
 Initial RMS(Int)=    0.0393919299
Transforming coordinates:
 Iter   0:  RMS(Cart)=    0.0612811838 RMS(Int)=    0.0396298063
 Iter   5:  RMS(Cart)=    0.0000000106 RMS(Int)=    0.0000000102
done
Storing new coordinates                 .... done

                                .--------------------.
          ----------------------|Geometry convergence|-------------------------
          Item                value                   Tolerance       Converged
          ---------------------------------------------------------------------
          RMS gradient        0.0087270378            0.0001000000      NO
          MAX gradient        0.0442336329            0.0003000000      NO
          RMS step            0.0393919299            0.0020000000      NO
          MAX step            0.1831046013            0.0040000000      NO
          -------------------------------------------------------------------------
          ........................................................
          Max(Bonds)      0.0969      Max(Angles)    2.26
          Max(Dihed)        3.27      Max(Improp)    0.00
          ---------------------------------------------------------------------

    ---------------------------------------------------------------------------
                         Redundant Internal Coordinates
                            (Angstroem and degrees)

        Definition                    Value    dE/dq     Step     New-Value
    ----------------------------------------------------------------------------
     1. B(H   2,C   1)                1.0940  0.004098 -0.0054    1.0886   
     2. B(C   5,C   1)                1.5099 -0.008594  0.0135    1.5234   
     3. B(C   5,H   0)                1.0949 -0.007313  0.0097    1.1046   
     4. B(S   7,C   1)                1.8128 -0.003987  0.0070    1.8198   
     5. B(S   7,H   6)                2.6925 -0.009958  0.0634    2.7559   
     6. B(S   7,H   3)                1.3409  0.003697 -0.0045    1.3363   
     7. B(N   8,H   6)                1.0185 -0.000800 -0.0002    1.0182   
     8. B(N   8,C   5)                1.4477 -0.002902  0.0091    1.4568   
     9. B(H   9,O   4)                2.3199 -0.014510  0.0969    2.4168   
    10. B(H   9,N   8)                1.0184  0.002191 -0.0028    1.0156   
    11. B(C  10,C   5)                1.4890 -0.025326  0.0338    1.5228   
    12. B(C  10,O   4)                1.3525  0.014011 -0.0098    1.3427   
    13. B(H  11,C   1)                1.0946  0.002178 -0.0029    1.0917   
    14. B(O  12,C  10)                1.2208  0.044234 -0.0215    1.1992   
    15. B(H  13,O   4)                0.9795  0.013153 -0.0136    0.9659   
    16. B(H  13,N   8)                2.1471 -0.008072  0.0625    2.2096   
    17. A(H   2,C   1,C   5)          110.74  0.001384   -0.64    110.10   
    18. A(H   2,C   1,H  11)          107.64 -0.002299    0.34    107.98   
    19. A(C   5,C   1,S   7)          109.83 -0.006978    1.84    111.67   
    20. A(H   2,C   1,S   7)          109.93  0.005540   -1.65    108.28   
    21. A(C   5,C   1,H  11)          109.75  0.000684    0.10    109.85   
    22. A(S   7,C   1,H  11)          108.90  0.001821   -0.01    108.89   
    23. A(C  10,O   4,H  13)          112.15  0.005963   -0.48    111.66   
    24. A(C   1,C   5,N   8)          108.80  0.000348    0.44    109.25   
    25. A(C   1,C   5,C  10)          107.91 -0.011437    1.18    109.09   
    26. A(H   0,C   5,N   8)          111.88 -0.002503    0.11    112.00   
    27. A(H   0,C   5,C  10)          108.93  0.000905   -0.78    108.16   
    28. A(N   8,C   5,C  10)          106.62  0.006836    0.76    107.38   
    29. A(H   0,C   5,C   1)          112.45  0.005556   -1.56    110.89   
    30. A(C   1,S   7,H   3)           96.52 -0.004661    0.65     97.17   
    31. A(H   6,N   8,H   9)          107.05 -0.005514    0.56    107.62   
    32. A(C   5,N   8,H   9)          109.80 -0.000929    0.89    110.68   
    33. A(C   5,N   8,H   6)          109.94  0.007924   -0.49    109.45   
    34. A(O   4,C  10,C   5)          110.44 -0.008195    2.26    112.71   
    35. A(C   5,C  10,O  12)          124.84 -0.004364   -0.19    124.65   
    36. A(O   4,C  10,O  12)          124.69  0.012515   -2.05    122.64   
    37. D(N   8,C   5,C   1,H   2)    168.05 -0.003071    0.79    168.84   
    38. D(H   0,C   5,C   1,H   2)    -67.43 -0.002163    0.18    -67.25   
    39. D(N   8,C   5,C   1,S   7)    -70.35  0.000138   -0.48    -70.83   
    40. D(H   0,C   5,C   1,S   7)     54.17  0.001046   -1.09     53.08   
    41. D(H   0,C   5,C   1,H  11)    173.87 -0.000608    0.09    173.96   
    42. D(N   8,C   5,C   1,H  11)     49.35 -0.001517    0.71     50.05   
    43. D(H   3,S   7,C   1,H  11)    -70.92 -0.001271    2.04    -68.88   
    44. D(H   3,S   7,C   1,C   5)     49.30 -0.003540    3.27     52.56   
    45. D(H   3,S   7,C   1,H   2)    171.38 -0.002760    2.59    173.97   
    46. D(H   9,N   8,C   5,C   1)    175.96  0.003461   -0.94    175.01   
    47. D(H   9,N   8,C   5,H   0)     51.10 -0.002177    0.66     51.76   
    48. D(H   6,N   8,C   5,C  10)    174.58 -0.003575    0.14    174.72   
    49. D(H   6,N   8,C   5,H   0)    -66.42  0.000384   -0.27    -66.69   
    50. D(H   9,N   8,C   5,C  10)    -67.90 -0.006136    1.06    -66.83   
    51. D(H   6,N   8,C   5,C   1)     58.43  0.006021   -1.87     56.56   
    52. D(O  12,C  10,C   5,C   1)    -20.19  0.000828    0.43    -19.76   
    53. D(O  12,C  10,C   5,H   0)    102.17  0.001138   -1.21    100.95   
    54. D(O   4,C  10,C   5,N   8)     44.87  0.003878   -1.71     43.16   
    55. D(O   4,C  10,C   5,C   1)    161.61  0.002100   -0.21    161.40   
    56. D(O   4,C  10,C   5,H   0)    -76.03  0.002410   -1.86    -77.89   
    57. D(O  12,C  10,O   4,H  13)   -177.59  0.003158   -1.58   -179.18   
    58. D(C   5,C  10,O   4,H  13)      0.61  0.001521   -0.90     -0.29   
    ----------------------------------------------------------------------------

Geometry step timings:
Preparation and reading OPT file:      0.000 s ( 1.664 %)
Internal coordinates            :      0.000 s ( 1.479 %)
B/P matrices and projection     :      0.000 s (28.743 %)
Hessian update/contruction      :      0.000 s ( 8.688 %)
Making the step                 :      0.000 s (36.506 %)
Converting the step to Cartesian:      0.000 s ( 3.604 %)
Storing new data                :      0.000 s ( 1.386 %)
Checking convergence            :      0.000 s ( 1.479 %)
Final printing                  :      0.000 s (16.359 %)
Total time                      :      0.001 s

Time for energy+gradient        :      0.023 s
Time for complete geometry iter :      0.025 s

         *************************************************************
         *                GEOMETRY OPTIMIZATION CYCLE   2            *
         *************************************************************
---------------------------------
CARTESIAN COORDINATES (ANGSTROEM)
---------------------------------
  H    -1.500126    0.453020   -0.515856
  C    -2.841726    2.157820   -0.328737
  H    -2.719466    2.546483   -1.338211
  H    -4.194094    0.665166    0.954887
  O     0.702472    1.803638    0.533847
  C    -1.602203    1.374515    0.084607
  H    -2.529442    0.590454    1.719355
  S    -4.335530    1.118988   -0.294034
  N    -1.667327    1.091026    1.512129
  H    -0.892568    0.499155    1.796401
  C    -0.368056    2.234520   -0.152258
  H    -2.985514    3.005730    0.343681
  O    -0.328408    3.183849   -0.883941
  H     0.495252    1.022172    1.062604

----------------------------
CARTESIAN COORDINATES (A.U.)
----------------------------
  NO LB    ZA    FRAG    MASS        X           Y           Z
   0 H   1.0000    1     1.008   -2.834828    0.856083   -0.974827
   1 C   6.0000    1    12.011   -5.370083    4.077689   -0.621223
   2 H   1.0000    1     1.008   -5.139045    4.812156   -2.528852
   3 H   1.0000    1     1.008   -7.925690    1.256981    1.804476
   4 O   8.0000    1    15.999    1.327479    3.408382    1.008825
   5 C   6.0000    1    12.011   -3.027724    2.597456    0.159884
   6 H   1.0000    1     1.008   -4.779952    1.115796    3.249109
   7 S  16.0000    1    32.060   -8.192964    2.114581   -0.555644
   8 N   7.0000    1    14.007   -3.150792    2.061740    2.857510
   9 H   1.0000    1     1.008   -1.686710    0.943267    3.394705
  10 C   6.0000    1    12.011   -0.695524    4.222632   -0.287727
  11 H   1.0000    1     1.008   -5.641803    5.680006    0.649464
  12 O   8.0000    1    15.999   -0.620601    6.016602   -1.670406
  13 H   1.0000    1     1.008    0.935891    1.931625    2.008030

      -----------------------------------------------------------      
     |                   =====================                   |     
     |                           x T B                           |     
     |                   =====================                   |     
     |                         S. Grimme                         |     
     |          Mulliken Center for Theoretical Chemistry        |     
     |                    University of Bonn                     |     
      -----------------------------------------------------------      

   * xtb version 6.7.1 (edcfbbe) compiled by 'albert@albert-system' on 2024-07-22

   xtb is free software: you can redistribute it and/or modify it under
   the terms of the GNU Lesser General Public License as published by
   the Free Software Foundation, either version 3 of the License, or
   (at your option) any later version.
   
   xtb is distributed in the hope that it will be useful,
   but WITHOUT ANY WARRANTY; without even the implied warranty of
   MERCHANTABILITY or FITNESS FOR A PARTICULAR PURPOSE.  See the
   GNU Lesser General Public License for more details.
   
   Cite this work as:
   * C. Bannwarth, E. Caldeweyher, S. Ehlert, A. Hansen, P. Pracht,
     J. Seibert, S. Spicher, S. Grimme, WIREs Comput. Mol. Sci., 2020, 11,
     e01493. DOI: 10.1002/wcms.1493
   
   for GFN2-xTB:
   * C. Bannwarth, S. Ehlert and S. Grimme., J. Chem. Theory Comput., 2019,
     15, 1652-1671. DOI: 10.1021/acs.jctc.8b01176
   for GFN1-xTB:
   * S. Grimme, C. Bannwarth, P. Shushkov, J. Chem. Theory Comput., 2017,
     13, 1989-2009. DOI: 10.1021/acs.jctc.7b00118
   for GFN0-xTB:
   * P. Pracht, E. Caldeweyher, S. Ehlert, S. Grimme, ChemRxiv, 2019, preprint.
     DOI: 10.26434/chemrxiv.8326202.v1
   for GFN-FF:
   * S. Spicher and S. Grimme, Angew. Chem. Int. Ed., 2020, 59, 15665-15673.
     DOI: 10.1002/anie.202004239
   
   for ALPB and GBSA implicit solvation:
   * S. Ehlert, M. Stahn, S. Spicher, S. Grimme, J. Chem. Theory Comput.,
     2021, 17, 4250-4261. DOI: 10.1021/acs.jctc.1c00471
   
   for ddCOSMO and CPCM-X implicit solvation:
   * M. Stahn, S. Ehlert, S. Grimme, J. Phys. Chem. A,
     2023, XX, XXXX-XXXX. DOI: 10.1021/acs.jpca.3c04382
   
   for DFT-D4:
   * E. Caldeweyher, C. Bannwarth and S. Grimme, J. Chem. Phys., 2017,
     147, 034112. DOI: 10.1063/1.4993215
   * E. Caldeweyher, S. Ehlert, A. Hansen, H. Neugebauer, S. Spicher,
     C. Bannwarth and S. Grimme, J. Chem. Phys., 2019, 150, 154122.
     DOI: 10.1063/1.5090222
   * E. Caldeweyher, J.-M. Mewes, S. Ehlert and S. Grimme, Phys. Chem. Chem. Phys.
     2020, 22, 8499-8512. DOI: 10.1039/D0CP00502A
   
   for sTDA-xTB:
   * S. Grimme and C. Bannwarth, J. Chem. Phys., 2016, 145, 054103.
     DOI: 10.1063/1.4959605
   
   in the mass-spec context:
   * V. Asgeirsson, C. Bauer and S. Grimme, Chem. Sci., 2017, 8, 4879.
     DOI: 10.1039/c7sc00601b
   * J. Koopman and S. Grimme, ACS Omega 2019, 4, 12, 15120-15133.
     DOI: 10.1021/acsomega.9b02011
   
   for metadynamics refer to:
   * S. Grimme, J. Chem. Theory Comput., 2019, 155, 2847-2862
     DOI: 10.1021/acs.jctc.9b00143
   
   for SPH calculations refer to:
   * S. Spicher and S. Grimme, J. Chem. Theory Comput., 2021, 17, 1701-1714
     DOI: 10.1021/acs.jctc.0c01306
   
   for ONIOM refer to:
   * C. Plett, A. Katbashev, S. Ehlert, S. Grimme, M. Bursch,
     Phys. Chem. Chem. Phys., 2023, 25, 17860-17868. DOI: 10.1039/D3CP02178E
   
   for DIPRO refer to:
   * J. Kohn, N. Gildemeister, S. Grimme, D. Fazzi, A. Hansen,
     J. Chem. Phys., 2023, just accepted.
   
   for PTB refer to:
   * S. Grimme, M. Mueller, A. Hansen, J. Chem. Phys., 2023, 158, 124111.
     DOI: 10.1063/5.0137838
   
   with help from (in alphabetical order)
   P. Atkinson, C. Bannwarth, F. Bohle, G. Brandenburg, E. Caldeweyher
   M. Checinski, S. Dohm, S. Ehlert, S. Ehrlich, I. Gerasimov, C. Hölzer
   A. Katbashev, J. Kohn, J. Koopman, C. Lavigne, S. Lehtola, F. März, M. Müller,
   F. Musil, H. Neugebauer, J. Pisarek, C. Plett, P. Pracht, F. Pultar,
   J. Seibert, P. Shushkov, S. Spicher, M. Stahn, M. Steiner, T. Strunk,
   J. Stückrath, T. Rose, and J. Unsleber
   
 * started run on 2025/08/06 at 13:56:00.396     
   ID    Z sym.   atoms
    1    1 H      1, 3, 4, 7, 10, 12, 14
    2    6 C      2, 6, 11
    3    8 O      5, 13
    4   16 S      8
    5    7 N      9

           -------------------------------------------------
          |                Calculation Setup                |
           -------------------------------------------------

          program call               : /home/uni/orca_6_1_0/otool_xtb c_XTB.xyz --grad -c 0 -u 0 -P 9 --namespace c --input c_XTB.input.tmp --acc 0.200000
          calculation namespace      : c
          coordinate file            : c_XTB.xyz
          omp threads                :                     9


           -------------------------------------------------
          |                 G F N 2 - x T B                 |
           -------------------------------------------------

        Reference                      10.1021/acs.jctc.8b01176
      * Hamiltonian:
        H0-scaling (s, p, d)           1.850000    2.230000    2.230000
        zeta-weighting                 0.500000
      * Dispersion:
        s8                             2.700000
        a1                             0.520000
        a2                             5.000000
        s9                             5.000000
      * Repulsion:
        kExp                           1.500000    1.000000
        rExp                           1.000000
      * Coulomb:
        alpha                          2.000000
        third order                    shell-resolved
        anisotropic                    true
        a3                             3.000000
        a5                             4.000000
        cn-shift                       1.200000
        cn-exp                         4.000000
        max-rad                        5.000000

q/qsh data taken from xtbrestart
CAMM data taken from xtbrestart

          ...................................................
          :                      SETUP                      :
          :.................................................:
          :  # basis functions                  41          :
          :  # atomic orbitals                  40          :
          :  # shells                           22          :
          :  # electrons                        42          :
          :  max. iterations                   250          :
          :  Hamiltonian                  GFN2-xTB          :
          :  restarted?                       true          :
          :  GBSA solvation                  false          :
          :  PC potential                    false          :
          :  electronic temp.          300.0000000     K    :
          :  accuracy                    0.2000000          :
          :  -> integral cutoff          0.3198970E+02      :
          :  -> integral neglect         0.2000000E-08      :
          :  -> SCF convergence          0.2000000E-06 Eh   :
          :  -> wf. convergence          0.2000000E-04 e    :
          :  Broyden damping             0.4000000          :
          :  net charge                          0          :
          :  unpaired electrons                  0          :
          ...................................................

 iter      E             dE          RMSdq      gap      omega  full diag
   1    -24.4712021 -0.244712E+02  0.312E-01    3.57       0.0  T
   2    -24.4712702 -0.681751E-04  0.187E-01    3.54       1.0  T
   3    -24.4712708 -0.515551E-06  0.433E-02    3.52       1.0  T
   4    -24.4712793 -0.856957E-05  0.188E-02    3.52       1.4  T
   5    -24.4712796 -0.278491E-06  0.488E-03    3.53       5.5  T
   6    -24.4712796 -0.149444E-07  0.252E-03    3.53      10.6  T
   7    -24.4712796 -0.658627E-08  0.120E-03    3.52      22.3  T
   8    -24.4712796 -0.280825E-08  0.228E-04    3.52     117.3  T
   9    -24.4712796 -0.481037E-10  0.932E-05    3.52     286.8  T
  10    -24.4712796 -0.141860E-10  0.404E-05    3.52     662.0  T

   *** convergence criteria satisfied after 10 iterations ***

         #    Occupation            Energy/Eh            Energy/eV
      -------------------------------------------------------------
         1        2.0000           -0.7613957             -20.7186
       ...           ...                  ...                  ...
        15        2.0000           -0.5060708             -13.7709
        16        2.0000           -0.4921899             -13.3932
        17        2.0000           -0.4870884             -13.2544
        18        2.0000           -0.4722144             -12.8496
        19        2.0000           -0.4397056             -11.9650
        20        2.0000           -0.4095248             -11.1437
        21        2.0000           -0.3845751             -10.4648 (HOMO)
        22                         -0.2550375              -6.9399 (LUMO)
        23                         -0.2159074              -5.8751
        24                         -0.1406531              -3.8274
        25                         -0.0424715              -1.1557
        26                         -0.0300284              -0.8171
       ...                                ...                  ...
        40                          0.6282557              17.0957
      -------------------------------------------------------------
                  HL-Gap            0.1295376 Eh            3.5249 eV
             Fermi-level           -0.3198063 Eh           -8.7024 eV

 SCC (total)                   0 d,  0 h,  0 min,  0.011 sec
 SCC setup                      ...        0 min,  0.000 sec (  1.489%)
 Dispersion                     ...        0 min,  0.000 sec (  3.830%)
 classical contributions        ...        0 min,  0.000 sec (  0.558%)
 integral evaluation            ...        0 min,  0.002 sec ( 15.444%)
 iterations                     ...        0 min,  0.008 sec ( 68.689%)
 molecular gradient             ...        0 min,  0.001 sec (  9.283%)
 printout                       ...        0 min,  0.000 sec (  0.521%)

         :::::::::::::::::::::::::::::::::::::::::::::::::::::
         ::                     SUMMARY                     ::
         :::::::::::::::::::::::::::::::::::::::::::::::::::::
         :: total energy             -24.263259584467 Eh    ::
         :: gradient norm              0.025281826384 Eh/a0 ::
         :: HOMO-LUMO gap              3.524898231249 eV    ::
         ::.................................................::
         :: SCC energy               -24.471263300031 Eh    ::
         :: -> isotropic ES            0.060468410508 Eh    ::
         :: -> anisotropic ES          0.006975276805 Eh    ::
         :: -> anisotropic XC          0.008361440465 Eh    ::
         :: -> dispersion             -0.009668199029 Eh    ::
         :: repulsion energy           0.208003715564 Eh    ::
         :: add. restraining           0.000000000000 Eh    ::
         :: total charge               0.000000000000 e     ::
         :::::::::::::::::::::::::::::::::::::::::::::::::::::


Property printout bound to 'properties.out'

           -------------------------------------------------
          | TOTAL ENERGY              -24.263259584467 Eh   |
          | GRADIENT NORM               0.025281826384 Eh/α |
          | HOMO-LUMO GAP               3.524898231249 eV   |
           -------------------------------------------------

------------------------------------------------------------------------
 * finished run on 2025/08/06 at 13:56:00.413     
------------------------------------------------------------------------
 total:
 * wall-time:     0 d,  0 h,  0 min,  0.017 sec
 *  cpu-time:     0 d,  0 h,  0 min,  0.026 sec
 * ratio c/w:     1.550 speedup
 SCF:
 * wall-time:     0 d,  0 h,  0 min,  0.011 sec
 *  cpu-time:     0 d,  0 h,  0 min,  0.019 sec
 * ratio c/w:     1.691 speedup


-------------------------   --------------------
FINAL SINGLE POINT ENERGY       -24.263259584470
-------------------------   --------------------


-------------
DIPOLE MOMENT
-------------
                                X             Y             Z
Total Dipole Moment    :      0.09700      -1.64800       1.16600
                        -----------------------------------------
Magnitude (a.u.)       :      2.02111
Magnitude (Debye)      :      5.13724


------------------
CARTESIAN GRADIENT
------------------

   1   H   :    0.001400800   -0.000721897    0.004192374
   2   C   :   -0.001330624   -0.000784430   -0.002721385
   3   H   :    0.002424822    0.002929969    0.000860931
   4   H   :    0.001619934   -0.002241654    0.000299270
   5   O   :   -0.002496270   -0.006312746    0.007300463
   6   C   :    0.005853842   -0.002594238   -0.004908243
   7   H   :   -0.003011675   -0.000968164   -0.002221915
   8   S   :    0.002282531    0.000669325    0.005348503
   9   N   :    0.002569531    0.005015284   -0.001399718
  10   H   :    0.005251813    0.003076640   -0.004562069
  11   C   :   -0.008793353   -0.005867004    0.005230445
  12   H   :   -0.000275689    0.001625520   -0.000731071
  13   O   :   -0.001041441    0.008324395   -0.006627114
  14   H   :   -0.004454221   -0.002151000   -0.000060470

Difference to translation invariance:
           :    0.0000000000   -0.0000000000   -0.0000000000

Difference to rotation invariance:
           :    0.0000000842   -0.0000000967    0.0000000241

Norm of the Cartesian gradient     ...    0.0252818264
RMS gradient                       ...    0.0039010705
MAX gradient                       ...    0.0087933534
------------------------------------------------------------------------------
                         ORCA GEOMETRY RELAXATION STEP
------------------------------------------------------------------------------

Reading the OPT-File                    .... done
Getting information on internals        .... done
Copying old internal coords+grads       .... done
Making the new internal coordinates     .... (2022 redundants) done
Validating the new internal coordinates .... (2022 redundants) done
Calculating the B-matrix                .... done
Calculating the G,G- and P matrices     .... done
Transforming gradient to internals      .... done
Projecting the internal gradient        .... done
Number of atoms                         ....  14
Number of internal coordinates          ....  58
Current Energy                          ....   -24.263259584 Eh
Current gradient norm                   ....     0.025281826 Eh/bohr
Maximum allowed component of the step   ....  0.300
Current trust radius                    ....  0.300
Updating the Hessian (BFGS)             .... done
Forming the augmented Hessian           .... done
Diagonalizing the augmented Hessian     .... done
Last element of RFO vector              ....  0.920351823
Lowest eigenvalues of augmented Hessian:
 -0.005838510  0.010527036  0.011843778  0.013154023  0.017059648
Length of the computed step             ....  0.424936898
Warning: the length of the step is outside the trust region - taking restricted step instead
The input lambda is                     ....     0.008985
   iter:   5  x=    0.000372  g=  161.603659 f(x)=     0.585400
   iter:  10  x=   -0.016797  g=    4.538317 f(x)=     0.000367
The output lambda is                    ....    -0.016797 (13 iterations)
The final length of the internal step   ....  0.300000000
Converting the step to Cartesian space:
 Initial RMS(Int)=    0.0393919299
Transforming coordinates:
 Iter   0:  RMS(Cart)=    0.0583193603 RMS(Int)=    0.8225296239
 Iter   5:  RMS(Cart)=    0.0000000719 RMS(Int)=    0.0000000674
done
Storing new coordinates                 .... done
The predicted energy change is          ....    -0.002983007
Previously predicted energy change      ....    -0.008163590
Actually observed energy change         ....    -0.008651413
Ratio of predicted to observed change   ....     1.059755950
New trust radius                        ....     0.450000000

                                .--------------------.
          ----------------------|Geometry convergence|-------------------------
          Item                value                   Tolerance       Converged
          ---------------------------------------------------------------------
          Energy change      -0.0086514133            0.0000050000      NO
          RMS gradient        0.0027348737            0.0001000000      NO
          MAX gradient        0.0105986545            0.0003000000      NO
          RMS step            0.0393919299            0.0020000000      NO
          MAX step            0.1874343646            0.0040000000      NO
          -------------------------------------------------------------------------
          ........................................................
          Max(Bonds)      0.0992      Max(Angles)    1.66
          Max(Dihed)        5.21      Max(Improp)    0.00
          ---------------------------------------------------------------------

    ---------------------------------------------------------------------------
                         Redundant Internal Coordinates
                            (Angstroem and degrees)

        Definition                    Value    dE/dq     Step     New-Value
    ----------------------------------------------------------------------------
     1. B(H   2,C   1)                1.0886  0.000520 -0.0009    1.0877   
     2. B(C   5,C   1)                1.5234  0.000841  0.0004    1.5239   
     3. B(C   5,H   0)                1.1046 -0.001547  0.0029    1.1075   
     4. B(S   7,C   1)                1.8198 -0.000010  0.0011    1.8209   
     5. B(S   7,H   6)                2.7559 -0.005278  0.0549    2.8108   
     6. B(S   7,H   3)                1.3363  0.001212 -0.0022    1.3341   
     7. B(N   8,H   6)                1.0182  0.000928 -0.0026    1.0156   
     8. B(N   8,C   5)                1.4569  0.000665  0.0035    1.4603   
     9. B(H   9,O   4)                2.4166 -0.008261  0.0992    2.5158   
    10. B(H   9,N   8)                1.0156  0.000584 -0.0012    1.0144   
    11. B(C  10,C   5)                1.5228 -0.006466  0.0155    1.5383   
    12. B(C  10,O   4)                1.3425  0.004842 -0.0047    1.3379   
    13. B(H  11,C   1)                1.0917  0.000849 -0.0017    1.0900   
    14. B(O  12,C  10)                1.1992  0.010599 -0.0079    1.1913   
    15. B(H  13,O   4)                0.9660  0.001258 -0.0021    0.9639   
    16. B(H  13,N   8)                2.2099 -0.004745  0.0520    2.2619   
    17. A(H   2,C   1,C   5)          110.11  0.000594   -0.56    109.55   
    18. A(H   2,C   1,H  11)          107.98 -0.001787    0.68    108.66   
    19. A(C   5,C   1,S   7)          111.67 -0.002961    1.16    112.83   
    20. A(H   2,C   1,S   7)          108.28  0.003508   -1.66    106.62   
    21. A(C   5,C   1,H  11)          109.84  0.000130    0.24    110.08   
    22. A(S   7,C   1,H  11)          108.88  0.000582    0.13    109.00   
    23. A(C  10,O   4,H  13)          111.61 -0.000193    0.47    112.08   
    24. A(C   1,C   5,N   8)          109.24 -0.001133    0.71    109.95   
    25. A(C   1,C   5,C  10)          109.08 -0.002453   -0.17    108.91   
    26. A(H   0,C   5,N   8)          111.99 -0.000702    0.33    112.32   
    27. A(H   0,C   5,C  10)          108.16  0.001168   -0.80    107.36   
    28. A(N   8,C   5,C  10)          107.37  0.000348    1.47    108.84   
    29. A(H   0,C   5,C   1)          110.89  0.002647   -1.42    109.48   
    30. A(C   1,S   7,H   3)           97.17 -0.000498    0.08     97.25   
    31. A(H   6,N   8,H   9)          107.60 -0.001541    0.00    107.61   
    32. A(C   5,N   8,H   9)          110.71 -0.001108    0.79    111.50   
    33. A(C   5,N   8,H   6)          109.45  0.002603   -0.11    109.33   
    34. A(O   4,C  10,C   5)          112.67 -0.002694    1.60    114.27   
    35. A(C   5,C  10,O  12)          124.66 -0.000200   -0.58    124.08   
    36. A(O   4,C  10,O  12)          122.65  0.002891   -1.04    121.61   
    37. D(N   8,C   5,C   1,H   2)    168.85 -0.002017    0.59    169.43   
    38. D(H   0,C   5,C   1,H   2)    -67.25 -0.001901    0.54    -66.71   
    39. D(N   8,C   5,C   1,S   7)    -70.83  0.000861   -1.10    -71.93   
    40. D(H   0,C   5,C   1,S   7)     53.07  0.000977   -1.14     51.93   
    41. D(H   0,C   5,C   1,H  11)    173.96 -0.000149   -0.10    173.87   
    42. D(N   8,C   5,C   1,H  11)     50.06 -0.000266   -0.06     50.00   
    43. D(H   3,S   7,C   1,H  11)    -68.88 -0.001589    4.11    -64.76   
    44. D(H   3,S   7,C   1,C   5)     52.57 -0.002940    5.21     57.78   
    45. D(H   3,S   7,C   1,H   2)    173.96 -0.001724    4.17    178.13   
    46. D(H   9,N   8,C   5,C   1)    175.01  0.001462   -1.32    173.68   
    47. D(H   9,N   8,C   5,H   0)     51.75 -0.000631   -0.25     51.50   
    48. D(H   6,N   8,C   5,C  10)    174.72 -0.000925   -0.79    173.93   
    49. D(H   6,N   8,C   5,H   0)    -66.69  0.000318   -0.66    -67.35   
    50. D(H   9,N   8,C   5,C  10)    -66.84 -0.001875   -0.38    -67.21   
    51. D(H   6,N   8,C   5,C   1)     56.56  0.002411   -1.73     54.83   
    52. D(O  12,C  10,C   5,C   1)    -19.76 -0.000111   -0.62    -20.38   
    53. D(O  12,C  10,C   5,H   0)    100.95  0.002350   -2.93     98.01   
    54. D(O   4,C  10,C   5,N   8)     43.13  0.002496   -1.44     41.69   
    55. D(O   4,C  10,C   5,C   1)    161.40  0.000017    0.07    161.47   
    56. D(O   4,C  10,C   5,H   0)    -77.90  0.002478   -2.24    -80.14   
    57. D(O  12,C  10,O   4,H  13)   -179.18  0.001937   -1.46   -180.65   
    58. D(C   5,C  10,O   4,H  13)     -0.31  0.001773   -2.16     -2.47   
    ----------------------------------------------------------------------------

Geometry step timings:
Preparation and reading OPT file:      0.000 s ( 0.983 %)
Internal coordinates            :      0.000 s ( 1.340 %)
B/P matrices and projection     :      0.000 s (29.580 %)
Hessian update/contruction      :      0.000 s (10.992 %)
Making the step                 :      0.000 s (35.478 %)
Converting the step to Cartesian:      0.000 s ( 2.949 %)
Storing new data                :      0.000 s ( 1.072 %)
Checking convergence            :      0.000 s ( 1.787 %)
Final printing                  :      0.000 s (15.818 %)
Total time                      :      0.001 s

Time for energy+gradient        :      0.021 s
Time for complete geometry iter :      0.023 s

         *************************************************************
         *                GEOMETRY OPTIMIZATION CYCLE   3            *
         *************************************************************
---------------------------------
CARTESIAN COORDINATES (ANGSTROEM)
---------------------------------
  H    -1.509289    0.459048   -0.520785
  C    -2.840223    2.149416   -0.308397
  H    -2.707504    2.538140   -1.315581
  H    -4.300352    0.721482    0.931757
  O     0.738119    1.841672    0.499358
  C    -1.598670    1.368473    0.104927
  H    -2.526287    0.572099    1.733099
  S    -4.342964    1.121581   -0.340215
  N    -1.657236    1.057123    1.530648
  H    -0.894970    0.449613    1.811299
  C    -0.355500    2.233691   -0.163037
  H    -2.998198    2.987230    0.370695
  O    -0.333037    3.156363   -0.916266
  H     0.559376    1.090603    1.076970

----------------------------
CARTESIAN COORDINATES (A.U.)
----------------------------
  NO LB    ZA    FRAG    MASS        X           Y           Z
   0 H   1.0000    1     1.008   -2.852142    0.867475   -0.984140
   1 C   6.0000    1    12.011   -5.367244    4.061807   -0.582785
   2 H   1.0000    1     1.008   -5.116441    4.796390   -2.486087
   3 H   1.0000    1     1.008   -8.126488    1.363403    1.760766
   4 O   8.0000    1    15.999    1.394843    3.480256    0.943650
   5 C   6.0000    1    12.011   -3.021049    2.586040    0.198283
   6 H   1.0000    1     1.008   -4.773990    1.081110    3.275083
   7 S  16.0000    1    32.060   -8.207012    2.119481   -0.642913
   8 N   7.0000    1    14.007   -3.131722    1.997673    2.892505
   9 H   1.0000    1     1.008   -1.691248    0.849645    3.422860
  10 C   6.0000    1    12.011   -0.671798    4.221065   -0.308095
  11 H   1.0000    1     1.008   -5.665774    5.645047    0.700512
  12 O   8.0000    1    15.999   -0.629348    5.964662   -1.731491
  13 H   1.0000    1     1.008    1.057068    2.060941    2.035178

      -----------------------------------------------------------      
     |                   =====================                   |     
     |                           x T B                           |     
     |                   =====================                   |     
     |                         S. Grimme                         |     
     |          Mulliken Center for Theoretical Chemistry        |     
     |                    University of Bonn                     |     
      -----------------------------------------------------------      

   * xtb version 6.7.1 (edcfbbe) compiled by 'albert@albert-system' on 2024-07-22

   xtb is free software: you can redistribute it and/or modify it under
   the terms of the GNU Lesser General Public License as published by
   the Free Software Foundation, either version 3 of the License, or
   (at your option) any later version.
   
   xtb is distributed in the hope that it will be useful,
   but WITHOUT ANY WARRANTY; without even the implied warranty of
   MERCHANTABILITY or FITNESS FOR A PARTICULAR PURPOSE.  See the
   GNU Lesser General Public License for more details.
   
   Cite this work as:
   * C. Bannwarth, E. Caldeweyher, S. Ehlert, A. Hansen, P. Pracht,
     J. Seibert, S. Spicher, S. Grimme, WIREs Comput. Mol. Sci., 2020, 11,
     e01493. DOI: 10.1002/wcms.1493
   
   for GFN2-xTB:
   * C. Bannwarth, S. Ehlert and S. Grimme., J. Chem. Theory Comput., 2019,
     15, 1652-1671. DOI: 10.1021/acs.jctc.8b01176
   for GFN1-xTB:
   * S. Grimme, C. Bannwarth, P. Shushkov, J. Chem. Theory Comput., 2017,
     13, 1989-2009. DOI: 10.1021/acs.jctc.7b00118
   for GFN0-xTB:
   * P. Pracht, E. Caldeweyher, S. Ehlert, S. Grimme, ChemRxiv, 2019, preprint.
     DOI: 10.26434/chemrxiv.8326202.v1
   for GFN-FF:
   * S. Spicher and S. Grimme, Angew. Chem. Int. Ed., 2020, 59, 15665-15673.
     DOI: 10.1002/anie.202004239
   
   for ALPB and GBSA implicit solvation:
   * S. Ehlert, M. Stahn, S. Spicher, S. Grimme, J. Chem. Theory Comput.,
     2021, 17, 4250-4261. DOI: 10.1021/acs.jctc.1c00471
   
   for ddCOSMO and CPCM-X implicit solvation:
   * M. Stahn, S. Ehlert, S. Grimme, J. Phys. Chem. A,
     2023, XX, XXXX-XXXX. DOI: 10.1021/acs.jpca.3c04382
   
   for DFT-D4:
   * E. Caldeweyher, C. Bannwarth and S. Grimme, J. Chem. Phys., 2017,
     147, 034112. DOI: 10.1063/1.4993215
   * E. Caldeweyher, S. Ehlert, A. Hansen, H. Neugebauer, S. Spicher,
     C. Bannwarth and S. Grimme, J. Chem. Phys., 2019, 150, 154122.
     DOI: 10.1063/1.5090222
   * E. Caldeweyher, J.-M. Mewes, S. Ehlert and S. Grimme, Phys. Chem. Chem. Phys.
     2020, 22, 8499-8512. DOI: 10.1039/D0CP00502A
   
   for sTDA-xTB:
   * S. Grimme and C. Bannwarth, J. Chem. Phys., 2016, 145, 054103.
     DOI: 10.1063/1.4959605
   
   in the mass-spec context:
   * V. Asgeirsson, C. Bauer and S. Grimme, Chem. Sci., 2017, 8, 4879.
     DOI: 10.1039/c7sc00601b
   * J. Koopman and S. Grimme, ACS Omega 2019, 4, 12, 15120-15133.
     DOI: 10.1021/acsomega.9b02011
   
   for metadynamics refer to:
   * S. Grimme, J. Chem. Theory Comput., 2019, 155, 2847-2862
     DOI: 10.1021/acs.jctc.9b00143
   
   for SPH calculations refer to:
   * S. Spicher and S. Grimme, J. Chem. Theory Comput., 2021, 17, 1701-1714
     DOI: 10.1021/acs.jctc.0c01306
   
   for ONIOM refer to:
   * C. Plett, A. Katbashev, S. Ehlert, S. Grimme, M. Bursch,
     Phys. Chem. Chem. Phys., 2023, 25, 17860-17868. DOI: 10.1039/D3CP02178E
   
   for DIPRO refer to:
   * J. Kohn, N. Gildemeister, S. Grimme, D. Fazzi, A. Hansen,
     J. Chem. Phys., 2023, just accepted.
   
   for PTB refer to:
   * S. Grimme, M. Mueller, A. Hansen, J. Chem. Phys., 2023, 158, 124111.
     DOI: 10.1063/5.0137838
   
   with help from (in alphabetical order)
   P. Atkinson, C. Bannwarth, F. Bohle, G. Brandenburg, E. Caldeweyher
   M. Checinski, S. Dohm, S. Ehlert, S. Ehrlich, I. Gerasimov, C. Hölzer
   A. Katbashev, J. Kohn, J. Koopman, C. Lavigne, S. Lehtola, F. März, M. Müller,
   F. Musil, H. Neugebauer, J. Pisarek, C. Plett, P. Pracht, F. Pultar,
   J. Seibert, P. Shushkov, S. Spicher, M. Stahn, M. Steiner, T. Strunk,
   J. Stückrath, T. Rose, and J. Unsleber
   
 * started run on 2025/08/06 at 13:56:00.419     
   ID    Z sym.   atoms
    1    1 H      1, 3, 4, 7, 10, 12, 14
    2    6 C      2, 6, 11
    3    8 O      5, 13
    4   16 S      8
    5    7 N      9

           -------------------------------------------------
          |                Calculation Setup                |
           -------------------------------------------------

          program call               : /home/uni/orca_6_1_0/otool_xtb c_XTB.xyz --grad -c 0 -u 0 -P 9 --namespace c --input c_XTB.input.tmp --acc 0.200000
          calculation namespace      : c
          coordinate file            : c_XTB.xyz
          omp threads                :                     9


           -------------------------------------------------
          |                 G F N 2 - x T B                 |
           -------------------------------------------------

        Reference                      10.1021/acs.jctc.8b01176
      * Hamiltonian:
        H0-scaling (s, p, d)           1.850000    2.230000    2.230000
        zeta-weighting                 0.500000
      * Dispersion:
        s8                             2.700000
        a1                             0.520000
        a2                             5.000000
        s9                             5.000000
      * Repulsion:
        kExp                           1.500000    1.000000
        rExp                           1.000000
      * Coulomb:
        alpha                          2.000000
        third order                    shell-resolved
        anisotropic                    true
        a3                             3.000000
        a5                             4.000000
        cn-shift                       1.200000
        cn-exp                         4.000000
        max-rad                        5.000000

q/qsh data taken from xtbrestart
CAMM data taken from xtbrestart

          ...................................................
          :                      SETUP                      :
          :.................................................:
          :  # basis functions                  41          :
          :  # atomic orbitals                  40          :
          :  # shells                           22          :
          :  # electrons                        42          :
          :  max. iterations                   250          :
          :  Hamiltonian                  GFN2-xTB          :
          :  restarted?                       true          :
          :  GBSA solvation                  false          :
          :  PC potential                    false          :
          :  electronic temp.          300.0000000     K    :
          :  accuracy                    0.2000000          :
          :  -> integral cutoff          0.3198970E+02      :
          :  -> integral neglect         0.2000000E-08      :
          :  -> SCF convergence          0.2000000E-06 Eh   :
          :  -> wf. convergence          0.2000000E-04 e    :
          :  Broyden damping             0.4000000          :
          :  net charge                          0          :
          :  unpaired electrons                  0          :
          ...................................................

 iter      E             dE          RMSdq      gap      omega  full diag
   1    -24.4767164 -0.244767E+02  0.295E-01    3.64       0.0  T
   2    -24.4767388 -0.223024E-04  0.152E-01    3.63       1.0  T
   3    -24.4767420 -0.320666E-05  0.269E-02    3.63       1.0  T
   4    -24.4767433 -0.129805E-05  0.146E-02    3.63       1.8  T
   5    -24.4767435 -0.204798E-06  0.328E-03    3.63       8.2  T
   6    -24.4767435 -0.136423E-07  0.169E-03    3.63      15.8  T
   7    -24.4767435 -0.481057E-08  0.793E-04    3.63      33.7  T
   8    -24.4767435 -0.637904E-09  0.180E-04    3.63     148.5  T
   9    -24.4767435 -0.155858E-10  0.511E-05    3.63     522.9  T

   *** convergence criteria satisfied after 9 iterations ***

         #    Occupation            Energy/Eh            Energy/eV
      -------------------------------------------------------------
         1        2.0000           -0.7616935             -20.7267
       ...           ...                  ...                  ...
[...]
    29. A(H   0,C   5,C   1)          108.57 -0.000016    0.00    108.57   
    30. A(C   1,S   7,H   3)           96.74  0.000015   -0.00     96.74   
    31. A(H   6,N   8,H   9)          107.13 -0.000014   -0.02    107.11   
    32. A(C   5,N   8,H   9)          110.28 -0.000016   -0.00    110.27   
    33. A(C   5,N   8,H   6)          110.22  0.000030   -0.00    110.22   
    34. A(O   4,C  10,C   5)          112.85 -0.000001    0.01    112.86   
    35. A(C   5,C  10,O  12)          123.09 -0.000061    0.01    123.10   
    36. A(O   4,C  10,O  12)          124.04  0.000061   -0.02    124.02   
    37. D(N   8,C   5,C   1,H   2)    178.29 -0.000003   -0.03    178.26   
    38. D(H   0,C   5,C   1,H   2)    -55.44  0.000019   -0.04    -55.48   
    39. D(N   8,C   5,C   1,S   7)    -64.22 -0.000015   -0.04    -64.25   
    40. D(H   0,C   5,C   1,S   7)     62.05  0.000007   -0.05     62.00   
    41. D(H   0,C   5,C   1,H  11)   -176.54  0.000004   -0.04   -176.58   
    42. D(N   8,C   5,C   1,H  11)     57.19 -0.000018   -0.03     57.16   
    43. D(H   3,S   7,C   1,H  11)    -33.93  0.000003   -0.14    -34.07   
    44. D(H   3,S   7,C   1,C   5)     89.28  0.000005   -0.14     89.15   
    45. D(H   3,S   7,C   1,H   2)   -151.27  0.000002   -0.14   -151.41   
    46. D(H   9,N   8,C   5,C   1)    164.68 -0.000005    0.04    164.72   
    47. D(H   9,N   8,C   5,H   0)     41.58  0.000002    0.04     41.62   
    48. D(H   6,N   8,C   5,C  10)    162.45 -0.000005    0.06    162.51   
    49. D(H   6,N   8,C   5,H   0)    -76.50  0.000011    0.06    -76.44   
    50. D(H   9,N   8,C   5,C  10)    -79.47 -0.000013    0.04    -79.43   
    51. D(H   6,N   8,C   5,C   1)     46.60  0.000004    0.06     46.66   
    52. D(O  12,C  10,C   5,C   1)    -78.36  0.000011   -0.05    -78.42   
    53. D(O  12,C  10,C   5,H   0)     38.15 -0.000013   -0.05     38.10   
    54. D(O   4,C  10,C   5,N   8)    -19.39  0.000023   -0.06    -19.45   
    55. D(O   4,C  10,C   5,C   1)     99.69  0.000007   -0.06     99.63   
    56. D(O   4,C  10,C   5,H   0)   -143.81 -0.000017   -0.06   -143.86   
    57. D(O  12,C  10,O   4,H  13)   -178.22 -0.000019    0.03   -178.18   
    58. D(C   5,C  10,O   4,H  13)      3.75 -0.000012    0.04      3.79   
    ----------------------------------------------------------------------------

Geometry step timings:
Preparation and reading OPT file:      0.000 s ( 1.388 %)
Internal coordinates            :      0.000 s ( 1.487 %)
B/P matrices and projection     :      0.000 s (32.507 %)
Hessian update/contruction      :      0.000 s (14.767 %)
Making the step                 :      0.000 s (23.092 %)
Converting the step to Cartesian:      0.000 s ( 2.973 %)
Storing new data                :      0.000 s ( 1.388 %)
Checking convergence            :      0.000 s ( 2.775 %)
Final printing                  :      0.000 s (19.524 %)
Total time                      :      0.001 s
                 *******************************************************
                 *** FINAL ENERGY EVALUATION AT THE STATIONARY POINT ***
                 ***               (AFTER   24 CYCLES)               ***
                 *******************************************************
---------------------------------
CARTESIAN COORDINATES (ANGSTROEM)
---------------------------------
  H    -1.542637    0.446908   -0.847529
  C    -2.736131    2.119121   -0.215641
  H    -2.739892    2.537394   -1.220830
  H    -4.440613    1.368678    1.280733
  O     0.277255    2.487999    0.874983
  C    -1.519409    1.206522   -0.052930
  H    -2.365818    0.305137    1.576101
  S    -4.322643    1.220045   -0.039009
  N    -1.454967    0.656948    1.296439
  H    -0.809913   -0.126427    1.326773
  C    -0.282754    2.105201   -0.264829
  H    -2.723641    2.925707    0.515134
  O     0.099908    2.445354   -1.345734
  H    -0.205480    2.047949    1.610813

----------------------------
CARTESIAN COORDINATES (A.U.)
----------------------------
  NO LB    ZA    FRAG    MASS        X           Y           Z
   0 H   1.0000    1     1.008   -2.915161    0.844535   -1.601598
   1 C   6.0000    1    12.011   -5.170538    4.004558   -0.407502
   2 H   1.0000    1     1.008   -5.177646    4.794979   -2.307034
   3 H   1.0000    1     1.008   -8.391542    2.586427    2.420235
   4 O   8.0000    1    15.999    0.523937    4.701636    1.653478
   5 C   6.0000    1    12.011   -2.871267    2.279996   -0.100024
   6 H   1.0000    1     1.008   -4.470748    0.576625    2.978399
   7 S  16.0000    1    32.060   -8.168612    2.305551   -0.073716
   8 N   7.0000    1    14.007   -2.749488    1.241452    2.449914
   9 H   1.0000    1     1.008   -1.530514   -0.238912    2.507238
  10 C   6.0000    1    12.011   -0.534328    3.978253   -0.500454
  11 H   1.0000    1     1.008   -5.146936    5.528785    0.973462
  12 O   8.0000    1    15.999    0.188799    4.621049   -2.543069
  13 H   1.0000    1     1.008   -0.388301    3.870062    3.043995

      -----------------------------------------------------------      
     |                   =====================                   |     
     |                           x T B                           |     
     |                   =====================                   |     
     |                         S. Grimme                         |     
     |          Mulliken Center for Theoretical Chemistry        |     
     |                    University of Bonn                     |     
      -----------------------------------------------------------      

   * xtb version 6.7.1 (edcfbbe) compiled by 'albert@albert-system' on 2024-07-22

   xtb is free software: you can redistribute it and/or modify it under
   the terms of the GNU Lesser General Public License as published by
   the Free Software Foundation, either version 3 of the License, or
   (at your option) any later version.
   
   xtb is distributed in the hope that it will be useful,
   but WITHOUT ANY WARRANTY; without even the implied warranty of
   MERCHANTABILITY or FITNESS FOR A PARTICULAR PURPOSE.  See the
   GNU Lesser General Public License for more details.
   
   Cite this work as:
   * C. Bannwarth, E. Caldeweyher, S. Ehlert, A. Hansen, P. Pracht,
     J. Seibert, S. Spicher, S. Grimme, WIREs Comput. Mol. Sci., 2020, 11,
     e01493. DOI: 10.1002/wcms.1493
   
   for GFN2-xTB:
   * C. Bannwarth, S. Ehlert and S. Grimme., J. Chem. Theory Comput., 2019,
     15, 1652-1671. DOI: 10.1021/acs.jctc.8b01176
   for GFN1-xTB:
   * S. Grimme, C. Bannwarth, P. Shushkov, J. Chem. Theory Comput., 2017,
     13, 1989-2009. DOI: 10.1021/acs.jctc.7b00118
   for GFN0-xTB:
   * P. Pracht, E. Caldeweyher, S. Ehlert, S. Grimme, ChemRxiv, 2019, preprint.
     DOI: 10.26434/chemrxiv.8326202.v1
   for GFN-FF:
   * S. Spicher and S. Grimme, Angew. Chem. Int. Ed., 2020, 59, 15665-15673.
     DOI: 10.1002/anie.202004239
   
   for ALPB and GBSA implicit solvation:
   * S. Ehlert, M. Stahn, S. Spicher, S. Grimme, J. Chem. Theory Comput.,
     2021, 17, 4250-4261. DOI: 10.1021/acs.jctc.1c00471
   
   for ddCOSMO and CPCM-X implicit solvation:
   * M. Stahn, S. Ehlert, S. Grimme, J. Phys. Chem. A,
     2023, XX, XXXX-XXXX. DOI: 10.1021/acs.jpca.3c04382
   
   for DFT-D4:
   * E. Caldeweyher, C. Bannwarth and S. Grimme, J. Chem. Phys., 2017,
     147, 034112. DOI: 10.1063/1.4993215
   * E. Caldeweyher, S. Ehlert, A. Hansen, H. Neugebauer, S. Spicher,
     C. Bannwarth and S. Grimme, J. Chem. Phys., 2019, 150, 154122.
     DOI: 10.1063/1.5090222
   * E. Caldeweyher, J.-M. Mewes, S. Ehlert and S. Grimme, Phys. Chem. Chem. Phys.
     2020, 22, 8499-8512. DOI: 10.1039/D0CP00502A
   
   for sTDA-xTB:
   * S. Grimme and C. Bannwarth, J. Chem. Phys., 2016, 145, 054103.
     DOI: 10.1063/1.4959605
   
   in the mass-spec context:
   * V. Asgeirsson, C. Bauer and S. Grimme, Chem. Sci., 2017, 8, 4879.
     DOI: 10.1039/c7sc00601b
   * J. Koopman and S. Grimme, ACS Omega 2019, 4, 12, 15120-15133.
     DOI: 10.1021/acsomega.9b02011
   
   for metadynamics refer to:
   * S. Grimme, J. Chem. Theory Comput., 2019, 155, 2847-2862
     DOI: 10.1021/acs.jctc.9b00143
   
   for SPH calculations refer to:
   * S. Spicher and S. Grimme, J. Chem. Theory Comput., 2021, 17, 1701-1714
     DOI: 10.1021/acs.jctc.0c01306
   
   for ONIOM refer to:
   * C. Plett, A. Katbashev, S. Ehlert, S. Grimme, M. Bursch,
     Phys. Chem. Chem. Phys., 2023, 25, 17860-17868. DOI: 10.1039/D3CP02178E
   
   for DIPRO refer to:
   * J. Kohn, N. Gildemeister, S. Grimme, D. Fazzi, A. Hansen,
     J. Chem. Phys., 2023, just accepted.
   
   for PTB refer to:
   * S. Grimme, M. Mueller, A. Hansen, J. Chem. Phys., 2023, 158, 124111.
     DOI: 10.1063/5.0137838
   
   with help from (in alphabetical order)
   P. Atkinson, C. Bannwarth, F. Bohle, G. Brandenburg, E. Caldeweyher
   M. Checinski, S. Dohm, S. Ehlert, S. Ehrlich, I. Gerasimov, C. Hölzer
   A. Katbashev, J. Kohn, J. Koopman, C. Lavigne, S. Lehtola, F. März, M. Müller,
   F. Musil, H. Neugebauer, J. Pisarek, C. Plett, P. Pracht, F. Pultar,
   J. Seibert, P. Shushkov, S. Spicher, M. Stahn, M. Steiner, T. Strunk,
   J. Stückrath, T. Rose, and J. Unsleber
   
 * started run on 2025/08/06 at 13:56:00.918     
   ID    Z sym.   atoms
    1    1 H      1, 3, 4, 7, 10, 12, 14
    2    6 C      2, 6, 11
    3    8 O      5, 13
    4   16 S      8
    5    7 N      9

           -------------------------------------------------
          |                Calculation Setup                |
           -------------------------------------------------

          program call               : /home/uni/orca_6_1_0/otool_xtb c_XTB.xyz --grad -c 0 -u 0 -P 9 --namespace c --input c_XTB.input.tmp --acc 0.200000
          calculation namespace      : c
          coordinate file            : c_XTB.xyz
          omp threads                :                     9


           -------------------------------------------------
          |                 G F N 2 - x T B                 |
           -------------------------------------------------

        Reference                      10.1021/acs.jctc.8b01176
      * Hamiltonian:
        H0-scaling (s, p, d)           1.850000    2.230000    2.230000
        zeta-weighting                 0.500000
      * Dispersion:
        s8                             2.700000
        a1                             0.520000
        a2                             5.000000
        s9                             5.000000
      * Repulsion:
        kExp                           1.500000    1.000000
        rExp                           1.000000
      * Coulomb:
        alpha                          2.000000
        third order                    shell-resolved
        anisotropic                    true
        a3                             3.000000
        a5                             4.000000
        cn-shift                       1.200000
        cn-exp                         4.000000
        max-rad                        5.000000

q/qsh data taken from xtbrestart
CAMM data taken from xtbrestart

          ...................................................
          :                      SETUP                      :
          :.................................................:
          :  # basis functions                  41          :
          :  # atomic orbitals                  40          :
          :  # shells                           22          :
          :  # electrons                        42          :
          :  max. iterations                   250          :
          :  Hamiltonian                  GFN2-xTB          :
          :  restarted?                       true          :
          :  GBSA solvation                  false          :
          :  PC potential                    false          :
          :  electronic temp.          300.0000000     K    :
          :  accuracy                    0.2000000          :
          :  -> integral cutoff          0.3198970E+02      :
          :  -> integral neglect         0.2000000E-08      :
          :  -> SCF convergence          0.2000000E-06 Eh   :
          :  -> wf. convergence          0.2000000E-04 e    :
          :  Broyden damping             0.4000000          :
          :  net charge                          0          :
          :  unpaired electrons                  0          :
          ...................................................

 iter      E             dE          RMSdq      gap      omega  full diag
   1    -24.4854814 -0.244855E+02  0.818E-03    3.87       0.0  T
   2    -24.4854814 -0.120117E-07  0.399E-03    3.87       6.7  T
   3    -24.4854814 -0.317718E-08  0.479E-04    3.87      55.7  T
   4    -24.4854814  0.151346E-11  0.131E-04    3.87     204.1  T
   5    -24.4854814 -0.789377E-10  0.355E-05    3.87     753.0  T

   *** convergence criteria satisfied after 5 iterations ***

         #    Occupation            Energy/Eh            Energy/eV
      -------------------------------------------------------------
         1        2.0000           -0.7518642             -20.4593
       ...           ...                  ...                  ...
        15        2.0000           -0.5035536             -13.7024
        16        2.0000           -0.4951751             -13.4744
        17        2.0000           -0.4806286             -13.0786
        18        2.0000           -0.4751750             -12.9302
        19        2.0000           -0.4352553             -11.8439
        20        2.0000           -0.4136296             -11.2554
        21        2.0000           -0.3913602             -10.6495 (HOMO)
        22                         -0.2490555              -6.7771 (LUMO)
        23                         -0.2156551              -5.8683
        24                         -0.1423400              -3.8733
        25                         -0.0402815              -1.0961
        26                         -0.0277660              -0.7556
       ...                                ...                  ...
        40                          0.6457322              17.5713
      -------------------------------------------------------------
                  HL-Gap            0.1423047 Eh            3.8723 eV
             Fermi-level           -0.3202078 Eh           -8.7133 eV

 SCC (total)                   0 d,  0 h,  0 min,  0.007 sec
 SCC setup                      ...        0 min,  0.000 sec (  1.249%)
 Dispersion                     ...        0 min,  0.000 sec (  1.389%)
 classical contributions        ...        0 min,  0.000 sec (  0.576%)
 integral evaluation            ...        0 min,  0.002 sec ( 23.524%)
 iterations                     ...        0 min,  0.004 sec ( 57.676%)
 molecular gradient             ...        0 min,  0.001 sec ( 14.534%)
 printout                       ...        0 min,  0.000 sec (  0.857%)

         :::::::::::::::::::::::::::::::::::::::::::::::::::::
         ::                     SUMMARY                     ::
         :::::::::::::::::::::::::::::::::::::::::::::::::::::
         :: total energy             -24.279084989025 Eh    ::
         :: gradient norm              0.000181232926 Eh/a0 ::
         :: HOMO-LUMO gap              3.872307966672 eV    ::
         ::.................................................::
         :: SCC energy               -24.485461854243 Eh    ::
         :: -> isotropic ES            0.060223288518 Eh    ::
         :: -> anisotropic ES          0.000366228614 Eh    ::
         :: -> anisotropic XC          0.008267722010 Eh    ::
         :: -> dispersion             -0.009681366350 Eh    ::
         :: repulsion energy           0.206376865218 Eh    ::
         :: add. restraining           0.000000000000 Eh    ::
         :: total charge               0.000000000000 e     ::
         :::::::::::::::::::::::::::::::::::::::::::::::::::::


Property printout bound to 'properties.out'

           -------------------------------------------------
          | TOTAL ENERGY              -24.279084989025 Eh   |
          | GRADIENT NORM               0.000181232926 Eh/α |
          | HOMO-LUMO GAP               3.872307966672 eV   |
           -------------------------------------------------

------------------------------------------------------------------------
 * finished run on 2025/08/06 at 13:56:00.931     
------------------------------------------------------------------------
 total:
 * wall-time:     0 d,  0 h,  0 min,  0.013 sec
 *  cpu-time:     0 d,  0 h,  0 min,  0.021 sec
 * ratio c/w:     1.599 speedup
 SCF:
 * wall-time:     0 d,  0 h,  0 min,  0.007 sec
 *  cpu-time:     0 d,  0 h,  0 min,  0.013 sec
 * ratio c/w:     1.844 speedup


-------------------------   --------------------
FINAL SINGLE POINT ENERGY       -24.279084989030
-------------------------   --------------------


-------------
DIPOLE MOMENT
-------------
                                X             Y             Z
Total Dipole Moment    :     -0.63900      -0.83700       1.54500
                        -----------------------------------------
Magnitude (a.u.)       :      1.86974
Magnitude (Debye)      :      4.75249

                                *** OPTIMIZATION RUN DONE ***

		     ------------------------------
			                   _   
			                  | |  
			  __ _  ___   __ _| |_ 
			 / _` |/ _ \ / _` | __|
			| (_| | (_) | (_| | |_ 
			 \__, |\___/ \__,_|\__|
			 __/ |                
			|___/                 

		      A Global Optimizer Algorithm
		     ------------------------------

Global parameters
-----------------
  GOAT version                               ... default
  Minimum global steps                       ... 3
  Number of base workers                     ... 4
  Split workers by                           ... 2
  Final number of workers                    ... 8
  Number of available CPUs                   ... 9
  Parameter list (worker : temperature)      ...  0 : 2903.97,  1 : 1451.98, 
                                                  2 :  725.99,  3 :  363.00, 
                                                  4 : 2903.97,  5 : 1451.98, 
                                                  6 :  725.99,  7 :  363.00 
  GradComp (mean : sigma)                    ... 1.00 : 0.50
  Number of fragments                        ... 1
  Number of atoms                            ... 14
  Flexibility parameter                      ... 0.80
  Optimizations per global step              ... 160
  Optimizations per worker                   ... 20

Filtering criteria
------------------
  RMSD                                       ... 0.125 Angs (atom. pos.)
  EnDiff                                     ... 0.100 kcal/mol
  RotConst                                   ... 1.00-2.50 %
  Maximum Conf. Energy                       ... 6.000 kcal/mol

Thermodynamics
--------------
  Ensemble temperature                       ... 298.15 K
  Degeneracy of conformers                   ... 1
  *No rotamers will be included in Gconf

------------------------------------------------------------------------------
   Iter  MinTemp     MaxEn       GradComp    NOpt   NProcs    Output
------------------------------------------------------------------------------
List of participating nodes    ...  c.goat.0.hostnames

   0     2903.97     42.00    1.00 : 0.50      20        1    c.goat.0.0.out
   1     1451.98     42.00    1.00 : 0.50      20        1    c.goat.0.1.out
   3      363.00     42.00    1.00 : 0.50      20        1    c.goat.0.3.out
   4     2903.97     42.00    1.00 : 0.50      20        1    c.goat.0.4.out
   7      363.00     42.00    1.00 : 0.50      20        1    c.goat.0.7.out
   6      725.99     42.00    1.00 : 0.50      20        1    c.goat.0.6.out
   2      725.99     42.00    1.00 : 0.50      20        1    c.goat.0.2.out
   5     1451.98     42.00    1.00 : 0.50      20        1    c.goat.0.5.out
