
                                 *****************
                                 * O   R   C   A *
                                 *****************

                                            #,                                       
                                            ###                                      
                                            ####                                     
                                            #####                                    
                                            ######                                   
                                           ########,                                 
                                     ,,################,,,,,                         
                               ,,#################################,,                 
                          ,,##########################################,,             
                       ,#########################################, ''#####,          
                    ,#############################################,,   '####,        
                  ,##################################################,,,,####,       
                ,###########''''           ''''###############################       
              ,#####''   ,,,,##########,,,,          '''####'''          '####       
            ,##' ,,,,###########################,,,                        '##       
           ' ,,###''''                  '''############,,,                           
         ,,##''                                '''############,,,,        ,,,,,,###''
      ,#''                                            '''#######################'''  
     '                                                          ''''####''''         
             ,#######,   #######,   ,#######,      ##                                
            ,#'     '#,  ##    ##  ,#'     '#,    #''#        ,####,    ,#,          
            ##       ##  ##   ,#'  ##            #'  '#       #'       ,# #          
            ##       ##  #######   ##           ,######,      #####,      #          
            '#,     ,#'  ##    ##  '#,     ,#' ,#      #,     #,   #      #          
             '#######'   ##     ##  '#######'  #'      '#     '####' #    #          



                #########################################################
                #                        -***-                          #
                #          Department of theory and spectroscopy        #
                #                                                       #
                #                      Frank Neese                      #
                #                                                       #
                #     Directorship, Architecture, Infrastructure        #
                #                    SHARK, DRIVERS                     #
                #        Core code/Algorithms in most modules           #
                #                                                       #
                #        Max Planck Institute fuer Kohlenforschung      #
                #                Kaiser Wilhelm Platz 1                 #
                #                 D-45470 Muelheim/Ruhr                 #
                #                      Germany                          #
                #                                                       #
                #                  All rights reserved                  #
                #                        -***-                          #
                #########################################################


                         Program Version 6.1.0  -  RELEASE   -
                                (GIT: $679e74b$)
                          ($2025-06-10 18:02:51 +0200$)


 With contributions from (in alphabetic order):
[Max-Planck-Institut fuer Kohlenforschung]                               
  Daniel Aravena         : Magnetic Suceptibility                        
  Michael Atanasov       : Ab Initio Ligand Field Theory (pilot matlab implementation)
  Alexander A. Auer      : GIAO ZORA, VPT2 properties, NMR spectrum      
  Ute Becker             : All parallelization in ORCA, NUMFREQ, NUMCALC 
  Giovanni Bistoni       : ED, misc. LED, open-shell LED, HFLD           
  Dmytro Bykov           : pre 5.0 version of the SCF Hessian            
  Marcos Casanova-Páez   : Triplet and SCS-CIS(D). UHF-(DLPNO)-IP/EA/STEOM-CCSD. UHF-CVS-IP/STEOM-CCSD   
  Vijay G. Chilkuri      : MRCI spin determinant printing, contributions to CSF-ICE 
  Pauline Colinet        : FMM embedding                                 
  Dipayan Datta          : RHF DLPNO-CCSD density                        
  Achintya Kumar Dutta   : EOM-CC, STEOM-CC                              
  Nicolas Foglia         : Exact transition moments, OPA infrastructure, MCD improvements    
  Dmitry Ganyushin       : Spin-Orbit,Spin-Spin,Magnetic field MRCI      
  Miquel Garcia-Rates    : C-PCM and meta-GGA Hessian, CCSD/C-PCM, Gaussian charge scheme 
  Tiago L. C. Gouveia    : GS-ROHF, GS-ROCIS                             
  Yang Guo               : DLPNO-NEVPT2, F12-NEVPT2, CIM, IAO-localization        
  Andreas Hansen         : Spin unrestricted coupled pair/coupled cluster methods 
  Ingolf Harden          : AUTO-CI MPn and infrastructure                
  Benjamin Helmich-Paris : MC-RPA, TRAH-(SCF,CASSCF), AVAS, COSX integrals, SCF dyn. polar., MC-PDFT, srDFT 
  Lee Huntington         : MR-EOM, pCC                                   
  Robert Izsak           : Overlap fitted RIJCOSX, COSX-SCS-MP3, EOM     
  Riya Kayal             : Wick's Theorem for AUTO-CI, AUTO-CI UHF-CCSDT 
  Emily Kempfer          : AUTO-CI RHF CISDT and CCSDT, approximate NEVPT4
  Christian Kollmar      : KDIIS, OOCD, Brueckner-CCSD(T), CCSD density, CASPT2, CASPT2-K, improved NEVPT2 
  Axel Koslowski         : Symmetry handling                             
  Simone Kossmann        : meta-GGA functionals, TD-DFT gradient, OOMP2, (MP2 Hessian; deprecated post 5.0) 
  Lucas Lang             : DCDCAS, Hyperfine gauge corrections, ICE-SOC+SSC
  Marvin Lechner         : AUTO-CI (C++ implementation), FIC-MRCC        
  Spencer Leger          : CASSCF response                               
  Dagmar Lenk            : GEPOL surface, SMD, ORCA-2-JSON               
  Dimitrios Liakos       : Extrapolation schemes; Compound Job, Property file
  Dimitrios Manganas     : Further ROCIS development; embedding schemes. LFT, Crystal Embedding 
  Dimitrios Pantazis     : SARC Basis sets                               
  Anastasios Papadopoulos: AUTO-CI, single reference methods and gradients 
  Taras Petrenko         : pre 6.0 DFT Hessian and TD-DFT gradient,  ECA, NRVS 
  Petra Pikulova         : Analytic Raman intensities                    
  Peter Pinski           : DLPNO-MP2, DLPNO-MP2 Gradient                 
  Shashank Vittal Rao    : ES-AILFT, MagRelax                            
  Christoph Reimann      : Effective Core Potentials                     
  Marius Retegan         : Local ZFS, SOC                                
  Christoph Riplinger    : Optimizer, TS searches, QM/MM, DLPNO-CCSD(T), (RO)-DLPNO pert. Triples 
  Michael Roemelt        : Original ROCIS implementation, recursive CI coupling coefficients
  Masaaki Saitow         : Open-shell DLPNO-CCSD energy and density      
  Barbara Sandhoefer     : DKH picture change effects                    
  Yorick L. A. Schmerwitz: GMF and freeze-and-release deltaSCF, NEB S-IDPP initial path                    
  Kantharuban Sivalingam : CASSCF convergence/infrastructure, NEVPT2, NEVPT3, NEVPT4(SD), FIC-MRCI and CEPA variants
  Bernardo de Souza      : ESD, SOC TD-DFT                               
  Georgi L. Stoychev     : AutoAux, RI-MP2 NMR, DLPNO-MP2 response, X2C  
  Van Anh Tran           : RI-MP2 g-tensors                              
  Willem Van den Heuvel  : Paramagnetic NMR                              
  Zikuan Wang            : NOTCH, Electric field optimization            
  Frank Wennmohs         : Technical directorship and infrastructure     
  Hang Xu                : AUTO-CI-Response properties                   
                                                                         
[FACCTs GmbH]                                                            
  Markus Bursch, Nicolas Foglia, Miquel Garcia-Rates, Ingolf Harden, Hagen Neugebauer, Anastasios Papadopoulos, 
  Christoph Riplinger, Bernardo de Souza, Georgi L. Stoychev                                                    
                                                                 
  APM, various basis sets, CI-OPT, improved COSX, DLPNO-Multilevel,           
  DOCKER, DRACO, updates on ESD, Fragmentator, GOAT, IRC, LR-CPCM, L-BFGS, MBIS, meta-GGA TD-DFT gradient, ML-optimized integration grids, 
  MM, NACMEs, nearIR, NEB, NEB-TS, NL-DFT gradient (VV10), 2- and 3-layer-ONIOM, interface openCOSMO-RS, QMMM,   
  Crystal-QMMM, RESP, rigid body optimization, SF, symmetry and pop. for TD-DFT, various functionals, SOLVATOR                                   
                                                                         
[Other institutions]                                                     
  V. Asgeirsson          : NEB                                           
  Christoph Bannwarth    : sTDA-DFT, sTD-DFT, PBEh-3c, B97-3c, D3        
  Giovanni Bistoni       : ETS/NOCV, ADLD/ADEX, COVALED                  
  Martin Brehm           : Molecular dynamics                            
  Ronald Cardenas        : ETS/NOCV                                      
  Martina Colucci        : COVALED                                       
  Sebastian Ehlert       : rSCAN, r2SCAN, r2SCAN-3c, D4, dhf basis sets  
  Marvin Friede          : D4 for Fr, Ra, Ac-Lr                          
  Lars Goerigk           : TD-DFT with DH, B97 family of functionals     
  Stefan Grimme          : VdW corrections, initial TS optimization, DFT functionals, gCP, sTDA/sTD-DF 
  Waldemar Hujo          : DFT-NL                                        
  H. Jonsson             : NEB                                           
  Holger Kruse           : gCP                                           
  Marcel Mueller         : wB97X-3c, vDZP basis set                      
  Hagen Neugebauer       : wr2SCAN, Native XTB                           
  Gianluca Regni         : ADLD/ADEX                                     
  Tobias Risthaus        : pre 6.0 range-separated hybrid DFT and stability analysis
  Lukas Wittmann         : regularized MP2, r2SCAN double-hybrids, wr2SCAN        
                                                                         
We gratefully acknowledge several colleagues who have allowed us to      
interface, adapt or use parts of their codes:                            
  Ed Valeev, F. Pavosevic, A. Kumar             : LibInt (2-el integral package), F12 methods 
  Garnet Chan, S. Sharma, J. Yang, R. Olivares  : DMRG                   
  Ulf Ekstrom                                   : XCFun DFT Library      
  Mihaly Kallay                                 : mrcc  (arbitrary order and MRCC methods)
  Frank Weinhold                                : gennbo (NPA and NBO analysis)           
  Simon Mueller                                 : openCOSMO-RS                            
  Christopher J. Cramer and Donald G. Truhlar   : smd solvation model                     
  S Lehtola, MJT Oliveira, MAL Marques          : LibXC Library                           
  Liviu Ungur et al                             : ANISO software                          


 Your calculation uses the libint2 library for the computation of 2-el integrals
 For citations please refer to: http://libint.valeyev.net

 Your ORCA version has been built with support for libXC version: 7.0.0
 For citations please refer to: https://libxc.gitlab.io

 This ORCA versions uses:
   CBLAS   interface :  Fast vector & matrix operations
   LAPACKE interface :  Fast linear algebra routines
   SCALAPACK package :  Parallel linear algebra routines
   Shared memory     :  Shared parallel matrices
   BLAS/LAPACK       :  OpenBLAS 0.3.29  USE64BITINT DYNAMIC_ARCH NO_AFFINITY Haswell SINGLE_THREADED
        Core in use  :  Haswell
   Copyright (c) 2011-2014, The OpenBLAS Project


  ***********************************
  * Starting time: Sat Aug 30 13:00:58 2025
  * Host name:     chemlab03
  * Process ID:    72568
  * Working dir.:  /home/vivek/mm-project/vivek/xtb-goat/B97-D-opt/a/0
  ***********************************



***************************************
The coordinates will be read from file: /home/vivek/mm-project/vivek/xtb-goat/xtb-goat/a/A_CONF/0.xyz
***************************************


Your calculation utilizes empirical dispersion correction


Warning: RI is on but no J-basis has been assigned. Assigning Def2/J (nothing to worry about!)
================================================================================

----- Orbital basis set information -----
Your calculation utilizes the basis: 6-31G**
   H-He, Li-Ne : W. J. Hehre, R. Ditchfield and J.A. Pople, J. Chem. Phys. 56, 2257 (1972).
                 Note: He and Ne are unpublished basis sets taken from the Gaussian program.
                 Note: Li and B from J. D. Dill and J. A. Pople, J. Chem. Phys. 62, 2921 (1975).
   Na - Ar     : M. M. Francl, W. J. Pietro, W. J. Hehre, J. S. Binkley, M. S. Gordon, 
                 D. J. DeFrees and J. A. Pople, J. Chem. Phys. 77, 3654 (1982).
   K - Zn      : V. A. Rassolov, J. A. Pople, M. A. Ratner, and T. L. Windus, J. Chem. Phys. 109, 1223 (1998).

----- AuxJ basis set information -----
Your calculation utilizes the auxiliary basis: def2/J
   H-Rn: F. Weigend, Phys. Chem. Chem. Phys. 8, 1057 (2006).
   Fr-Lr: K. Eichkorn, F. Weigend, O. Treutler, R. Ahlrichs; Theor. Chem. Acc. 97, 119 (1997).

================================================================================
                                        WARNINGS
                       Please study these warnings very carefully!
================================================================================


WARNING: Geometry Optimization
  ===> : Switching off AutoStart
         For restart on a previous wavefunction, please use MOREAD

INFO   : The exchange functional is Grimme's B97(-D)
         As described in S. Grimme, J. Comput. Chem. 27, 1787 (2006).
         Note that this functional defaults to a pure GGA. 

INFO   : The correlation functional is Grimme's B97(-D)
         As described in S. Grimme, J. Comput. Chem. 27, 1787 (2006).

================================================================================
                                       INPUT FILE
================================================================================
NAME = 0.inp
|  1> ! B97-D 6-31G** opt
|  2> 
|  3> * xyzfile 0 1 /home/vivek/mm-project/vivek/xtb-goat/xtb-goat/a/A_CONF/0.xyz
|  4> 
|  5>                          ****END OF INPUT****
================================================================================

                       *****************************
                       * Geometry Optimization Run *
                       *****************************

Geometry optimization settings:
Update method            Update   .... BFGS
Choice of coordinates    CoordSys .... (2022) Redundant Internals
Initial Hessian          InHess   .... Almloef's Model
Max. no of cycles        MaxIter  .... 50

Convergence Tolerances:
Energy Change            TolE     ....  5.0000e-06 Eh
Max. Gradient            TolMAXG  ....  3.0000e-04 Eh/bohr
RMS Gradient             TolRMSG  ....  1.0000e-04 Eh/bohr
Max. Displacement        TolMAXD  ....  4.0000e-03 bohr
RMS Displacement         TolRMSD  ....  2.0000e-03 bohr
Strict Convergence                .... False

------------------------------------------------------------------------------
                        ORCA OPTIMIZATION COORDINATE SETUP
------------------------------------------------------------------------------

The optimization will be done in redundant internal coordinates (2022)
Making redundant internal coordinates   ...  (2022 redundants) done
Evaluating the initial hessian          ...  (Almloef) done
Evaluating the coordinates              ...  done
Calculating the B-matrix                .... done
Calculating the G-matrix                .... done
The number of degrees of freedom        ....   49

    -----------------------------------------------------------------
                    Redundant Internal Coordinates


    -----------------------------------------------------------------
         Definition                    Initial Value    Approx d2E/dq
    -----------------------------------------------------------------
      1. B(O   1,C   0)                  1.2028         1.113137   
      2. B(O   2,C   0)                  1.3372         0.679491   
      3. B(C   3,C   0)                  1.5256         0.379685   
      4. B(H   4,O   2)                  0.9709         0.499550   
      5. B(C   5,C   3)                  1.5316         0.371381   
      6. B(H   6,C   5)                  1.0858         0.365635   
      7. B(N   7,C   3)                  1.4482         0.451871   
      8. B(H   8,C   5)                  1.0861         0.365292   
      9. B(H   9,C   5)                  1.0880         0.362788   
     10. B(H  10,C   3)                  1.0959         0.352327   
     11. B(H  11,N   7)                  1.0146         0.425420   
     12. B(H  12,N   7)                  1.0158         0.423655   
     13. A(O   1,C   0,C   3)          124.5286         0.438652   
     14. A(O   2,C   0,C   3)          112.5833         0.401692   
     15. A(O   1,C   0,O   2)          122.8879         0.484601   
     16. A(C   0,O   2,H   4)          110.5401         0.373418   
     17. A(C   0,C   3,H  10)          107.8864         0.324021   
     18. A(C   0,C   3,N   7)          112.6645         0.374113   
     19. A(C   0,C   3,C   5)          108.6461         0.363994   
     20. A(C   5,C   3,N   7)          109.8821         0.372690   
     21. A(N   7,C   3,H  10)          108.5411         0.331453   
     22. A(C   5,C   3,H  10)          109.1510         0.322848   
     23. A(H   8,C   5,H   9)          109.1986         0.291836   
     24. A(H   6,C   5,H   9)          108.6653         0.291879   
     25. A(C   3,C   5,H   6)          108.9528         0.324818   
     26. A(C   3,C   5,H   9)          110.1308         0.324401   
     27. A(H   6,C   5,H   8)          109.5521         0.292195   
     28. A(C   3,C   5,H   8)          110.3150         0.324768   
     29. A(H  11,N   7,H  12)          106.9203         0.301416   
     30. A(C   3,N   7,H  12)          109.4765         0.338838   
     31. A(C   3,N   7,H  11)          110.4131         0.339073   
     32. D(H   4,O   2,C   0,O   1)      0.9554         0.034385   
     33. D(H   4,O   2,C   0,C   3)   -178.8909         0.034385   
     34. D(N   7,C   3,C   0,O   1)     12.3428         0.010758   
     35. D(N   7,C   3,C   0,O   2)   -167.8138         0.010758   
     36. D(C   5,C   3,C   0,O   2)     70.1896         0.010758   
     37. D(H  10,C   3,C   0,O   1)    132.1355         0.010758   
     38. D(C   5,C   3,C   0,O   1)   -109.6537         0.010758   
     39. D(H   8,C   5,C   3,H  10)     56.3770         0.011021   
     40. D(H   8,C   5,C   3,N   7)    175.2938         0.011021   
     41. D(H   8,C   5,C   3,C   0)    -61.0307         0.011021   
     42. D(H   6,C   5,C   3,H  10)    -63.9178         0.011021   
     43. D(H   6,C   5,C   3,N   7)     54.9991         0.011021   
     44. D(H   6,C   5,C   3,C   0)    178.6745         0.011021   
     45. D(H  11,N   7,C   3,C   5)   -179.2001         0.017420   
     46. D(H  11,N   7,C   3,C   0)     59.5042         0.017420   
     47. D(H  12,N   7,C   3,C   5)     63.3477         0.017420   
     48. D(H  12,N   7,C   3,C   0)    -57.9480         0.017420   
     49. D(H  11,N   7,C   3,H  10)    -59.9093         0.017420   
    -----------------------------------------------------------------

Number of atoms                         .... 13
Number of degrees of freedom            .... 49


         *************************************************************
         *                GEOMETRY OPTIMIZATION CYCLE   1            *
         *************************************************************
---------------------------------
CARTESIAN COORDINATES (ANGSTROEM)
---------------------------------
  C     -4.502435   -0.095038   -1.877922
  O     -3.517902   -0.723381   -2.165319
  O     -4.458549    1.179005   -1.474341
  C     -5.924915   -0.643657   -1.932435
  H     -3.543238    1.502730   -1.467164
  C     -6.664913    0.028621   -3.092717
  H     -7.671047   -0.375592   -3.150771
  N     -5.962341   -2.082542   -2.092139
  H     -6.713022    1.102508   -2.937563
  H     -6.153291   -0.174725   -4.031112
  H     -6.421949   -0.384505   -0.990691
  H     -5.485402   -2.536788   -1.320354
  H     -5.466716   -2.342207   -2.939895

----------------------------
CARTESIAN COORDINATES (A.U.)
----------------------------
  NO LB      ZA    FRAG     MASS         X           Y           Z
   0 C     6.0000    0    12.011   -8.508368   -0.179596   -3.548758
   1 O     8.0000    0    15.999   -6.647871   -1.366991   -4.091860
   2 O     8.0000    0    15.999   -8.425437    2.227996   -2.786100
   3 C     6.0000    0    12.011  -11.196467   -1.216336   -3.651773
   4 H     1.0000    0     1.008   -6.695750    2.839749   -2.772538
   5 C     6.0000    0    12.011  -12.594860    0.054086   -5.844388
   6 H     1.0000    0     1.008  -14.496179   -0.709766   -5.954095
   7 N     7.0000    0    14.007  -11.267191   -3.935434   -3.953569
   8 H     1.0000    0     1.008  -12.685772    2.083439   -5.551190
   9 H     1.0000    0     1.008  -11.628035   -0.330183   -7.617697
  10 H     1.0000    0     1.008  -12.135725   -0.726609   -1.872135
  11 H     1.0000    0     1.008  -10.365907   -4.793835   -2.495108
  12 H     1.0000    0     1.008  -10.330597   -4.426130   -5.555596

--------------------------------
INTERNAL COORDINATES (ANGSTROEM)
--------------------------------
 C      0   0   0     0.000000000000     0.00000000     0.00000000
 O      1   0   0     1.202795364676     0.00000000     0.00000000
 O      1   2   0     1.337156709409   122.88792863     0.00000000
 C      1   2   3     1.525583915257   124.52862231   179.82776312
 H      3   1   2     0.970898368605   110.54009737     0.95544739
 C      4   1   2     1.531602852677   108.64610653   250.34625580
 H      6   4   1     1.085847790443   108.95279882   178.67451958
 N      4   1   2     1.448204184460   112.66454058    12.34279532
 H      6   4   1     1.086103559171   110.31503346   298.96927669
 H      6   4   1     1.087975505879   110.13084780    59.57812388
 H      4   1   2     1.095939900106   107.88643429   132.13547540
 H      8   4   1     1.014623787229   110.41314581    59.50421799
 H      8   4   1     1.015755647006   109.47652438   302.05203883

---------------------------
INTERNAL COORDINATES (A.U.)
---------------------------
 C      0   0   0     0.000000000000     0.00000000     0.00000000
 O      1   0   0     2.272953834387     0.00000000     0.00000000
 O      1   2   0     2.526859978918   122.88792863     0.00000000
 C      1   2   3     2.882935794151   124.52862231   179.82776312
 H      3   1   2     1.834732020534   110.54009737     0.95544739
 C      4   1   2     2.894309937491   108.64610653   250.34625580
 H      6   4   1     2.051954947060   108.95279882   178.67451958
 N      4   1   2     2.736709294629   112.66454058    12.34279532
 H      6   4   1     2.052438279910   110.31503346   298.96927669
 H      6   4   1     2.055975746526   110.13084780    59.57812388
 H      4   1   2     2.071026270438   107.88643429   132.13547540
 H      8   4   1     1.917361086826   110.41314581    59.50421799
 H      8   4   1     1.919499991826   109.47652438   302.05203883

---------------------
BASIS SET INFORMATION
---------------------
There are 4 groups of distinct atoms

 Group   1 Type C   : 10s4p1d contracted to 3s2p1d pattern {631/31/1}
 Group   2 Type O   : 10s4p1d contracted to 3s2p1d pattern {631/31/1}
 Group   3 Type H   : 4s1p contracted to 2s1p pattern {31/1}
 Group   4 Type N   : 10s4p1d contracted to 3s2p1d pattern {631/31/1}

Atom   0C    basis set group =>   1
Atom   1O    basis set group =>   2
Atom   2O    basis set group =>   2
Atom   3C    basis set group =>   1
Atom   4H    basis set group =>   3
Atom   5C    basis set group =>   1
Atom   6H    basis set group =>   3
Atom   7N    basis set group =>   4
Atom   8H    basis set group =>   3
Atom   9H    basis set group =>   3
Atom  10H    basis set group =>   3
Atom  11H    basis set group =>   3
Atom  12H    basis set group =>   3
---------------------------------
AUXILIARY/J BASIS SET INFORMATION
---------------------------------
There are 4 groups of distinct atoms

 Group   1 Type C   : 12s5p4d2f1g contracted to 6s4p3d1f1g pattern {711111/2111/211/2/1}
 Group   2 Type O   : 12s5p4d2f1g contracted to 6s4p3d1f1g pattern {711111/2111/211/2/1}
 Group   3 Type H   : 5s2p1d contracted to 3s1p1d pattern {311/2/1}
 Group   4 Type N   : 12s5p4d2f1g contracted to 6s4p3d1f1g pattern {711111/2111/211/2/1}

Atom   0C    basis set group =>   1
Atom   1O    basis set group =>   2
Atom   2O    basis set group =>   2
Atom   3C    basis set group =>   1
Atom   4H    basis set group =>   3
Atom   5C    basis set group =>   1
Atom   6H    basis set group =>   3
Atom   7N    basis set group =>   4
Atom   8H    basis set group =>   3
Atom   9H    basis set group =>   3
Atom  10H    basis set group =>   3
Atom  11H    basis set group =>   3
Atom  12H    basis set group =>   3
------------------------------------------------------------------------------
                             ORCA STARTUP CALCULATIONS
                           -- RI-GTO INTEGRALS CHOSEN --
------------------------------------------------------------------------------
------------------------------------------------------------------------------
                   ___                                                        
                  /   \      - P O W E R E D   B Y -                         
                 /     \                                                     
                 |  |  |   _    _      __       _____    __    __             
                 |  |  |  | |  | |    /  \     |  _  \  |  |  /  |          
                  \  \/   | |  | |   /    \    | | | |  |  | /  /          
                 / \  \   | |__| |  /  /\  \   | |_| |  |  |/  /          
                |  |  |   |  __  | /  /__\  \  |    /   |      \           
                |  |  |   | |  | | |   __   |  |    \   |  |\   \          
                \     /   | |  | | |  |  |  |  | |\  \  |  | \   \       
                 \___/    |_|  |_| |__|  |__|  |_| \__\ |__|  \__/        
                                                                              
                      - O R C A' S   B I G   F R I E N D -                    
                                      &                                       
                       - I N T E G R A L  F E E D E R -                       
                                                                              
 v1 FN, 2020, v2 2021, v3 2022-2024                                           
------------------------------------------------------------------------------


----------------------
SHARK INTEGRAL PACKAGE
----------------------

Number of atoms                             ...     13
Number of basis functions                   ...    119
Number of shells                            ...     57
Maximum angular momentum                    ...      2
Integral batch strategy                     ... SHARK/LIBINT Hybrid
RI-J (if used) integral strategy            ... SPLIT-RIJ (Revised 2003 algorithm where possible)
Printlevel                                  ...      1
Contraction scheme used                     ... SEGMENTED contraction
Prescreening option                         ... SCHWARTZ
   Thresh                                   ... 2.500e-11
   Tcut                                     ... 2.500e-12
   Tpresel                                  ... 2.500e-12 
Coulomb Range Separation                    ... NOT USED
Exchange Range Separation                   ... NOT USED
Multipole approximations                    ... NOT USED
Finite Nucleus Model                        ... NOT USED
CABS basis                                  ... NOT available
Auxiliary Coulomb fitting basis             ... AVAILABLE
   # of basis functions in Aux-J            ...    371
   # of shells in Aux-J                     ...    125
   Maximum angular momentum in Aux-J        ...      4
Auxiliary J/K fitting basis                 ... NOT available
Auxiliary Correlation fitting basis         ... NOT available
Auxiliary 'external' fitting basis          ... NOT available

Checking pre-screening integrals            ... done (  0.0 sec) Dimension = 57
   => SHARK Basis and OBASIS are compatible. Storing Pre-screening
Shell pair information
Shell pair cut-off parameter TPreSel        ...   2.5e-12
Total number of shell pairs                 ...      1653
Shell pairs after pre-screening             ...      1596
Total number of primitive shell pairs       ...      8022
Primitive shell pairs kept                  ...      5579
          la=0 lb=0:    507 shell pairs
          la=1 lb=0:    581 shell pairs
          la=1 lb=1:    183 shell pairs
          la=2 lb=0:    190 shell pairs
          la=2 lb=1:    114 shell pairs
          la=2 lb=2:     21 shell pairs

Checking whether 4 symmetric matrices of dimension 119 fit in memory
:Max Core in MB      =   4096.00
 MB in use           =      5.53
 MB left             =   4090.47
 MB needed           =      0.22
 Data fit in memory  = YES
Calculating RI/J V-Matrix + Cholesky decomp.... done (  0.0 sec)
Calculating Nuclear repulsion               ... done (  0.0 sec) ENN=    250.230647809757 Eh

Diagonalization of the overlap matrix:
Smallest eigenvalue                        ... 3.559e-03
Time for diagonalization                   ...    0.001 sec
Threshold for overlap eigenvalues          ... 1.000e-07
Number of eigenvalues below threshold      ... 0
Time for construction of square roots      ...    0.000 sec
Total time needed                          ...    0.001 sec

-------------------
DFT GRID GENERATION
-------------------

General Integration Accuracy     IntAcc      ... 4.388
Radial Grid Type                 RadialGrid  ... OptM3 with GC (2021)
Angular Grid (max. ang.)         AngularGrid ... 4 (Lebedev-302)
Angular grid pruning method      GridPruning ... 4 (adaptive)
Weight generation scheme         WeightScheme... mBecke (2022)
Basis function cutoff            BFCut       ... 1.0000e-11
Integration weight cutoff        WCut        ... 1.0000e-14
Partially contracted basis set               ... off
Rotationally invariant grid construction     ... off
Angular grids for H and He will be reduced by one unit

Total number of grid points                  ...    58909
Total number of batches                      ...      926
Average number of points per batch           ...       63
Average number of grid points per atom       ...     4531
Grids setup in   0.2 sec
Initializing property integral containers    ... done (  0.0 sec)

SHARK setup successfully completed in   0.2 seconds

Maximum memory used throughout the entire STARTUP-calculation: 24.8 MB
-------------------------------------------------------------------------------
                                 ORCA GUESS
                   Start orbitals & Density for SCF / CASSCF
-------------------------------------------------------------------------------

------------
SCF SETTINGS
------------
Hamiltonian:
 Density Functional     Method          .... DFT(GTOs)
 Exchange Functional    Exchange        .... B97(D)
 Correlation Functional Correlation     .... B97(D)
 Gradients option       PostSCFGGA      .... off
 RI-approximation to the Coulomb term is turned on
   Number of AuxJ basis functions       .... 371


General Settings:
 Integral files         IntName         .... 0
 Hartree-Fock type      HFTyp           .... RHF
 Total Charge           Charge          ....    0
 Multiplicity           Mult            ....    1
 Number of Electrons    NEL             ....   48
 Basis Dimension        Dim             ....  119
 Nuclear Repulsion      ENuc            ....    250.2306478098 Eh

Convergence Acceleration:
 AO-DIIS                CNVDIIS         .... on
   Start iteration      DIISMaxIt       ....    12
   Startup error        DIISStart       ....  0.200000
   # of expansion vecs  DIISMaxEq       ....     5
   Bias factor          DIISBfac        ....   1.050
   Max. coefficient     DIISMaxC        ....  10.000
 MO-DIIS                CNVKDIIS        .... off
 Trust-Rad. Augm. Hess. CNVTRAH         .... auto
   Auto Start mean grad. ratio tolernc. ....  1.125000
   Auto Start start iteration           ....    50
   Auto Start num. interpolation iter.  ....    10
   Max. Number of Micro iterations      ....    24
   Max. Number of Macro iterations      .... Maxiter - #DIIS iter
   Number of Davidson start vectors     ....     2
   Converg. threshold    (grad. norm)   ....   1.000e-05
   Grad. Scal. Fac. for Micro threshold ....   0.100
   Minimum threshold for Micro iter.    ....   1.000e-02
   NR start threshold (gradient norm)   ....   1.000e-04
   Initial trust radius                 ....   0.400
   Minimum AH scaling param. (alpha)    ....   1.000
   Maximum AH scaling param. (alpha)    .... 1000.000
   Quad. conv. algorithm                .... NR
   White noise on init. David. guess    .... on
   Maximum white noise                  ....   0.010
   Pseudo random numbers                .... off
   Inactive MOs                         .... canonical
   Orbital update algorithm             .... Taylor
   Preconditioner                       .... Diag
   Full preconditioner red. dimension   ....   250
 SOSCF                 CNVSOSCF           .... on
   Start iteration     SOSCFMaxIt         ....   150
   Startup grad/error  SOSCFStart         ....  0.003300
   Hessian update      SOSCFHessUp        .... L-BFGS
   Autom. constraints  SOSCFAutoConstrain .... off
 Level Shifting         CNVShift        .... on
   Level shift para.    LevelShift      ....    0.2500
   Turn off err/grad.   ShiftErr        ....    0.0010
 Zerner damping         CNVZerner       .... off
 Static damping         CNVDamp         .... on
   Fraction old density DampFac         ....    0.7000
   Max. Damping (<1)    DampMax         ....    0.9800
   Min. Damping (>=0)   DampMin         ....    0.0000
   Turn off err/grad.   DampErr         ....    0.1000

SCF Procedure:
 Maximum # iterations   MaxIter         ....   125
 SCF integral mode      SCFMode         .... Direct
   Integral package                     .... SHARK and LIBINT hybrid scheme
 Reset frequency        DirectResetFreq ....    20
 Integral Threshold     Thresh          ....  2.500e-11 Eh
 Primitive CutOff       TCut            ....  2.500e-12 Eh

Convergence Tolerance:
 Convergence Check Mode ConvCheckMode   .... Total+1el-Energy
 Convergence forced     ConvForced      .... 0
 Energy Change          TolE            ....  1.000e-08 Eh
 1-El. energy change                    ....  1.000e-05 Eh
 Orbital Gradient       TolG            ....  1.000e-05
 Orbital Rotation angle TolX            ....  1.000e-05
 DIIS Error             TolErr          ....  5.000e-07

------------------------------
INITIAL GUESS: MODEL POTENTIAL
------------------------------
Loading Hartree-Fock densities                     ... done
Calculating cut-offs                               ... done
Initializing the effective Hamiltonian             ... done
Setting up the integral package (SHARK)            ... done
Starting the Coulomb interaction                   ... done (   0.0 sec)
Making the grid                                    ... done (   0.0 sec)
Mapping shells                                     ... done
Starting the XC term evaluation                    ... done (   0.0 sec)
  promolecular density results
     # of electrons  =     47.993851029
     EX              =    -39.859333712
     EC              =     -2.123832446
     EX+EC           =    -41.983166158
Transforming the Hamiltonian                       ... done (   0.0 sec)
Diagonalizing the Hamiltonian                      ... done (   0.0 sec)
Back transforming the eigenvectors                 ... done (   0.0 sec)
Now organizing SCF variables                       ... done
                      ------------------
                      INITIAL GUESS DONE (   0.1 sec)
                      ------------------
             **** ENERGY FILE WAS UPDATED (0.en.tmp) ****
Finished Guess after   0.1 sec
Maximum memory used throughout the entire GUESS-calculation: 9.4 MB

-------------------------------------------------------------------------------------------
                                      ORCA LEAN-SCF
                              memory conserving SCF solver
-------------------------------------------------------------------------------------------

----------------------------------------D-I-I-S--------------------------------------------
Iteration    Energy (Eh)           Delta-E    RMSDP     MaxDP     DIISErr   Damp  Time(sec)
-------------------------------------------------------------------------------------------
               ***  Starting incremental Fock matrix formation  ***
    1    -323.2705571232959301     0.00e+00  4.95e-03  1.09e-01  2.61e-01  0.700   0.2
    2    -323.4027534909492942    -1.32e-01  3.05e-03  5.79e-02  9.90e-02  0.700   0.2
                               ***Turning on AO-DIIS***
    3    -323.4417584982859353    -3.90e-02  1.12e-03  1.50e-02  3.12e-02  0.700   0.2
    4    -323.4678507005244228    -2.61e-02  1.46e-03  1.94e-02  1.58e-02  0.000   0.2
    5    -323.5289199710930461    -6.11e-02  5.19e-04  8.06e-03  1.21e-02  0.000   0.2
                              *** Initializing SOSCF ***
---------------------------------------S-O-S-C-F--------------------------------------
Iteration    Energy (Eh)           Delta-E    RMSDP     MaxDP     MaxGrad    Time(sec)
--------------------------------------------------------------------------------------
    6    -323.5295545117526217    -6.35e-04  1.86e-04  2.64e-03  3.24e-03     0.2
               *** Restarting incremental Fock matrix formation ***
    7    -323.5296007295959271    -4.62e-05  1.62e-04  3.67e-03  7.88e-04     0.2
    8    -323.5295818272509223     1.89e-05  8.87e-05  2.72e-03  2.27e-03     0.2
    9    -323.5296074889835154    -2.57e-05  5.80e-05  8.38e-04  2.51e-04     0.2
   10    -323.5296058740507306     1.61e-06  3.30e-05  4.78e-04  2.75e-04     0.2
   11    -323.5296087607166555    -2.89e-06  9.47e-06  1.98e-04  4.63e-05     0.2
   12    -323.5296087067323469     5.40e-08  5.52e-06  1.29e-04  7.80e-05     0.2
   13    -323.5296088012941027    -9.46e-08  1.37e-06  2.32e-05  7.28e-06     0.2
   14    -323.5296088017101965    -4.16e-10  7.84e-07  1.38e-05  9.59e-06     0.2
                 **** Energy Check signals convergence ****

               *****************************************************
               *                     SUCCESS                       *
               *           SCF CONVERGED AFTER  14 CYCLES          *
               *****************************************************

             **** ENERGY FILE WAS UPDATED (0.en.tmp) ****

----------------
TOTAL SCF ENERGY
----------------

Total Energy       :       -323.52960880201545 Eh           -8803.68823 eV

Components:
Nuclear Repulsion  :        250.23064780975679 Eh            6809.12210 eV
Electronic Energy  :       -573.76025661177221 Eh          -15612.81032 eV
One Electron Energy:       -936.88200604352892 Eh          -25493.85547 eV
Two Electron Energy:        363.12174943175671 Eh            9881.04514 eV

Virial components:
Potential Energy   :       -645.40386590220578 Eh          -17562.33204 eV
Kinetic Energy     :        321.87425710019039 Eh            8758.64382 eV
Virial Ratio       :          2.00514285210858

DFT components:
N(Alpha)           :       23.999989389418 electrons
N(Beta)            :       23.999989389418 electrons
N(Total)           :       47.999978778836 electrons
E(X)               :      -40.770446031834 Eh       
E(C)               :       -2.115538644452 Eh       
E(XC)              :      -42.885984676286 Eh       

---------------
SCF CONVERGENCE
---------------

  Last Energy change         ...    4.1609e-10  Tolerance :   1.0000e-08
  Last MAX-Density change    ...    1.3834e-05  Tolerance :   1.0000e-07
  Last RMS-Density change    ...    7.8414e-07  Tolerance :   5.0000e-09
  Last DIIS Error            ...    3.2434e-03  Tolerance :   5.0000e-07
  Last Orbital Gradient      ...    9.5874e-06  Tolerance :   1.0000e-05
  Last Orbital Rotation      ...    9.5036e-06  Tolerance :   1.0000e-05


----------------
ORBITAL ENERGIES
----------------

  NO   OCC          E(Eh)            E(eV) 
   0   2.0000     -18.813591      -511.9438 
   1   2.0000     -18.752925      -510.2930 
   2   2.0000     -13.984586      -380.5399 
   3   2.0000     -10.026111      -272.8244 
   4   2.0000      -9.948320      -270.7076 
   5   2.0000      -9.903326      -269.4832 
   6   2.0000      -1.020116       -27.7588 
   7   2.0000      -0.931178       -25.3386 
   8   2.0000      -0.813307       -22.1312 
   9   2.0000      -0.681705       -18.5501 
  10   2.0000      -0.604003       -16.4358 
  11   2.0000      -0.532643       -14.4940 
  12   2.0000      -0.458092       -12.4653 
  13   2.0000      -0.436783       -11.8855 
  14   2.0000      -0.419155       -11.4058 
  15   2.0000      -0.393596       -10.7103 
  16   2.0000      -0.382692       -10.4136 
  17   2.0000      -0.354972        -9.6593 
  18   2.0000      -0.333370        -9.0715 
  19   2.0000      -0.322294        -8.7701 
  20   2.0000      -0.311957        -8.4888 
  21   2.0000      -0.273448        -7.4409 
  22   2.0000      -0.223279        -6.0757 
  23   2.0000      -0.194483        -5.2921 
  24   0.0000      -0.015347        -0.4176 
  25   0.0000       0.051764         1.4086 
  26   0.0000       0.072295         1.9673 
  27   0.0000       0.109478         2.9790 
  28   0.0000       0.121351         3.3021 
  29   0.0000       0.146836         3.9956 
  30   0.0000       0.157076         4.2742 
  31   0.0000       0.160868         4.3774 
  32   0.0000       0.194049         5.2803 
  33   0.0000       0.206208         5.6112 
  34   0.0000       0.222802         6.0627 
*Only the first 10 virtual orbitals were printed.

                    ********************************
                    * MULLIKEN POPULATION ANALYSIS *
                    ********************************

-----------------------
MULLIKEN ATOMIC CHARGES
-----------------------
   0 C :    0.489561
   1 O :   -0.417370
   2 O :   -0.454707
   3 C :   -0.049556
   4 H :    0.317251
   5 C :   -0.326637
   6 H :    0.133894
   7 N :   -0.548381
   8 H :    0.127383
   9 H :    0.112870
  10 H :    0.129497
  11 H :    0.242816
  12 H :    0.243381
Sum of atomic charges:   -0.0000000

--------------------------------
MULLIKEN REDUCED ORBITAL CHARGES
--------------------------------
  0 C s       :     2.986474  s :     2.986474
      pz      :     0.775852  p :     2.399552
      px      :     0.897063
      py      :     0.726636
      dz2     :     0.010765  d :     0.124414
      dxz     :     0.015228
      dyz     :     0.020781
      dx2y2   :     0.048275
      dxy     :     0.029365

  1 O s       :     3.855238  s :     3.855238
      pz      :     1.425961  p :     4.534053
      px      :     1.479595
      py      :     1.628497
      dz2     :     0.003377  d :     0.028079
      dxz     :     0.007095
      dyz     :     0.003116
      dx2y2   :     0.007005
      dxy     :     0.007485

  2 O s       :     3.823509  s :     3.823509
      pz      :     1.744386  p :     4.608489
      px      :     1.470837
      py      :     1.393267
      dz2     :     0.003657  d :     0.022708
      dxz     :     0.001237
      dyz     :     0.004724
      dx2y2   :     0.008490
      dxy     :     0.004600

  3 C s       :     3.199945  s :     3.199945
      pz      :     1.034001  p :     2.791765
      px      :     0.933792
      py      :     0.823972
      dz2     :     0.011402  d :     0.057846
      dxz     :     0.006890
      dyz     :     0.009466
      dx2y2   :     0.014045
      dxy     :     0.016043

  4 H s       :     0.644832  s :     0.644832
      pz      :     0.009093  p :     0.037917
      px      :     0.020085
      py      :     0.008739

  5 C s       :     3.254575  s :     3.254575
      pz      :     0.972355  p :     3.042898
      px      :     1.037987
      py      :     1.032556
      dz2     :     0.008114  d :     0.029164
      dxz     :     0.006296
      dyz     :     0.003143
      dx2y2   :     0.008164
      dxy     :     0.003447

  6 H s       :     0.854534  s :     0.854534
      pz      :     0.002478  p :     0.011572
      px      :     0.005914
      py      :     0.003180

  7 N s       :     3.586622  s :     3.586622
      pz      :     1.149711  p :     3.933353
      px      :     1.664782
      py      :     1.118860
      dz2     :     0.002719  d :     0.028407
      dxz     :     0.009805
      dyz     :     0.005071
      dx2y2   :     0.005681
      dxy     :     0.005132

  8 H s       :     0.861003  s :     0.861003
      pz      :     0.002572  p :     0.011614
      px      :     0.002579
      py      :     0.006462

  9 H s       :     0.875499  s :     0.875499
      pz      :     0.005545  p :     0.011631
      px      :     0.003323
      py      :     0.002763

 10 H s       :     0.859555  s :     0.859555
      pz      :     0.005514  p :     0.010948
      px      :     0.003438
      py      :     0.001996

 11 H s       :     0.733277  s :     0.733277
      pz      :     0.008751  p :     0.023907
      px      :     0.008687
      py      :     0.006469

 12 H s       :     0.732711  s :     0.732711
      pz      :     0.009788  p :     0.023908
      px      :     0.008907
      py      :     0.005212



                     *******************************
                     * LOEWDIN POPULATION ANALYSIS *
                     *******************************

----------------------
LOEWDIN ATOMIC CHARGES
----------------------
   0 C :    0.100368
   1 O :   -0.222971
   2 O :   -0.141783
   3 C :   -0.051543
   4 H :    0.181304
   5 C :   -0.189493
   6 H :    0.081854
   7 N :   -0.246402
   8 H :    0.078932
   9 H :    0.072230
  10 H :    0.083682
  11 H :    0.126845
  12 H :    0.126976

-------------------------------
LOEWDIN REDUCED ORBITAL CHARGES
-------------------------------
  0 C s       :     2.859404  s :     2.859404
      pz      :     0.796940  p :     2.742494
      px      :     1.047312
      py      :     0.898242
      dz2     :     0.024844  d :     0.297734
      dxz     :     0.030787
      dyz     :     0.049063
      dx2y2   :     0.120759
      dxy     :     0.072282

  1 O s       :     3.554609  s :     3.554609
      pz      :     1.417650  p :     4.610309
      px      :     1.551562
      py      :     1.641097
      dz2     :     0.007290  d :     0.058053
      dxz     :     0.011424
      dyz     :     0.005439
      dx2y2   :     0.015269
      dxy     :     0.018632

  2 O s       :     3.470426  s :     3.470426
      pz      :     1.713509  p :     4.620332
      px      :     1.475762
      py      :     1.431061
      dz2     :     0.007457  d :     0.051026
      dxz     :     0.001333
      dyz     :     0.010042
      dx2y2   :     0.019828
      dxy     :     0.012366

  3 C s       :     2.880140  s :     2.880140
      pz      :     1.065549  p :     3.039901
      px      :     1.023702
      py      :     0.950650
      dz2     :     0.025530  d :     0.131503
      dxz     :     0.015598
      dyz     :     0.019364
      dx2y2   :     0.034049
      dxy     :     0.036961

  4 H s       :     0.702938  s :     0.702938
      pz      :     0.025667  p :     0.115758
      px      :     0.065243
      py      :     0.024848

  5 C s       :     2.920541  s :     2.920541
      pz      :     1.046936  p :     3.206540
      px      :     1.077738
      py      :     1.081865
      dz2     :     0.016903  d :     0.062412
      dxz     :     0.014359
      dyz     :     0.007526
      dx2y2   :     0.016328
      dxy     :     0.007296

  6 H s       :     0.877599  s :     0.877599
      pz      :     0.007061  p :     0.040546
      px      :     0.023630
      py      :     0.009855

  7 N s       :     3.196174  s :     3.196174
      pz      :     1.170757  p :     3.992447
      px      :     1.643091
      py      :     1.178599
      dz2     :     0.008272  d :     0.057780
      dxz     :     0.014671
      dyz     :     0.013709
      dx2y2   :     0.012379
      dxy     :     0.008749

  8 H s       :     0.880608  s :     0.880608
      pz      :     0.007377  p :     0.040461
      px      :     0.007329
      py      :     0.025755

  9 H s       :     0.887888  s :     0.887888
      pz      :     0.021080  p :     0.039882
      px      :     0.010969
      py      :     0.007832

 10 H s       :     0.877210  s :     0.877210
      pz      :     0.020697  p :     0.039108
      px      :     0.011851
      py      :     0.006560

 11 H s       :     0.794397  s :     0.794397
      pz      :     0.030160  p :     0.078758
      px      :     0.028685
      py      :     0.019912

 12 H s       :     0.793928  s :     0.793928
      pz      :     0.034855  p :     0.079096
      px      :     0.029250
      py      :     0.014991



                      *****************************
                      * MAYER POPULATION ANALYSIS *
                      *****************************

  NA   - Mulliken gross atomic population
  ZA   - Total nuclear charge
  QA   - Mulliken gross atomic charge
  VA   - Mayer's total valence
  BVA  - Mayer's bonded valence
  FA   - Mayer's free valence

  ATOM       NA         ZA         QA         VA         BVA        FA
  0 C      5.5104     6.0000     0.4896     3.9526     3.9526    -0.0000
  1 O      8.4174     8.0000    -0.4174     2.1179     2.1179     0.0000
  2 O      8.4547     8.0000    -0.4547     2.0286     2.0286     0.0000
  3 C      6.0496     6.0000    -0.0496     3.8864     3.8864    -0.0000
  4 H      0.6827     1.0000     0.3173     0.9180     0.9180     0.0000
  5 C      6.3266     6.0000    -0.3266     3.8695     3.8695     0.0000
  6 H      0.8661     1.0000     0.1339     0.9556     0.9556    -0.0000
  7 N      7.5484     7.0000    -0.5484     2.9061     2.9061     0.0000
  8 H      0.8726     1.0000     0.1274     0.9564     0.9564    -0.0000
  9 H      0.8871     1.0000     0.1129     0.9570     0.9570    -0.0000
 10 H      0.8705     1.0000     0.1295     0.9468     0.9468     0.0000
 11 H      0.7572     1.0000     0.2428     0.9227     0.9227    -0.0000
 12 H      0.7566     1.0000     0.2434     0.9290     0.9290     0.0000

  Mayer bond orders larger than 0.100000
B(  0-C ,  1-O ) :   1.9347 B(  0-C ,  2-O ) :   1.0805 B(  0-C ,  3-C ) :   0.8958 
B(  2-O ,  4-H ) :   0.8515 B(  3-C ,  5-C ) :   0.9932 B(  3-C ,  7-N ) :   1.0605 
B(  3-C , 10-H ) :   0.9265 B(  5-C ,  6-H ) :   0.9539 B(  5-C ,  8-H ) :   0.9536 
B(  5-C ,  9-H ) :   0.9574 B(  7-N , 11-H ) :   0.9086 B(  7-N , 12-H ) :   0.9022 


-------
TIMINGS
-------

Total SCF time: 0 days 0 hours 0 min 3 sec 

Total time                  ....       3.210 sec
Sum of individual times     ....       2.986 sec  ( 93.0%)

SCF preparation             ....       0.024 sec  (  0.7%)
Fock matrix formation       ....       2.935 sec  ( 91.4%)
  Startup                   ....       0.000 sec  (  0.0% of F)
  Split-RI-J                ....       0.778 sec  ( 26.5% of F)
  XC integration            ....       2.336 sec  ( 79.6% of F)
    Basis function eval.    ....       0.812 sec  ( 34.8% of XC)
    Density eval.           ....       0.447 sec  ( 19.1% of XC)
    XC-Functional eval.     ....       0.530 sec  ( 22.7% of XC)
    XC-Potential eval.      ....       0.484 sec  ( 20.7% of XC)
Diagonalization             ....       0.000 sec  (  0.0%)
Density matrix formation    ....       0.005 sec  (  0.2%)
Total Energy calculation    ....       0.000 sec  (  0.0%)
Population analysis         ....       0.004 sec  (  0.1%)
Orbital Transformation      ....       0.002 sec  (  0.1%)
Orbital Orthonormalization  ....       0.000 sec  (  0.0%)
DIIS solution               ....       0.009 sec  (  0.3%)
SOSCF solution              ....       0.007 sec  (  0.2%)
Finished LeanSCF after   3.2 sec

Maximum memory used throughout the entire LEANSCF-calculation: 12.9 MB



-------------------------------------------------------------------------------
                          DFT DISPERSION CORRECTION                            
-------------------------------------------------------------------------------
Active option DFTDOPT                   ...         2   
Final C6-coefficient scaling factor     ...     1.250
Final VDW-radii scaling factor          ...     1.100
Damping factor alpha                    ...    20.000
-------------------------   ----------------
Dispersion correction           -0.013418681
-------------------------   ----------------


-------------------------   --------------------
FINAL SINGLE POINT ENERGY      -323.543027482950
-------------------------   --------------------

------------------------------------------------------------------------------
                         ORCA SCF GRADIENT CALCULATION
------------------------------------------------------------------------------

Nuc. rep. gradient        (SHARK) ... done (  0.0 sec)
HCore & Overlap gradient  (SHARK) ... done (  0.0 sec)
Split-RIJ-J gradient      (SHARK) ... done (  0.2 sec)
XC gradient                       ... done (  1.1 sec)
Dispersion correction             ... done (  0.0 sec)

-------------------
DISPERSION GRADIENT
-------------------

   1   C   :   -0.000036898    0.000146356    0.000524628
   2   O   :    0.000405893    0.000802065    0.000359827
   3   O   :    0.000668384    0.000060761    0.000211875
   4   C   :   -0.000049296    0.000180584   -0.001016031
   5   H   :    0.000210677   -0.000332260   -0.000085687
   6   C   :   -0.000114241   -0.000072567    0.000536624
   7   H   :    0.000530775    0.000798827   -0.000479208
   8   N   :    0.000455791    0.000354313    0.000518523
   9   H   :   -0.000719706   -0.000779762   -0.000898880
  10   H   :   -0.001123825    0.000796634    0.000155062
  11   H   :    0.000037166   -0.000104312    0.000050832
  12   H   :   -0.000159869   -0.000831027   -0.000128931
  13   H   :   -0.000104850   -0.001019612    0.000251366

Difference to translation invariance:
           :   -0.0000000000   -0.0000000000   -0.0000000000

Difference to rotation invariance:
           :   -0.0000000000    0.0000000000    0.0000000000

Norm of the Dispersion gradient    ...    0.0032764824
RMS gradient                       ...    0.0005246571
MAX gradient                       ...    0.0011238255

------------------
CARTESIAN GRADIENT
------------------

   1   C   :    0.008157025    0.001009616   -0.003705862
   2   O   :   -0.025653593    0.017556842    0.008908957
   3   O   :    0.011577342   -0.025656129   -0.009103373
   4   C   :   -0.000034384    0.002013529    0.000643560
   5   H   :   -0.004704853    0.004062063    0.001834284
   6   C   :    0.002007783   -0.000597898   -0.004077922
   7   H   :    0.007416382    0.002958092    0.000912829
   8   N   :    0.011173704    0.005666030   -0.000258629
   9   H   :    0.000098259   -0.007838610    0.000388959
  10   H   :   -0.003910351    0.001225354    0.007316704
  11   H   :    0.001972849   -0.001761931   -0.002864415
  12   H   :   -0.003981416    0.000970580   -0.001501244
  13   H   :   -0.004118747    0.000392461    0.001506152

Difference to translation invariance:
           :    0.0000000000   -0.0000000000   -0.0000000000

Difference to rotation invariance:
           :   -0.0000122232   -0.0000759645    0.0000530621

Norm of the Cartesian gradient     ...    0.0497676184
RMS gradient                       ...    0.0079691968
MAX gradient                       ...    0.0256561286

-------
TIMINGS
-------

Total SCF gradient time     ....        1.362 sec

Densities                   ....       0.000 sec  (  0.0%)
One electron gradient       ....       0.041 sec  (  3.0%)
RI-J Coulomb gradient       ....       0.236 sec  ( 17.3%)
XC gradient                 ....       1.084 sec  ( 79.6%)

Maximum memory used throughout the entire SCFGRAD-calculation: 16.9 MB
------------------------------------------------------------------------------
                         ORCA GEOMETRY RELAXATION STEP
------------------------------------------------------------------------------

Reading the OPT-File                    .... done
Getting information on internals        .... done
Copying old internal coords+grads       .... done
Making the new internal coordinates     .... (2022 redundants) done
Validating the new internal coordinates .... (2022 redundants) done
Calculating the B-matrix                .... done
Calculating the G,G- and P matrices     .... done
Transforming gradient to internals      .... done
Projecting the internal gradient        .... done
Number of atoms                         ....  13
Number of internal coordinates          ....  49
Current Energy                          ....  -323.543027483 Eh
Current gradient norm                   ....     0.049767618 Eh/bohr
Maximum allowed component of the step   ....  0.300
Current trust radius                    ....  0.300
Evaluating the initial hessian          ....  (Almloef) done
Projecting the Hessian                  .... done
Forming the augmented Hessian           .... done
Diagonalizing the augmented Hessian     .... done
Last element of RFO vector              ....  0.993639313
Lowest eigenvalues of augmented Hessian:
 -0.003681856  0.010776701  0.011028519  0.017420920  0.017548332
Length of the computed step             ....  0.113330431
The final length of the internal step   ....  0.113330431
Converting the step to Cartesian space:
 Initial RMS(Int)=    0.0161900616
Transforming coordinates:
 Iter   0:  RMS(Cart)=    0.0202130127 RMS(Int)=    0.0161652257
done
Storing new coordinates                 .... done

                                .--------------------.
          ----------------------|Geometry convergence|-------------------------
          Item                value                   Tolerance       Converged
          ---------------------------------------------------------------------
          RMS gradient        0.0067267496            0.0001000000      NO
          MAX gradient        0.0322974480            0.0003000000      NO
          RMS step            0.0161900616            0.0020000000      NO
          MAX step            0.0356304248            0.0040000000      NO
          -------------------------------------------------------------------------
          ........................................................
          Max(Bonds)      0.0175      Max(Angles)    1.59
          Max(Dihed)        2.04      Max(Improp)    0.00
          ---------------------------------------------------------------------

The optimization has not yet converged - more geometry cycles are needed


    ---------------------------------------------------------------------------
                         Redundant Internal Coordinates
                            (Angstroem and degrees)

        Definition                    Value    dE/dq     Step     New-Value
    ----------------------------------------------------------------------------
     1. B(O   1,C   0)                1.2028 -0.032297  0.0153    1.2181   
     2. B(O   2,C   0)                1.3372 -0.022547  0.0175    1.3546   
     3. B(C   3,C   0)                1.5256 -0.011066  0.0153    1.5409   
     4. B(H   4,O   2)                0.9709 -0.003066  0.0032    0.9741   
     5. B(C   5,C   3)                1.5316 -0.008020  0.0113    1.5429   
     6. B(H   6,C   5)                1.0858 -0.008022  0.0115    1.0973   
     7. B(N   7,C   3)                1.4482 -0.007035  0.0082    1.4564   
     8. B(H   8,C   5)                1.0861 -0.007698  0.0110    1.0971   
     9. B(H   9,C   5)                1.0880 -0.008381  0.0121    1.1001   
    10. B(H  10,C   3)                1.0959 -0.003772  0.0056    1.1015   
    11. B(H  11,N   7)                1.0146 -0.003448  0.0043    1.0189   
    12. B(H  12,N   7)                1.0158 -0.003368  0.0042    1.0199   
    13. A(O   1,C   0,C   3)          124.53 -0.001065    0.17    124.70   
    14. A(O   2,C   0,C   3)          112.58  0.004939   -0.66    111.92   
    15. A(O   1,C   0,O   2)          122.89 -0.003873    0.48    123.37   
    16. A(C   0,O   2,H   4)          110.54  0.010469   -1.59    108.95   
    17. A(C   0,C   3,H  10)          107.89  0.001275   -0.43    107.45   
    18. A(C   0,C   3,N   7)          112.66 -0.001155    0.52    113.18   
    19. A(C   0,C   3,C   5)          108.65 -0.000904    0.39    109.04   
    20. A(C   5,C   3,N   7)          109.88  0.000284    0.16    110.04   
    21. A(N   7,C   3,H  10)          108.54  0.000043   -0.19    108.35   
    22. A(C   5,C   3,H  10)          109.15  0.000525   -0.49    108.66   
    23. A(H   8,C   5,H   9)          109.20  0.001008   -0.26    108.94   
    24. A(H   6,C   5,H   9)          108.67  0.000390   -0.14    108.53   
    25. A(C   3,C   5,H   6)          108.95 -0.000371    0.10    109.06   
    26. A(C   3,C   5,H   9)          110.13  0.000209   -0.10    110.04   
    27. A(H   6,C   5,H   8)          109.55  0.000471    0.06    109.61   
    28. A(C   3,C   5,H   8)          110.32 -0.001676    0.33    110.64   
    29. A(H  11,N   7,H  12)          106.92  0.001056   -0.92    106.00   
    30. A(C   3,N   7,H  12)          109.48  0.001893   -0.64    108.84   
    31. A(C   3,N   7,H  11)          110.41  0.001550   -0.57    109.84   
    32. D(H   4,O   2,C   0,O   1)      0.96  0.000278   -0.87      0.09   
    33. D(H   4,O   2,C   0,C   3)   -178.89 -0.000334    0.95   -177.94   
    34. D(N   7,C   3,C   0,O   1)     12.34 -0.000937    2.04     14.38   
    35. D(N   7,C   3,C   0,O   2)   -167.81 -0.000318    0.19   -167.62   
    36. D(C   5,C   3,C   0,O   2)     70.19  0.000718   -0.62     69.57   
    37. D(H  10,C   3,C   0,O   1)    132.14 -0.000739    1.83    133.97   
    38. D(C   5,C   3,C   0,O   1)   -109.65  0.000099    1.23   -108.43   
    39. D(H   8,C   5,C   3,H  10)     56.38 -0.000219    0.65     57.02   
    40. D(H   8,C   5,C   3,N   7)    175.29  0.000320    0.21    175.51   
    41. D(H   8,C   5,C   3,C   0)    -61.03 -0.001529    1.22    -59.81   
    42. D(H   6,C   5,C   3,H  10)    -63.92  0.000464    0.31    -63.61   
    43. D(H   6,C   5,C   3,N   7)     55.00  0.001004   -0.13     54.87   
    44. D(H   6,C   5,C   3,C   0)    178.67 -0.000845    0.88    179.55   
    45. D(H  11,N   7,C   3,C   5)   -179.20  0.000425   -0.09   -179.29   
    46. D(H  11,N   7,C   3,C   0)     59.50  0.002161   -1.05     58.45   
    47. D(H  12,N   7,C   3,C   5)     63.35 -0.002922    1.76     65.11   
    48. D(H  12,N   7,C   3,C   0)    -57.95 -0.001186    0.80    -57.15   
    49. D(H  11,N   7,C   3,H  10)    -59.91  0.001256   -0.70    -60.61   
    ----------------------------------------------------------------------------

Geometry step timings:
Preparation and reading OPT file:      0.000 s ( 0.206 %)
Internal coordinates            :      0.000 s ( 0.187 %)
B/P matrices and projection     :      0.000 s ( 4.197 %)
Hessian update/contruction      :      0.000 s ( 1.255 %)
Making the step                 :      0.000 s ( 2.773 %)
Converting the step to Cartesian:      0.000 s ( 0.487 %)
Storing new data                :      0.000 s ( 0.356 %)
Checking convergence            :      0.000 s ( 0.675 %)
Final printing                  :      0.005 s (89.844 %)
Total time                      :      0.005 s

Time for energy+gradient        :      5.024 s
Time for complete geometry iter :      5.040 s

         *************************************************************
         *                GEOMETRY OPTIMIZATION CYCLE   2            *
         *************************************************************
---------------------------------
CARTESIAN COORDINATES (ANGSTROEM)
---------------------------------
  C     -4.487361   -0.096916   -1.867370
  O     -3.488726   -0.720480   -2.179877
  O     -4.461697    1.193791   -1.456986
  C     -5.923752   -0.650573   -1.934361
  H     -3.539981    1.508961   -1.461707
  C     -6.672726    0.032871   -3.097348
  H     -7.693240   -0.366990   -3.150446
  N     -5.973613   -2.097669   -2.090751
  H     -6.710216    1.119155   -2.947994
  H     -6.164226   -0.179259   -4.049503
  H     -6.424137   -0.386405   -0.989249
  H     -5.488476   -2.546130   -1.315101
  H     -5.457568   -2.355929   -2.931732

----------------------------
CARTESIAN COORDINATES (A.U.)
----------------------------
  NO LB      ZA    FRAG     MASS         X           Y           Z
   0 C     6.0000    0    12.011   -8.479883   -0.183144   -3.528817
   1 O     8.0000    0    15.999   -6.592737   -1.361509   -4.119370
   2 O     8.0000    0    15.999   -8.431385    2.255938   -2.753304
   3 C     6.0000    0    12.011  -11.194270   -1.229404   -3.655412
   4 H     1.0000    0     1.008   -6.689595    2.851523   -2.762227
   5 C     6.0000    0    12.011  -12.609625    0.062118   -5.853139
   6 H     1.0000    0     1.008  -14.538117   -0.693511   -5.953480
   7 N     7.0000    0    14.007  -11.288493   -3.964020   -3.950947
   8 H     1.0000    0     1.008  -12.680470    2.114897   -5.570901
   9 H     1.0000    0     1.008  -11.648700   -0.338750   -7.652451
  10 H     1.0000    0     1.008  -12.139861   -0.730200   -1.869409
  11 H     1.0000    0     1.008  -10.371717   -4.811489   -2.485180
  12 H     1.0000    0     1.008  -10.313309   -4.452060   -5.540171

--------------------------------
INTERNAL COORDINATES (ANGSTROEM)
--------------------------------
 C      0   0   0     0.000000000000     0.00000000     0.00000000
 O      1   0   0     1.218098721444     0.00000000     0.00000000
 O      1   2   0     1.354621018835   123.36380786     0.00000000
 C      1   2   3     1.540858253624   124.69126027   177.77194306
 H      3   1   2     0.974122163260   108.94952499     0.08765902
 C      4   1   2     1.542917979734   109.03374720   251.57026739
 H      6   4   1     1.097341483213   109.05676242   179.55208209
 N      4   1   2     1.456376282208   113.17938483    14.38483125
 H      6   4   1     1.097143985873   110.64330130   300.18603567
 H      6   4   1     1.100077044470   110.03561331    60.61958030
 H      4   1   2     1.101547385928   107.45683064   133.96903391
 H      8   4   1     1.018876383267   109.83409932    58.45848186
 H      8   4   1     1.019925908229   108.83363934   302.84507033

---------------------------
INTERNAL COORDINATES (A.U.)
---------------------------
 C      0   0   0     0.000000000000     0.00000000     0.00000000
 O      1   0   0     2.301872987609     0.00000000     0.00000000
 O      1   2   0     2.559862740851   123.36380786     0.00000000
 C      1   2   3     2.911800110541   124.69126027   177.77194306
 H      3   1   2     1.840824109543   108.94952499     0.08765902
 C      4   1   2     2.915692428800   109.03374720   251.57026739
 H      6   4   1     2.073674878663   109.05676242   179.55208209
 N      4   1   2     2.752152321311   113.17938483    14.38483125
 H      6   4   1     2.073301662778   110.64330130   300.18603567
 H      6   4   1     2.078844340262   110.03561331    60.61958030
 H      4   1   2     2.081622882941   107.45683064   133.96903391
 H      8   4   1     1.925397328695   109.83409932    58.45848186
 H      8   4   1     1.927380643444   108.83363934   302.84507033

------------------------------------------------------------------------------
                   ___                                                        
                  /   \      - P O W E R E D   B Y -                         
                 /     \                                                     
                 |  |  |   _    _      __       _____    __    __             
                 |  |  |  | |  | |    /  \     |  _  \  |  |  /  |          
                  \  \/   | |  | |   /    \    | | | |  |  | /  /          
                 / \  \   | |__| |  /  /\  \   | |_| |  |  |/  /          
                |  |  |   |  __  | /  /__\  \  |    /   |      \           
                |  |  |   | |  | | |   __   |  |    \   |  |\   \          
                \     /   | |  | | |  |  |  |  | |\  \  |  | \   \       
                 \___/    |_|  |_| |__|  |__|  |_| \__\ |__|  \__/        
                                                                              
                      - O R C A' S   B I G   F R I E N D -                    
                                      &                                       
                       - I N T E G R A L  F E E D E R -                       
                                                                              
 v1 FN, 2020, v2 2021, v3 2022-2024                                           
------------------------------------------------------------------------------


----------------------
SHARK INTEGRAL PACKAGE
----------------------

Number of atoms                             ...     13
Number of basis functions                   ...    119
Number of shells                            ...     57
Maximum angular momentum                    ...      2
Integral batch strategy                     ... SHARK/LIBINT Hybrid
RI-J (if used) integral strategy            ... SPLIT-RIJ (Revised 2003 algorithm where possible)
Printlevel                                  ...      1
Contraction scheme used                     ... SEGMENTED contraction
Prescreening option                         ... SCHWARTZ
   Thresh                                   ... 2.500e-11
   Tcut                                     ... 2.500e-12
   Tpresel                                  ... 2.500e-12 
Coulomb Range Separation                    ... NOT USED
Exchange Range Separation                   ... NOT USED
Multipole approximations                    ... NOT USED
Finite Nucleus Model                        ... NOT USED
CABS basis                                  ... NOT available
Auxiliary Coulomb fitting basis             ... AVAILABLE
   # of basis functions in Aux-J            ...    371
   # of shells in Aux-J                     ...    125
   Maximum angular momentum in Aux-J        ...      4
Auxiliary J/K fitting basis                 ... NOT available
Auxiliary Correlation fitting basis         ... NOT available
Auxiliary 'external' fitting basis          ... NOT available

Checking pre-screening integrals            ... done (  0.0 sec) Dimension = 57
   => SHARK Basis and OBASIS are compatible. Storing Pre-screening
Shell pair information
Shell pair cut-off parameter TPreSel        ...   2.5e-12
Total number of shell pairs                 ...      1653
Shell pairs after pre-screening             ...      1596
Total number of primitive shell pairs       ...      8022
Primitive shell pairs kept                  ...      5560
          la=0 lb=0:    507 shell pairs
          la=1 lb=0:    581 shell pairs
          la=1 lb=1:    183 shell pairs
          la=2 lb=0:    190 shell pairs
          la=2 lb=1:    114 shell pairs
          la=2 lb=2:     21 shell pairs

Checking whether 4 symmetric matrices of dimension 119 fit in memory
:Max Core in MB      =   4096.00
 MB in use           =      5.64
 MB left             =   4090.36
 MB needed           =      0.22
 Data fit in memory  = YES
Calculating RI/J V-Matrix + Cholesky decomp.... done (  0.0 sec)
Calculating Nuclear repulsion               ... done (  0.0 sec) ENN=    247.895338039229 Eh

Diagonalization of the overlap matrix:
Smallest eigenvalue                        ... 3.842e-03
Time for diagonalization                   ...    0.001 sec
Threshold for overlap eigenvalues          ... 1.000e-07
Number of eigenvalues below threshold      ... 0
Time for construction of square roots      ...    0.000 sec
Total time needed                          ...    0.001 sec

-------------------
DFT GRID GENERATION
-------------------

General Integration Accuracy     IntAcc      ... 4.388
Radial Grid Type                 RadialGrid  ... OptM3 with GC (2021)
Angular Grid (max. ang.)         AngularGrid ... 4 (Lebedev-302)
Angular grid pruning method      GridPruning ... 4 (adaptive)
Weight generation scheme         WeightScheme... mBecke (2022)
Basis function cutoff            BFCut       ... 1.0000e-11
Integration weight cutoff        WCut        ... 1.0000e-14
Partially contracted basis set               ... off
Rotationally invariant grid construction     ... off
Angular grids for H and He will be reduced by one unit

Total number of grid points                  ...    58939
Total number of batches                      ...      927
Average number of points per batch           ...       63
Average number of grid points per atom       ...     4534
Grids setup in   0.2 sec
Initializing property integral containers    ... done (  0.0 sec)

SHARK setup successfully completed in   0.2 seconds

Maximum memory used throughout the entire STARTUP-calculation: 24.9 MB
Occupation numbers will be reassigned to an Aufbau configuration
             **** ENERGY FILE WAS UPDATED (0.en.tmp) ****
Finished Guess after   0.0 sec
Maximum memory used throughout the entire GUESS-calculation: 9.2 MB
----------------------------------------D-I-I-S--------------------------------------------
Iteration    Energy (Eh)           Delta-E    RMSDP     MaxDP     DIISErr   Damp  Time(sec)
-------------------------------------------------------------------------------------------
               ***  Starting incremental Fock matrix formation  ***
    1    -323.5310185852742961     0.00e+00  1.80e-04  2.36e-03  7.24e-03  0.700   0.2
    2    -323.5312702832089826    -2.52e-04  1.67e-04  2.41e-03  5.40e-03  0.700   0.2
                               ***Turning on AO-DIIS***
    3    -323.5314486049990137    -1.78e-04  1.28e-04  1.92e-03  3.91e-03  0.700   0.2
                              *** Initializing SOSCF ***
---------------------------------------S-O-S-C-F--------------------------------------
Iteration    Energy (Eh)           Delta-E    RMSDP     MaxDP     MaxGrad    Time(sec)
--------------------------------------------------------------------------------------
    4    -323.5315711484503254    -1.23e-04  3.14e-04  4.73e-03  2.77e-03     0.2
               *** Restarting incremental Fock matrix formation ***
    5    -323.5318583269992132    -2.87e-04  4.91e-05  8.87e-04  2.56e-04     0.2
    6    -323.5318567688366329     1.56e-06  3.14e-05  7.99e-04  4.54e-04     0.2
    7    -323.5318593541896917    -2.59e-06  2.66e-05  4.45e-04  2.18e-04     0.2
    8    -323.5318584693138746     8.85e-07  1.85e-05  3.11e-04  3.08e-04     0.2
    9    -323.5318596346542108    -1.17e-06  3.70e-06  7.71e-05  1.74e-05     0.2
   10    -323.5318596239487761     1.07e-08  2.24e-06  5.42e-05  2.90e-05     0.2
   11    -323.5318596407601035    -1.68e-08  7.09e-07  1.64e-05  5.05e-06     0.2
   12    -323.5318596390573020     1.70e-09  4.48e-07  9.97e-06  7.29e-06     0.2
                 **** Energy Check signals convergence ****

               *****************************************************
               *                     SUCCESS                       *
               *           SCF CONVERGED AFTER  12 CYCLES          *
               *****************************************************

             **** ENERGY FILE WAS UPDATED (0.en.tmp) ****

----------------
TOTAL SCF ENERGY
----------------

Total Energy       :       -323.53185964149191 Eh           -8803.74947 eV

Components:
Nuclear Repulsion  :        247.89533803922947 Eh            6745.57509 eV
Electronic Energy  :       -571.42719768072141 Eh          -15549.32456 eV
One Electron Energy:       -932.25221408766959 Eh          -25367.87242 eV
Two Electron Energy:        360.82501640694818 Eh            9818.54786 eV

Virial components:
Potential Energy   :       -645.18226395749912 Eh          -17556.30195 eV
Kinetic Energy     :        321.65040431600727 Eh            8752.55247 eV
Virial Ratio       :          2.00584937963776

DFT components:
N(Alpha)           :       23.999984667502 electrons
N(Beta)            :       23.999984667502 electrons
N(Total)           :       47.999969335004 electrons
E(X)               :      -40.713242486882 Eh       
E(C)               :       -2.114368220244 Eh       
E(XC)              :      -42.827610707126 Eh       

---------------
SCF CONVERGENCE
---------------

  Last Energy change         ...   -1.7028e-09  Tolerance :   1.0000e-08
  Last MAX-Density change    ...    9.9730e-06  Tolerance :   1.0000e-07
  Last RMS-Density change    ...    4.4828e-07  Tolerance :   5.0000e-09
  Last DIIS Error            ...    2.7686e-03  Tolerance :   5.0000e-07
  Last Orbital Gradient      ...    7.2938e-06  Tolerance :   1.0000e-05
  Last Orbital Rotation      ...    7.3012e-06  Tolerance :   1.0000e-05


Total SCF time: 0 days 0 hours 0 min 2 sec 
Finished LeanSCF after   2.7 sec

Maximum memory used throughout the entire LEANSCF-calculation: 12.9 MB



-------------------------------------------------------------------------------
                          DFT DISPERSION CORRECTION                            
-------------------------------------------------------------------------------
-------------------------   ----------------
Dispersion correction           -0.013382844
-------------------------   ----------------


-------------------------   --------------------
FINAL SINGLE POINT ENERGY      -323.545242485111
-------------------------   --------------------

------------------------------------------------------------------------------
                         ORCA SCF GRADIENT CALCULATION
------------------------------------------------------------------------------

Nuc. rep. gradient        (SHARK) ... done (  0.0 sec)
HCore & Overlap gradient  (SHARK) ... done (  0.0 sec)
Split-RIJ-J gradient      (SHARK) ... done (  0.2 sec)
XC gradient                       ... done (  1.1 sec)
Dispersion correction             ... done (  0.0 sec)

-------------------
DISPERSION GRADIENT
-------------------

   1   C   :   -0.000088133    0.000139392    0.000536313
   2   O   :    0.000431117    0.000866376    0.000362271
   3   O   :    0.000699830    0.000025062    0.000212691
   4   C   :   -0.000040620    0.000245292   -0.001081792
   5   H   :    0.000208699   -0.000306548   -0.000080154
   6   C   :   -0.000104889   -0.000091826    0.000562618
   7   H   :    0.000640810    0.000845321   -0.000481305
   8   N   :    0.000364117    0.000354521    0.000532586
[...]
   7   2.0000      -0.928922       -25.2773 
   8   2.0000      -0.813066       -22.1246 
   9   2.0000      -0.679714       -18.4960 
  10   2.0000      -0.599378       -16.3099 
  11   2.0000      -0.524800       -14.2805 
  12   2.0000      -0.455849       -12.4043 
  13   2.0000      -0.432133       -11.7589 
  14   2.0000      -0.423208       -11.5161 
  15   2.0000      -0.391313       -10.6482 
  16   2.0000      -0.379459       -10.3256 
  17   2.0000      -0.357188        -9.7196 
  18   2.0000      -0.333775        -9.0825 
  19   2.0000      -0.324864        -8.8400 
  20   2.0000      -0.310620        -8.4524 
  21   2.0000      -0.275004        -7.4832 
  22   2.0000      -0.229542        -6.2462 
  23   2.0000      -0.201898        -5.4939 
  24   0.0000      -0.026559        -0.7227 
  25   0.0000       0.051087         1.3901 
  26   0.0000       0.068975         1.8769 
  27   0.0000       0.107126         2.9151 
  28   0.0000       0.117205         3.1893 
  29   0.0000       0.141029         3.8376 
  30   0.0000       0.152937         4.1616 
  31   0.0000       0.155515         4.2318 
  32   0.0000       0.175910         4.7867 
  33   0.0000       0.197448         5.3728 
  34   0.0000       0.208724         5.6797 
*Only the first 10 virtual orbitals were printed.

                    ********************************
                    * MULLIKEN POPULATION ANALYSIS *
                    ********************************

-----------------------
MULLIKEN ATOMIC CHARGES
-----------------------
   0 C :    0.494327
   1 O :   -0.423597
   2 O :   -0.462869
   3 C :   -0.049129
   4 H :    0.318979
   5 C :   -0.323321
   6 H :    0.134562
   7 N :   -0.546017
   8 H :    0.126117
   9 H :    0.113945
  10 H :    0.131433
  11 H :    0.241363
  12 H :    0.244208
Sum of atomic charges:    0.0000000

--------------------------------
MULLIKEN REDUCED ORBITAL CHARGES
--------------------------------
  0 C s       :     3.009215  s :     3.009215
      pz      :     0.768209  p :     2.379217
      px      :     0.886198
      py      :     0.724810
      dz2     :     0.011775  d :     0.117241
      dxz     :     0.015253
      dyz     :     0.019546
      dx2y2   :     0.043420
      dxy     :     0.027247

  1 O s       :     3.869859  s :     3.869859
      pz      :     1.430096  p :     4.526397
      px      :     1.474357
      py      :     1.621943
      dz2     :     0.003752  d :     0.027341
      dxz     :     0.006937
      dyz     :     0.002833
      dx2y2   :     0.006602
      dxy     :     0.007217

  2 O s       :     3.841701  s :     3.841701
      pz      :     1.735679  p :     4.598099
      px      :     1.455927
      py      :     1.406492
      dz2     :     0.003848  d :     0.023069
      dxz     :     0.001479
      dyz     :     0.004769
      dx2y2   :     0.008841
      dxy     :     0.004133

  3 C s       :     3.211506  s :     3.211506
      pz      :     1.034572  p :     2.781600
      px      :     0.925807
      py      :     0.821220
      dz2     :     0.011036  d :     0.056023
      dxz     :     0.006712
      dyz     :     0.009388
      dx2y2   :     0.013745
      dxy     :     0.015142

  4 H s       :     0.643596  s :     0.643596
      pz      :     0.008913  p :     0.037425
      px      :     0.020209
      py      :     0.008303

  5 C s       :     3.264971  s :     3.264971
      pz      :     0.970109  p :     3.029894
      px      :     1.034224
      py      :     1.025561
      dz2     :     0.008087  d :     0.028456
      dxz     :     0.005868
      dyz     :     0.003085
      dx2y2   :     0.008205
      dxy     :     0.003211

  6 H s       :     0.854156  s :     0.854156
      pz      :     0.002364  p :     0.011282
      px      :     0.005922
      py      :     0.002997

  7 N s       :     3.614486  s :     3.614486
      pz      :     1.154026  p :     3.902128
      px      :     1.629170
      py      :     1.118933
      dz2     :     0.002432  d :     0.029404
      dxz     :     0.010975
      dyz     :     0.004537
      dx2y2   :     0.006351
      dxy     :     0.005108

  8 H s       :     0.862569  s :     0.862569
      pz      :     0.002432  p :     0.011314
      px      :     0.002440
      py      :     0.006441

  9 H s       :     0.874747  s :     0.874747
      pz      :     0.005489  p :     0.011308
      px      :     0.003142
      py      :     0.002677

 10 H s       :     0.857735  s :     0.857735
      pz      :     0.005485  p :     0.010831
      px      :     0.003338
      py      :     0.002008

 11 H s       :     0.735059  s :     0.735059
      pz      :     0.008915  p :     0.023578
      px      :     0.008373
      py      :     0.006290

 12 H s       :     0.732196  s :     0.732196
      pz      :     0.009374  p :     0.023596
      px      :     0.009048
      py      :     0.005174



                     *******************************
                     * LOEWDIN POPULATION ANALYSIS *
                     *******************************

----------------------
LOEWDIN ATOMIC CHARGES
----------------------
   0 C :    0.123890
   1 O :   -0.231059
   2 O :   -0.160681
   3 C :   -0.049940
   4 H :    0.183142
   5 C :   -0.191423
   6 H :    0.083638
   7 N :   -0.252340
   8 H :    0.079356
   9 H :    0.073606
  10 H :    0.084332
  11 H :    0.128373
  12 H :    0.129107

-------------------------------
LOEWDIN REDUCED ORBITAL CHARGES
-------------------------------
  0 C s       :     2.875809  s :     2.875809
      pz      :     0.800512  p :     2.723048
      px      :     1.039516
      py      :     0.883020
      dz2     :     0.025991  d :     0.277253
      dxz     :     0.031433
      dyz     :     0.046808
      dx2y2   :     0.107594
      dxy     :     0.065427

  1 O s       :     3.569038  s :     3.569038
      pz      :     1.426768  p :     4.606311
      px      :     1.545952
      py      :     1.633592
      dz2     :     0.007171  d :     0.055710
      dxz     :     0.012022
      dyz     :     0.005285
      dx2y2   :     0.014153
      dxy     :     0.017078

  2 O s       :     3.497660  s :     3.497660
      pz      :     1.710309  p :     4.614461
      px      :     1.462400
      py      :     1.441752
      dz2     :     0.007205  d :     0.048560
      dxz     :     0.001626
      dyz     :     0.010278
      dx2y2   :     0.019431
      dxy     :     0.010020

  3 C s       :     2.890392  s :     2.890392
      pz      :     1.066699  p :     3.033593
      px      :     1.019547
      py      :     0.947347
      dz2     :     0.024531  d :     0.125956
      dxz     :     0.015037
      dyz     :     0.018936
      dx2y2   :     0.032894
      dxy     :     0.034558

  4 H s       :     0.702839  s :     0.702839
      pz      :     0.025049  p :     0.114020
      px      :     0.065803
      py      :     0.023168

  5 C s       :     2.931521  s :     2.931521
      pz      :     1.045069  p :     3.199591
      px      :     1.075471
      py      :     1.079052
      dz2     :     0.016648  d :     0.060311
      dxz     :     0.013310
      dyz     :     0.007307
      dx2y2   :     0.016296
      dxy     :     0.006751

  6 H s       :     0.877187  s :     0.877187
      pz      :     0.006605  p :     0.039175
      px      :     0.023479
      py      :     0.009091

  7 N s       :     3.222902  s :     3.222902
      pz      :     1.176642  p :     3.971958
      px      :     1.613866
      py      :     1.181450
      dz2     :     0.007388  d :     0.057481
      dxz     :     0.016349
      dyz     :     0.012181
      dx2y2   :     0.013176
      dxy     :     0.008387

  8 H s       :     0.881549  s :     0.881549
      pz      :     0.006818  p :     0.039095
      px      :     0.006824
      py      :     0.025454

  9 H s       :     0.887951  s :     0.887951
      pz      :     0.020751  p :     0.038443
      px      :     0.010152
      py      :     0.007541

 10 H s       :     0.877015  s :     0.877015
      pz      :     0.020564  p :     0.038653
      px      :     0.011485
      py      :     0.006604

 11 H s       :     0.794737  s :     0.794737
      pz      :     0.030508  p :     0.076890
      px      :     0.027547
      py      :     0.018834

 12 H s       :     0.793416  s :     0.793416
      pz      :     0.032556  p :     0.077476
      px      :     0.030286
      py      :     0.014634



                      *****************************
                      * MAYER POPULATION ANALYSIS *
                      *****************************

  NA   - Mulliken gross atomic population
  ZA   - Total nuclear charge
  QA   - Mulliken gross atomic charge
  VA   - Mayer's total valence
  BVA  - Mayer's bonded valence
  FA   - Mayer's free valence

  ATOM       NA         ZA         QA         VA         BVA        FA
  0 C      5.5057     6.0000     0.4943     3.9195     3.9195    -0.0000
  1 O      8.4236     8.0000    -0.4236     2.1087     2.1087    -0.0000
  2 O      8.4629     8.0000    -0.4629     2.0240     2.0240     0.0000
  3 C      6.0491     6.0000    -0.0491     3.8783     3.8783     0.0000
  4 H      0.6810     1.0000     0.3190     0.9168     0.9168    -0.0000
  5 C      6.3233     6.0000    -0.3233     3.8637     3.8637     0.0000
  6 H      0.8654     1.0000     0.1346     0.9558     0.9558     0.0000
  7 N      7.5460     7.0000    -0.5460     2.8979     2.8979    -0.0000
  8 H      0.8739     1.0000     0.1261     0.9565     0.9565     0.0000
  9 H      0.8861     1.0000     0.1139     0.9573     0.9573     0.0000
 10 H      0.8686     1.0000     0.1314     0.9469     0.9469     0.0000
 11 H      0.7586     1.0000     0.2414     0.9207     0.9207    -0.0000
 12 H      0.7558     1.0000     0.2442     0.9286     0.9286     0.0000

  Mayer bond orders larger than 0.100000
B(  0-C ,  1-O ) :   1.9126 B(  0-C ,  2-O ) :   1.0653 B(  0-C ,  3-C ) :   0.8958 
B(  2-O ,  4-H ) :   0.8523 B(  3-C ,  5-C ) :   0.9886 B(  3-C ,  7-N ) :   1.0525 
B(  3-C , 10-H ) :   0.9263 B(  5-C ,  6-H ) :   0.9530 B(  5-C ,  8-H ) :   0.9528 
B(  5-C ,  9-H ) :   0.9570 B(  7-N , 11-H ) :   0.9082 B(  7-N , 12-H ) :   0.8993 


-------
TIMINGS
-------

Total SCF time: 0 days 0 hours 0 min 1 sec 

Total time                  ....       1.474 sec
Sum of individual times     ....       1.256 sec  ( 85.2%)

SCF preparation             ....       0.026 sec  (  1.8%)
Fock matrix formation       ....       1.214 sec  ( 82.4%)
  Startup                   ....       0.000 sec  (  0.0% of F)
  Split-RI-J                ....       0.337 sec  ( 27.8% of F)
  XC integration            ....       1.054 sec  ( 86.9% of F)
    Basis function eval.    ....       0.382 sec  ( 36.2% of XC)
    Density eval.           ....       0.205 sec  ( 19.4% of XC)
    XC-Functional eval.     ....       0.251 sec  ( 23.8% of XC)
    XC-Potential eval.      ....       0.187 sec  ( 17.7% of XC)
Diagonalization             ....       0.000 sec  (  0.0%)
Density matrix formation    ....       0.001 sec  (  0.1%)
Total Energy calculation    ....       0.000 sec  (  0.0%)
Population analysis         ....       0.008 sec  (  0.6%)
Orbital Transformation      ....       0.001 sec  (  0.1%)
Orbital Orthonormalization  ....       0.000 sec  (  0.0%)
DIIS solution               ....       0.001 sec  (  0.1%)
SOSCF solution              ....       0.005 sec  (  0.3%)
Finished LeanSCF after   1.5 sec

Maximum memory used throughout the entire LEANSCF-calculation: 13.3 MB



-------------------------------------------------------------------------------
                          DFT DISPERSION CORRECTION                            
-------------------------------------------------------------------------------
Active option DFTDOPT                   ...         2   
Final C6-coefficient scaling factor     ...     1.250
Final VDW-radii scaling factor          ...     1.100
Damping factor alpha                    ...    20.000
-------------------------   ----------------
Dispersion correction           -0.013365678
-------------------------   ----------------


-------------------------   --------------------
FINAL SINGLE POINT ENERGY      -323.545717447300
-------------------------   --------------------

                                *** OPTIMIZATION RUN DONE ***


------------------------------------------------------------------------------
                              ORCA PROPERTY CALCULATIONS
------------------------------------------------------------------------------

GBWName                                 ... 0.gbw
Number of atoms                         ...     13
Number of basis functions               ...    119
Max core memory                         ...   4096 MB

Electric properties:
Dipole moment                           ... YES
Quadrupole moment                       ...  NO
Static polarizability (Dipole/Dipole)   ...  NO
Static polarizability (Dipole/Quad.)    ...  NO
Static polarizability (Quad./Quad.)     ...  NO
Static polarizability (Velocity)        ...  NO
Static hyperpolarizability              ...  NO

Atomic electric properties:
Dipole moment                           ...  NO
Quadrupole moment                       ...  NO
Static polarizability                   ...  NO

Choice of electric origin               ... Center of mass
Position of electric origin             ...    -9.719405    -0.706836    -3.982694

General magnetic properties:
Magnetizability                         ...  NO

EPR properties:
g-Tensor (aka g-matrix)                 ...  NO
Zero-Field splitting spin-orbit         ...  NO
Zero-field splitting spin-spin          ...  NO
Hyperfine couplings                     ...  NO (   0 nuclei)
Quadrupole couplings                    ...  NO (   0 nuclei)
Contact density                         ...  NO (   0 nuclei)

NMR properties:
Chemical shifts                         ...  NO (   0 nuclei)
Spin-rotation constants                 ...  NO (   0 nuclei)
Spin-spin couplings                     ...  NO (   0 nuclei,    0 pairs)

Choice of magnetic origin               ... GIAO
Position of magnetic origin             ...     0.000000     0.000000     0.000000

Properties with geometric perturbations:
SCF Hessian                             ...  NO
IR spectrum                             ...  NO
VCD spectrum                            ...  NO
X-ray spectroscopy properties:
SCF XES/XAS/RIXS spectra                ...  NO

SCF SOC stabilization energy            ...  NO
Diagonal Born-Oppenheimer correction    ...  NO

-------------
DIPOLE MOMENT
-------------

Method             : SCF
Type of density    : Electron Density
Multiplicity       :   1
Irrep              :   0
Energy             :  -323.5323517695320561 Eh
Basis              : AO
                                X                 Y                 Z
Electronic contribution:      5.146026111       1.047328847       2.094413991
Nuclear contribution   :     -5.078224439      -0.562716720      -1.918455739
                        -----------------------------------------
Total Dipole Moment    :      0.067801673       0.484612127       0.175958252
                        -----------------------------------------
Magnitude (a.u.)       :      0.520007006
Magnitude (Debye)      :      1.321752769



--------------------
Rotational spectrum 
--------------------
 
Rotational constants in cm-1:             0.166299             0.101099             0.074831 
Rotational constants in MHz :          4985.511268          3030.866769          2243.363312 

Dipole components along the rotational axes: 
x,y,z [a.u.] :     0.369984    -0.344835     0.120863 
x,y,z [Debye]:     0.940425    -0.876500     0.307210 

 

Dipole moment calculation done in   0.0 sec 

Maximum memory used throughout the entire PROP-calculation: 7.5 MB

--------------------------------
SUGGESTED CITATIONS FOR THIS RUN
--------------------------------

Below you find a list of papers that are relevant to this ORCA run
We neither can nor want to force you to cite these papers, but we appreciate if you do
You receive ORCA, which is the product of decades of hard work by many enthusiastic individuals, for free
The only thing we kindly ask in return is that you cite our papers,
We deeply appreciate it, if you show your appreciation for ORCA by not just citing the generic ORCA reference.

Please note that relegating all ORCA citations to the supporting information does *not* help us.
SI sections are not indexed - citations you put there will not count into any citation statistics
But we need these citations in order to attract the funding resources that allow us to do what we are doing

Therefore, if you are a happy ORCA user, please consider citing a few of the papers listed below in the main body of your paper

In addition to the list printed below, the program has created the file 0.bibtex that contains the list in bibtex format
You can import this file easily into all common literature databanks and citation aid programs


List of essential papers. We consider these as the minimum necessary citations

  1. Neese, F.
     Software update: the ORCA program system, version 6.0
     WIRES Comput. Molec. Sci. 2025 15(1), e70019
     doi.org/10.1002/wcms.7019

List of papers to cite with high priority. The work reported in these papers was absolutely
necessary for this run to complete.
Our perspective: the developers of density functionals and basis sets usually get cited in chemistry papers
Good! But without the algorithms to do something with them, the functionals or basis sets would not do anything.
Hence, in our opinion, the algorithm design and method developments papers are equally worthy of getting cited

  1. Neese, F.
     An improvement of the resolution of the identity approximation for the formation of the Coulomb matrix
     J. Comp. Chem. 2003 24(14), 1740-1747
     doi.org/10.1002/jcc.10318
  2. Grimme, S.
     Semiempirical GGA-type density functional constructed with a long-range dispersion correction
     J.Comput.Chem. 2006 27(15), 1787-1799
     doi.org/10.1002/jcc.20495
  3. Neese, F.
     The SHARK Integral Generation and Digestion System
     J. Comp. Chem. 2022 44(3), 381
     doi.org/10.1002/jcc.26942

List of suggested additional citations. These are papers that are important in the 'surrounding' of 
of this run, or papers that preceded the highly important papers. If you like your results we are grateful for a citation.

  1. Neese, F.
     The ORCA program system
     WIRES Comput. Molec. Sci. 2012 2(1), 73-78
     doi.org/10.1002/wcms.81
  2. Neese, F.
     Software update: the ORCA program system, version 4.0
     WIRES Comput. Molec. Sci. 2018 8(1), 1-6
     doi.org/10.1002/wcms.1327
  3. Neese, F.; Wennmohs, F.; Becker, U.; Riplinger, C.
     The ORCA quantum chemistry program package
     J. Chem. Phys. 2020 152(22), 224108
     doi.org/10.1063/5.0004608
  4. Neese, F.
     Software update: The ORCA program system—Version 5.0
     WIRES Comput. Molec. Sci. 2022 12(1), e1606
     doi.org/10.1002/wcms.1606

List of optional additional citations

  1. Neese, F.
     Approximate second-order SCF convergence for spin unrestricted wavefunctions
     Chem. Phys. Lett. 2000 325(1-3), 93-98
     doi.org/10.1016/s0009-2614(00)00662-x

Timings for individual modules:

Sum of individual times          ...       43.296 sec (=   0.722 min)
Startup calculation              ...        2.974 sec (=   0.050 min)   6.9 %
SCF iterations                   ...       25.002 sec (=   0.417 min)  57.7 %
Property calculations            ...        0.033 sec (=   0.001 min)   0.1 %
SCF Gradient evaluation          ...       15.271 sec (=   0.255 min)  35.3 %
Geometry relaxation              ...        0.016 sec (=   0.000 min)   0.0 %
                             ****ORCA TERMINATED NORMALLY****
TOTAL RUN TIME: 0 days 0 hours 0 minutes 43 seconds 540 msec
