
                                 *****************
                                 * O   R   C   A *
                                 *****************

                                            #,                                       
                                            ###                                      
                                            ####                                     
                                            #####                                    
                                            ######                                   
                                           ########,                                 
                                     ,,################,,,,,                         
                               ,,#################################,,                 
                          ,,##########################################,,             
                       ,#########################################, ''#####,          
                    ,#############################################,,   '####,        
                  ,##################################################,,,,####,       
                ,###########''''           ''''###############################       
              ,#####''   ,,,,##########,,,,          '''####'''          '####       
            ,##' ,,,,###########################,,,                        '##       
           ' ,,###''''                  '''############,,,                           
         ,,##''                                '''############,,,,        ,,,,,,###''
      ,#''                                            '''#######################'''  
     '                                                          ''''####''''         
             ,#######,   #######,   ,#######,      ##                                
            ,#'     '#,  ##    ##  ,#'     '#,    #''#        ,####,    ,#,          
            ##       ##  ##   ,#'  ##            #'  '#       #'       ,# #          
            ##       ##  #######   ##           ,######,      #####,      #          
            '#,     ,#'  ##    ##  '#,     ,#' ,#      #,     #,   #      #          
             '#######'   ##     ##  '#######'  #'      '#     '####' #    #          



                #########################################################
                #                        -***-                          #
                #          Department of theory and spectroscopy        #
                #                                                       #
                #                      Frank Neese                      #
                #                                                       #
                #     Directorship, Architecture, Infrastructure        #
                #                    SHARK, DRIVERS                     #
                #        Core code/Algorithms in most modules           #
                #                                                       #
                #        Max Planck Institute fuer Kohlenforschung      #
                #                Kaiser Wilhelm Platz 1                 #
                #                 D-45470 Muelheim/Ruhr                 #
                #                      Germany                          #
                #                                                       #
                #                  All rights reserved                  #
                #                        -***-                          #
                #########################################################


                         Program Version 6.1.0  -  RELEASE   -
                                (GIT: $679e74b$)
                          ($2025-06-10 18:02:51 +0200$)


 With contributions from (in alphabetic order):
[Max-Planck-Institut fuer Kohlenforschung]                               
  Daniel Aravena         : Magnetic Suceptibility                        
  Michael Atanasov       : Ab Initio Ligand Field Theory (pilot matlab implementation)
  Alexander A. Auer      : GIAO ZORA, VPT2 properties, NMR spectrum      
  Ute Becker             : All parallelization in ORCA, NUMFREQ, NUMCALC 
  Giovanni Bistoni       : ED, misc. LED, open-shell LED, HFLD           
  Dmytro Bykov           : pre 5.0 version of the SCF Hessian            
  Marcos Casanova-Páez   : Triplet and SCS-CIS(D). UHF-(DLPNO)-IP/EA/STEOM-CCSD. UHF-CVS-IP/STEOM-CCSD   
  Vijay G. Chilkuri      : MRCI spin determinant printing, contributions to CSF-ICE 
  Pauline Colinet        : FMM embedding                                 
  Dipayan Datta          : RHF DLPNO-CCSD density                        
  Achintya Kumar Dutta   : EOM-CC, STEOM-CC                              
  Nicolas Foglia         : Exact transition moments, OPA infrastructure, MCD improvements    
  Dmitry Ganyushin       : Spin-Orbit,Spin-Spin,Magnetic field MRCI      
  Miquel Garcia-Rates    : C-PCM and meta-GGA Hessian, CCSD/C-PCM, Gaussian charge scheme 
  Tiago L. C. Gouveia    : GS-ROHF, GS-ROCIS                             
  Yang Guo               : DLPNO-NEVPT2, F12-NEVPT2, CIM, IAO-localization        
  Andreas Hansen         : Spin unrestricted coupled pair/coupled cluster methods 
  Ingolf Harden          : AUTO-CI MPn and infrastructure                
  Benjamin Helmich-Paris : MC-RPA, TRAH-(SCF,CASSCF), AVAS, COSX integrals, SCF dyn. polar., MC-PDFT, srDFT 
  Lee Huntington         : MR-EOM, pCC                                   
  Robert Izsak           : Overlap fitted RIJCOSX, COSX-SCS-MP3, EOM     
  Riya Kayal             : Wick's Theorem for AUTO-CI, AUTO-CI UHF-CCSDT 
  Emily Kempfer          : AUTO-CI RHF CISDT and CCSDT, approximate NEVPT4
  Christian Kollmar      : KDIIS, OOCD, Brueckner-CCSD(T), CCSD density, CASPT2, CASPT2-K, improved NEVPT2 
  Axel Koslowski         : Symmetry handling                             
  Simone Kossmann        : meta-GGA functionals, TD-DFT gradient, OOMP2, (MP2 Hessian; deprecated post 5.0) 
  Lucas Lang             : DCDCAS, Hyperfine gauge corrections, ICE-SOC+SSC
  Marvin Lechner         : AUTO-CI (C++ implementation), FIC-MRCC        
  Spencer Leger          : CASSCF response                               
  Dagmar Lenk            : GEPOL surface, SMD, ORCA-2-JSON               
  Dimitrios Liakos       : Extrapolation schemes; Compound Job, Property file
  Dimitrios Manganas     : Further ROCIS development; embedding schemes. LFT, Crystal Embedding 
  Dimitrios Pantazis     : SARC Basis sets                               
  Anastasios Papadopoulos: AUTO-CI, single reference methods and gradients 
  Taras Petrenko         : pre 6.0 DFT Hessian and TD-DFT gradient,  ECA, NRVS 
  Petra Pikulova         : Analytic Raman intensities                    
  Peter Pinski           : DLPNO-MP2, DLPNO-MP2 Gradient                 
  Shashank Vittal Rao    : ES-AILFT, MagRelax                            
  Christoph Reimann      : Effective Core Potentials                     
  Marius Retegan         : Local ZFS, SOC                                
  Christoph Riplinger    : Optimizer, TS searches, QM/MM, DLPNO-CCSD(T), (RO)-DLPNO pert. Triples 
  Michael Roemelt        : Original ROCIS implementation, recursive CI coupling coefficients
  Masaaki Saitow         : Open-shell DLPNO-CCSD energy and density      
  Barbara Sandhoefer     : DKH picture change effects                    
  Yorick L. A. Schmerwitz: GMF and freeze-and-release deltaSCF, NEB S-IDPP initial path                    
  Kantharuban Sivalingam : CASSCF convergence/infrastructure, NEVPT2, NEVPT3, NEVPT4(SD), FIC-MRCI and CEPA variants
  Bernardo de Souza      : ESD, SOC TD-DFT                               
  Georgi L. Stoychev     : AutoAux, RI-MP2 NMR, DLPNO-MP2 response, X2C  
  Van Anh Tran           : RI-MP2 g-tensors                              
  Willem Van den Heuvel  : Paramagnetic NMR                              
  Zikuan Wang            : NOTCH, Electric field optimization            
  Frank Wennmohs         : Technical directorship and infrastructure     
  Hang Xu                : AUTO-CI-Response properties                   
                                                                         
[FACCTs GmbH]                                                            
  Markus Bursch, Nicolas Foglia, Miquel Garcia-Rates, Ingolf Harden, Hagen Neugebauer, Anastasios Papadopoulos, 
  Christoph Riplinger, Bernardo de Souza, Georgi L. Stoychev                                                    
                                                                 
  APM, various basis sets, CI-OPT, improved COSX, DLPNO-Multilevel,           
  DOCKER, DRACO, updates on ESD, Fragmentator, GOAT, IRC, LR-CPCM, L-BFGS, MBIS, meta-GGA TD-DFT gradient, ML-optimized integration grids, 
  MM, NACMEs, nearIR, NEB, NEB-TS, NL-DFT gradient (VV10), 2- and 3-layer-ONIOM, interface openCOSMO-RS, QMMM,   
  Crystal-QMMM, RESP, rigid body optimization, SF, symmetry and pop. for TD-DFT, various functionals, SOLVATOR                                   
                                                                         
[Other institutions]                                                     
  V. Asgeirsson          : NEB                                           
  Christoph Bannwarth    : sTDA-DFT, sTD-DFT, PBEh-3c, B97-3c, D3        
  Giovanni Bistoni       : ETS/NOCV, ADLD/ADEX, COVALED                  
  Martin Brehm           : Molecular dynamics                            
  Ronald Cardenas        : ETS/NOCV                                      
  Martina Colucci        : COVALED                                       
  Sebastian Ehlert       : rSCAN, r2SCAN, r2SCAN-3c, D4, dhf basis sets  
  Marvin Friede          : D4 for Fr, Ra, Ac-Lr                          
  Lars Goerigk           : TD-DFT with DH, B97 family of functionals     
  Stefan Grimme          : VdW corrections, initial TS optimization, DFT functionals, gCP, sTDA/sTD-DF 
  Waldemar Hujo          : DFT-NL                                        
  H. Jonsson             : NEB                                           
  Holger Kruse           : gCP                                           
  Marcel Mueller         : wB97X-3c, vDZP basis set                      
  Hagen Neugebauer       : wr2SCAN, Native XTB                           
  Gianluca Regni         : ADLD/ADEX                                     
  Tobias Risthaus        : pre 6.0 range-separated hybrid DFT and stability analysis
  Lukas Wittmann         : regularized MP2, r2SCAN double-hybrids, wr2SCAN        
                                                                         
We gratefully acknowledge several colleagues who have allowed us to      
interface, adapt or use parts of their codes:                            
  Ed Valeev, F. Pavosevic, A. Kumar             : LibInt (2-el integral package), F12 methods 
  Garnet Chan, S. Sharma, J. Yang, R. Olivares  : DMRG                   
  Ulf Ekstrom                                   : XCFun DFT Library      
  Mihaly Kallay                                 : mrcc  (arbitrary order and MRCC methods)
  Frank Weinhold                                : gennbo (NPA and NBO analysis)           
  Simon Mueller                                 : openCOSMO-RS                            
  Christopher J. Cramer and Donald G. Truhlar   : smd solvation model                     
  S Lehtola, MJT Oliveira, MAL Marques          : LibXC Library                           
  Liviu Ungur et al                             : ANISO software                          


 Your calculation uses the libint2 library for the computation of 2-el integrals
 For citations please refer to: http://libint.valeyev.net

 Your ORCA version has been built with support for libXC version: 7.0.0
 For citations please refer to: https://libxc.gitlab.io

 This ORCA versions uses:
   CBLAS   interface :  Fast vector & matrix operations
   LAPACKE interface :  Fast linear algebra routines
   SCALAPACK package :  Parallel linear algebra routines
   Shared memory     :  Shared parallel matrices
   BLAS/LAPACK       :  OpenBLAS 0.3.29  USE64BITINT DYNAMIC_ARCH NO_AFFINITY Haswell SINGLE_THREADED
        Core in use  :  Haswell
   Copyright (c) 2011-2014, The OpenBLAS Project


  ***********************************
  * Starting time: Sat Aug 30 15:48:30 2025
  * Host name:     chemlab03
  * Process ID:    80009
  * Working dir.:  /home/vivek/mm-project/vivek/xtb-goat/B97-D-opt/g/2
  ***********************************



***************************************
The coordinates will be read from file: /home/vivek/mm-project/vivek/xtb-goat/xtb-goat/g/G_CONF/2.xyz
***************************************


Your calculation utilizes empirical dispersion correction


Warning: RI is on but no J-basis has been assigned. Assigning Def2/J (nothing to worry about!)
================================================================================

----- Orbital basis set information -----
Your calculation utilizes the basis: 6-31G**
   H-He, Li-Ne : W. J. Hehre, R. Ditchfield and J.A. Pople, J. Chem. Phys. 56, 2257 (1972).
                 Note: He and Ne are unpublished basis sets taken from the Gaussian program.
                 Note: Li and B from J. D. Dill and J. A. Pople, J. Chem. Phys. 62, 2921 (1975).
   Na - Ar     : M. M. Francl, W. J. Pietro, W. J. Hehre, J. S. Binkley, M. S. Gordon, 
                 D. J. DeFrees and J. A. Pople, J. Chem. Phys. 77, 3654 (1982).
   K - Zn      : V. A. Rassolov, J. A. Pople, M. A. Ratner, and T. L. Windus, J. Chem. Phys. 109, 1223 (1998).

----- AuxJ basis set information -----
Your calculation utilizes the auxiliary basis: def2/J
   H-Rn: F. Weigend, Phys. Chem. Chem. Phys. 8, 1057 (2006).
   Fr-Lr: K. Eichkorn, F. Weigend, O. Treutler, R. Ahlrichs; Theor. Chem. Acc. 97, 119 (1997).

================================================================================
                                        WARNINGS
                       Please study these warnings very carefully!
================================================================================


WARNING: Geometry Optimization
  ===> : Switching off AutoStart
         For restart on a previous wavefunction, please use MOREAD

INFO   : The exchange functional is Grimme's B97(-D)
         As described in S. Grimme, J. Comput. Chem. 27, 1787 (2006).
         Note that this functional defaults to a pure GGA. 

INFO   : The correlation functional is Grimme's B97(-D)
         As described in S. Grimme, J. Comput. Chem. 27, 1787 (2006).

================================================================================
                                       INPUT FILE
================================================================================
NAME = 2.inp
|  1> ! B97-D 6-31G** opt
|  2> 
|  3> * xyzfile 0 1 /home/vivek/mm-project/vivek/xtb-goat/xtb-goat/g/G_CONF/2.xyz
|  4> 
|  5>                          ****END OF INPUT****
================================================================================

                       *****************************
                       * Geometry Optimization Run *
                       *****************************

Geometry optimization settings:
Update method            Update   .... BFGS
Choice of coordinates    CoordSys .... (2022) Redundant Internals
Initial Hessian          InHess   .... Almloef's Model
Max. no of cycles        MaxIter  .... 50

Convergence Tolerances:
Energy Change            TolE     ....  5.0000e-06 Eh
Max. Gradient            TolMAXG  ....  3.0000e-04 Eh/bohr
RMS Gradient             TolRMSG  ....  1.0000e-04 Eh/bohr
Max. Displacement        TolMAXD  ....  4.0000e-03 bohr
RMS Displacement         TolRMSD  ....  2.0000e-03 bohr
Strict Convergence                .... False

------------------------------------------------------------------------------
                        ORCA OPTIMIZATION COORDINATE SETUP
------------------------------------------------------------------------------

The optimization will be done in redundant internal coordinates (2022)
Making redundant internal coordinates   ...  (2022 redundants) done
Evaluating the initial hessian          ...  (Almloef) done
Evaluating the coordinates              ...  done
Calculating the B-matrix                .... done
Calculating the G-matrix                .... done
The number of degrees of freedom        ....   34

    -----------------------------------------------------------------
                    Redundant Internal Coordinates


    -----------------------------------------------------------------
         Definition                    Initial Value    Approx d2E/dq
    -----------------------------------------------------------------
      1. B(C   1,C   0)                  1.5211         0.385978   
      2. B(N   4,H   2)                  1.0148         0.425127   
      3. B(N   4,C   0)                  1.4541         0.442181   
      4. B(N   4,H   3)                  1.0147         0.425254   
      5. B(O   5,C   1)                  1.3408         0.670377   
      6. B(H   6,C   0)                  1.0921         0.357301   
      7. B(H   7,C   0)                  1.0915         0.358157   
      8. B(H   8,O   5)                  0.9705         0.500270   
      9. B(O   9,C   1)                  1.2014         1.118979   
     10. A(N   4,C   0,H   7)          108.7559         0.331164   
     11. A(C   1,C   0,H   7)          108.9452         0.325775   
     12. A(C   1,C   0,N   4)          111.6237         0.373775   
     13. A(H   6,C   0,H   7)          109.8887         0.290237   
     14. A(C   1,C   0,H   6)          109.2779         0.325647   
     15. A(N   4,C   0,H   6)          108.3350         0.331033   
     16. A(C   0,C   1,O   9)          125.8047         0.440372   
     17. A(C   0,C   1,O   5)          111.4949         0.401900   
     18. A(O   5,C   1,O   9)          122.5815         0.483861   
     19. A(C   0,N   4,H   3)          110.2382         0.337827   
     20. A(C   0,N   4,H   2)          110.3299         0.337810   
     21. A(H   2,N   4,H   3)          108.2703         0.301564   
     22. A(C   1,O   5,H   8)          110.6752         0.372642   
     23. D(O   5,C   1,C   0,N   4)    -74.0857         0.011096   
     24. D(O   9,C   1,C   0,N   4)    102.0129         0.011096   
     25. D(O   9,C   1,C   0,H   6)   -138.1764         0.011096   
     26. D(O   5,C   1,C   0,H   6)     45.7250         0.011096   
     27. D(O   5,C   1,C   0,H   7)    165.7979         0.011096   
     28. D(H   2,N   4,C   0,H   6)   -179.7920         0.016674   
     29. D(H   2,N   4,C   0,C   1)    -59.4270         0.016674   
     30. D(H   3,N   4,C   0,H   6)    -60.2589         0.016674   
     31. D(H   3,N   4,C   0,C   1)     60.1060         0.016674   
     32. D(H   2,N   4,C   0,H   7)     60.8005         0.016674   
     33. D(H   8,O   5,C   1,O   9)      0.6634         0.033388   
     34. D(H   8,O   5,C   1,C   0)    176.9085         0.033388   
    -----------------------------------------------------------------

Number of atoms                         .... 10
Number of degrees of freedom            .... 34


         *************************************************************
         *                GEOMETRY OPTIMIZATION CYCLE   1            *
         *************************************************************
---------------------------------
CARTESIAN COORDINATES (ANGSTROEM)
---------------------------------
  C     -5.169397   -1.391819   -0.276917
  C     -5.038082   -2.504742    0.751641
  H     -6.069155   -0.049418    0.971285
  H     -4.432142    0.096926    0.908423
  N     -5.263230   -0.085884    0.355657
  O     -3.813171   -2.528154    1.296505
  H     -4.291910   -1.396365   -0.927095
  H     -6.070858   -1.560731   -0.868651
  H     -3.757230   -3.210200    1.984666
  O     -5.919114   -3.239298    1.108713

----------------------------
CARTESIAN COORDINATES (A.U.)
----------------------------
  NO LB      ZA    FRAG     MASS         X           Y           Z
   0 C     6.0000    0    12.011   -9.768744   -2.630156   -0.523297
   1 C     6.0000    0    12.011   -9.520594   -4.733277    1.420396
   2 H     1.0000    0     1.008  -11.469041   -0.093387    1.835463
   3 H     1.0000    0     1.008   -8.375535    0.183164    1.716670
   4 N     7.0000    0    14.007   -9.946064   -0.162297    0.672095
   5 O     8.0000    0    15.999   -7.205848   -4.777518    2.450039
   6 H     1.0000    0     1.008   -8.110535   -2.638748   -1.751955
   7 H     1.0000    0     1.008  -11.472258   -2.949354   -1.641513
   8 H     1.0000    0     1.008   -7.100135   -6.066399    3.750475
   9 O     8.0000    0    15.999  -11.185505   -6.121386    2.095164

--------------------------------
INTERNAL COORDINATES (ANGSTROEM)
--------------------------------
 C      0   0   0     0.000000000000     0.00000000     0.00000000
 C      1   0   0     1.521109305235     0.00000000     0.00000000
 H      1   2   0     2.041963037423    96.06718912     0.00000000
 H      3   1   2     1.644743031156    66.20709281    93.00270378
 N      4   3   1     1.014729791057    35.86649902    38.85742923
 O      2   1   3     1.340832541747   111.49485798   262.11743696
 H      1   2   3     1.092123825934   109.27789589   143.60757919
 H      1   2   3     1.091472911767   108.94517310   263.68051091
 H      6   2   1     0.970506303402   110.67517839   176.90853282
 O      2   1   3     1.201370414786   125.80465026    78.21599275

---------------------------
INTERNAL COORDINATES (A.U.)
---------------------------
 C      0   0   0     0.000000000000     0.00000000     0.00000000
 C      1   0   0     2.874480006654     0.00000000     0.00000000
 H      1   2   0     3.858750916319    96.06718912     0.00000000
 H      3   1   2     3.108113889561    66.20709281    93.00270378
 N      4   3   1     1.917561405029    35.86649902    38.85742923
 O      2   1   3     2.533806295352   111.49485798   262.11743696
 H      1   2   3     2.063814935345   109.27789589   143.60757919
 H      1   2   3     2.062584885833   108.94517310   263.68051091
 H      6   2   1     1.833991124674   110.67517839   176.90853282
 O      2   1   3     2.270261069340   125.80465026    78.21599275

---------------------
BASIS SET INFORMATION
---------------------
There are 4 groups of distinct atoms

 Group   1 Type C   : 10s4p1d contracted to 3s2p1d pattern {631/31/1}
 Group   2 Type H   : 4s1p contracted to 2s1p pattern {31/1}
 Group   3 Type N   : 10s4p1d contracted to 3s2p1d pattern {631/31/1}
 Group   4 Type O   : 10s4p1d contracted to 3s2p1d pattern {631/31/1}

Atom   0C    basis set group =>   1
Atom   1C    basis set group =>   1
Atom   2H    basis set group =>   2
Atom   3H    basis set group =>   2
Atom   4N    basis set group =>   3
Atom   5O    basis set group =>   4
Atom   6H    basis set group =>   2
Atom   7H    basis set group =>   2
Atom   8H    basis set group =>   2
Atom   9O    basis set group =>   4
---------------------------------
AUXILIARY/J BASIS SET INFORMATION
---------------------------------
There are 4 groups of distinct atoms

 Group   1 Type C   : 12s5p4d2f1g contracted to 6s4p3d1f1g pattern {711111/2111/211/2/1}
 Group   2 Type H   : 5s2p1d contracted to 3s1p1d pattern {311/2/1}
 Group   3 Type N   : 12s5p4d2f1g contracted to 6s4p3d1f1g pattern {711111/2111/211/2/1}
 Group   4 Type O   : 12s5p4d2f1g contracted to 6s4p3d1f1g pattern {711111/2111/211/2/1}

Atom   0C    basis set group =>   1
Atom   1C    basis set group =>   1
Atom   2H    basis set group =>   2
Atom   3H    basis set group =>   2
Atom   4N    basis set group =>   3
Atom   5O    basis set group =>   4
Atom   6H    basis set group =>   2
Atom   7H    basis set group =>   2
Atom   8H    basis set group =>   2
Atom   9O    basis set group =>   4
------------------------------------------------------------------------------
                             ORCA STARTUP CALCULATIONS
                           -- RI-GTO INTEGRALS CHOSEN --
------------------------------------------------------------------------------
------------------------------------------------------------------------------
                   ___                                                        
                  /   \      - P O W E R E D   B Y -                         
                 /     \                                                     
                 |  |  |   _    _      __       _____    __    __             
                 |  |  |  | |  | |    /  \     |  _  \  |  |  /  |          
                  \  \/   | |  | |   /    \    | | | |  |  | /  /          
                 / \  \   | |__| |  /  /\  \   | |_| |  |  |/  /          
                |  |  |   |  __  | /  /__\  \  |    /   |      \           
                |  |  |   | |  | | |   __   |  |    \   |  |\   \          
                \     /   | |  | | |  |  |  |  | |\  \  |  | \   \       
                 \___/    |_|  |_| |__|  |__|  |_| \__\ |__|  \__/        
                                                                              
                      - O R C A' S   B I G   F R I E N D -                    
                                      &                                       
                       - I N T E G R A L  F E E D E R -                       
                                                                              
 v1 FN, 2020, v2 2021, v3 2022-2024                                           
------------------------------------------------------------------------------


----------------------
SHARK INTEGRAL PACKAGE
----------------------

Number of atoms                             ...     10
Number of basis functions                   ...     95
Number of shells                            ...     45
Maximum angular momentum                    ...      2
Integral batch strategy                     ... SHARK/LIBINT Hybrid
RI-J (if used) integral strategy            ... SPLIT-RIJ (Revised 2003 algorithm where possible)
Printlevel                                  ...      1
Contraction scheme used                     ... SEGMENTED contraction
Prescreening option                         ... SCHWARTZ
   Thresh                                   ... 2.500e-11
   Tcut                                     ... 2.500e-12
   Tpresel                                  ... 2.500e-12 
Coulomb Range Separation                    ... NOT USED
Exchange Range Separation                   ... NOT USED
Multipole approximations                    ... NOT USED
Finite Nucleus Model                        ... NOT USED
CABS basis                                  ... NOT available
Auxiliary Coulomb fitting basis             ... AVAILABLE
   # of basis functions in Aux-J            ...    300
   # of shells in Aux-J                     ...    100
   Maximum angular momentum in Aux-J        ...      4
Auxiliary J/K fitting basis                 ... NOT available
Auxiliary Correlation fitting basis         ... NOT available
Auxiliary 'external' fitting basis          ... NOT available

Checking pre-screening integrals            ... done (  0.0 sec) Dimension = 45
   => SHARK Basis and OBASIS are compatible. Storing Pre-screening
Shell pair information
Shell pair cut-off parameter TPreSel        ...   2.5e-12
Total number of shell pairs                 ...      1035
Shell pairs after pre-screening             ...      1014
Total number of primitive shell pairs       ...      5170
Primitive shell pairs kept                  ...      3765
          la=0 lb=0:    314 shell pairs
          la=1 lb=0:    367 shell pairs
          la=1 lb=1:    118 shell pairs
          la=2 lb=0:    125 shell pairs
          la=2 lb=1:     75 shell pairs
          la=2 lb=2:     15 shell pairs

Checking whether 4 symmetric matrices of dimension 95 fit in memory
:Max Core in MB      =   4096.00
 MB in use           =      4.71
 MB left             =   4091.29
 MB needed           =      0.14
 Data fit in memory  = YES
Calculating RI/J V-Matrix + Cholesky decomp.... done (  0.0 sec)
Calculating Nuclear repulsion               ... done (  0.0 sec) ENN=    180.274094865167 Eh

Diagonalization of the overlap matrix:
Smallest eigenvalue                        ... 5.375e-03
Time for diagonalization                   ...    0.001 sec
Threshold for overlap eigenvalues          ... 1.000e-07
Number of eigenvalues below threshold      ... 0
Time for construction of square roots      ...    0.000 sec
Total time needed                          ...    0.001 sec

-------------------
DFT GRID GENERATION
-------------------

General Integration Accuracy     IntAcc      ... 4.388
Radial Grid Type                 RadialGrid  ... OptM3 with GC (2021)
Angular Grid (max. ang.)         AngularGrid ... 4 (Lebedev-302)
Angular grid pruning method      GridPruning ... 4 (adaptive)
Weight generation scheme         WeightScheme... mBecke (2022)
Basis function cutoff            BFCut       ... 1.0000e-11
Integration weight cutoff        WCut        ... 1.0000e-14
Partially contracted basis set               ... off
Rotationally invariant grid construction     ... off
Angular grids for H and He will be reduced by one unit

Total number of grid points                  ...    46626
Total number of batches                      ...      734
Average number of points per batch           ...       63
Average number of grid points per atom       ...     4663
Grids setup in   0.1 sec
Initializing property integral containers    ... done (  0.0 sec)

SHARK setup successfully completed in   0.2 seconds

Maximum memory used throughout the entire STARTUP-calculation: 19.9 MB
-------------------------------------------------------------------------------
                                 ORCA GUESS
                   Start orbitals & Density for SCF / CASSCF
-------------------------------------------------------------------------------

------------
SCF SETTINGS
------------
Hamiltonian:
 Density Functional     Method          .... DFT(GTOs)
 Exchange Functional    Exchange        .... B97(D)
 Correlation Functional Correlation     .... B97(D)
 Gradients option       PostSCFGGA      .... off
 RI-approximation to the Coulomb term is turned on
   Number of AuxJ basis functions       .... 300


General Settings:
 Integral files         IntName         .... 2
 Hartree-Fock type      HFTyp           .... RHF
 Total Charge           Charge          ....    0
 Multiplicity           Mult            ....    1
 Number of Electrons    NEL             ....   40
 Basis Dimension        Dim             ....   95
 Nuclear Repulsion      ENuc            ....    180.2740948652 Eh

Convergence Acceleration:
 AO-DIIS                CNVDIIS         .... on
   Start iteration      DIISMaxIt       ....    12
   Startup error        DIISStart       ....  0.200000
   # of expansion vecs  DIISMaxEq       ....     5
   Bias factor          DIISBfac        ....   1.050
   Max. coefficient     DIISMaxC        ....  10.000
 MO-DIIS                CNVKDIIS        .... off
 Trust-Rad. Augm. Hess. CNVTRAH         .... auto
   Auto Start mean grad. ratio tolernc. ....  1.125000
   Auto Start start iteration           ....    50
   Auto Start num. interpolation iter.  ....    10
   Max. Number of Micro iterations      ....    24
   Max. Number of Macro iterations      .... Maxiter - #DIIS iter
   Number of Davidson start vectors     ....     2
   Converg. threshold    (grad. norm)   ....   1.000e-05
   Grad. Scal. Fac. for Micro threshold ....   0.100
   Minimum threshold for Micro iter.    ....   1.000e-02
   NR start threshold (gradient norm)   ....   1.000e-04
   Initial trust radius                 ....   0.400
   Minimum AH scaling param. (alpha)    ....   1.000
   Maximum AH scaling param. (alpha)    .... 1000.000
   Quad. conv. algorithm                .... NR
   White noise on init. David. guess    .... on
   Maximum white noise                  ....   0.010
   Pseudo random numbers                .... off
   Inactive MOs                         .... canonical
   Orbital update algorithm             .... Taylor
   Preconditioner                       .... Diag
   Full preconditioner red. dimension   ....   250
 SOSCF                 CNVSOSCF           .... on
   Start iteration     SOSCFMaxIt         ....   150
   Startup grad/error  SOSCFStart         ....  0.003300
   Hessian update      SOSCFHessUp        .... L-BFGS
   Autom. constraints  SOSCFAutoConstrain .... off
 Level Shifting         CNVShift        .... on
   Level shift para.    LevelShift      ....    0.2500
   Turn off err/grad.   ShiftErr        ....    0.0010
 Zerner damping         CNVZerner       .... off
 Static damping         CNVDamp         .... on
   Fraction old density DampFac         ....    0.7000
   Max. Damping (<1)    DampMax         ....    0.9800
   Min. Damping (>=0)   DampMin         ....    0.0000
   Turn off err/grad.   DampErr         ....    0.1000

SCF Procedure:
 Maximum # iterations   MaxIter         ....   125
 SCF integral mode      SCFMode         .... Direct
   Integral package                     .... SHARK and LIBINT hybrid scheme
 Reset frequency        DirectResetFreq ....    20
 Integral Threshold     Thresh          ....  2.500e-11 Eh
 Primitive CutOff       TCut            ....  2.500e-12 Eh

Convergence Tolerance:
 Convergence Check Mode ConvCheckMode   .... Total+1el-Energy
 Convergence forced     ConvForced      .... 0
 Energy Change          TolE            ....  1.000e-08 Eh
 1-El. energy change                    ....  1.000e-05 Eh
 Orbital Gradient       TolG            ....  1.000e-05
 Orbital Rotation angle TolX            ....  1.000e-05
 DIIS Error             TolErr          ....  5.000e-07

------------------------------
INITIAL GUESS: MODEL POTENTIAL
------------------------------
Loading Hartree-Fock densities                     ... done
Calculating cut-offs                               ... done
Initializing the effective Hamiltonian             ... done
Setting up the integral package (SHARK)            ... done
Starting the Coulomb interaction                   ... done (   0.0 sec)
Making the grid                                    ... done (   0.0 sec)
Mapping shells                                     ... done
Starting the XC term evaluation                    ... done (   0.0 sec)
  promolecular density results
     # of electrons  =     39.997266221
     EX              =    -34.195424511
     EC              =     -1.792811472
     EX+EC           =    -35.988235983
Transforming the Hamiltonian                       ... done (   0.0 sec)
Diagonalizing the Hamiltonian                      ... done (   0.0 sec)
Back transforming the eigenvectors                 ... done (   0.0 sec)
Now organizing SCF variables                       ... done
                      ------------------
                      INITIAL GUESS DONE (   0.1 sec)
                      ------------------
             **** ENERGY FILE WAS UPDATED (2.en.tmp) ****
Finished Guess after   0.1 sec
Maximum memory used throughout the entire GUESS-calculation: 8.2 MB

-------------------------------------------------------------------------------------------
                                      ORCA LEAN-SCF
                              memory conserving SCF solver
-------------------------------------------------------------------------------------------

----------------------------------------D-I-I-S--------------------------------------------
Iteration    Energy (Eh)           Delta-E    RMSDP     MaxDP     DIISErr   Damp  Time(sec)
-------------------------------------------------------------------------------------------
               ***  Starting incremental Fock matrix formation  ***
    1    -284.0192502053899943     0.00e+00  5.73e-03  9.92e-02  2.58e-01  0.700   0.2
    2    -284.1336803999781750    -1.14e-01  3.42e-03  4.90e-02  9.69e-02  0.700   0.1
                               ***Turning on AO-DIIS***
    3    -284.1662517384061175    -3.26e-02  1.22e-03  1.42e-02  2.68e-02  0.700   0.1
    4    -284.1885753324498864    -2.23e-02  1.58e-03  1.75e-02  1.49e-02  0.000   0.1
    5    -284.2414280232915189    -5.29e-02  5.83e-04  7.42e-03  9.79e-03  0.000   0.1
    6    -284.2419507949716717    -5.23e-04  2.08e-04  2.30e-03  3.38e-03  0.000   0.1
                              *** Initializing SOSCF ***
---------------------------------------S-O-S-C-F--------------------------------------
Iteration    Energy (Eh)           Delta-E    RMSDP     MaxDP     MaxGrad    Time(sec)
--------------------------------------------------------------------------------------
    7    -284.2419970292420430    -4.62e-05  7.55e-05  9.12e-04  9.99e-04     0.1
               *** Restarting incremental Fock matrix formation ***
    8    -284.2420024293297729    -5.40e-06  5.50e-05  6.77e-04  1.25e-04     0.2
    9    -284.2420029516122213    -5.22e-07  2.33e-05  3.67e-04  1.36e-04     0.1
   10    -284.2420029762489548    -2.46e-08  2.18e-05  2.75e-04  2.05e-04     0.1
   11    -284.2420031608102136    -1.85e-07  1.22e-05  2.03e-04  7.47e-05     0.1
   12    -284.2420031679098429    -7.10e-09  9.55e-06  9.54e-05  4.96e-05     0.1
                 **** Energy Check signals convergence ****

               *****************************************************
               *                     SUCCESS                       *
               *           SCF CONVERGED AFTER  12 CYCLES          *
               *****************************************************

             **** ENERGY FILE WAS UPDATED (2.en.tmp) ****

----------------
TOTAL SCF ENERGY
----------------

Total Energy       :       -284.24200322927379 Eh           -7734.61813 eV

Components:
Nuclear Repulsion  :        180.27409486516743 Eh            4905.50751 eV
Electronic Energy  :       -464.51609809444125 Eh          -12640.12564 eV
One Electron Energy:       -745.06410441899618 Eh          -20274.22500 eV
Two Electron Energy:        280.54800632455493 Eh            7634.09936 eV

Virial components:
Potential Energy   :       -567.04268665119389 Eh          -15430.01595 eV
Kinetic Energy     :        282.80068342192004 Eh            7695.39782 eV
Virial Ratio       :          2.00509659237705

DFT components:
N(Alpha)           :       20.000009327718 electrons
N(Beta)            :       20.000009327718 electrons
N(Total)           :       40.000018655435 electrons
E(X)               :      -34.934675213318 Eh       
E(C)               :       -1.782594011478 Eh       
E(XC)              :      -36.717269224796 Eh       

---------------
SCF CONVERGENCE
---------------

  Last Energy change         ...    7.0996e-09  Tolerance :   1.0000e-08
  Last MAX-Density change    ...    9.5380e-05  Tolerance :   1.0000e-07
  Last RMS-Density change    ...    9.5532e-06  Tolerance :   5.0000e-09
  Last DIIS Error            ...    9.9868e-04  Tolerance :   5.0000e-07
  Last Orbital Gradient      ...    4.9613e-05  Tolerance :   1.0000e-05
  Last Orbital Rotation      ...    1.8622e-04  Tolerance :   1.0000e-05


----------------
ORBITAL ENERGIES
----------------

  NO   OCC          E(Eh)            E(eV) 
   0   2.0000     -18.813843      -511.9507 
   1   2.0000     -18.751789      -510.2621 
   2   2.0000     -13.999636      -380.9495 
   3   2.0000     -10.028211      -272.8815 
   4   2.0000      -9.944522      -270.6042 
   5   2.0000      -1.019952       -27.7543 
   6   2.0000      -0.930280       -25.3142 
   7   2.0000      -0.819014       -22.2865 
   8   2.0000      -0.647280       -17.6134 
   9   2.0000      -0.559414       -15.2224 
  10   2.0000      -0.460543       -12.5320 
  11   2.0000      -0.435579       -11.8527 
  12   2.0000      -0.413835       -11.2610 
  13   2.0000      -0.410526       -11.1710 
  14   2.0000      -0.361025        -9.8240 
  15   2.0000      -0.342801        -9.3281 
  16   2.0000      -0.335504        -9.1295 
  17   2.0000      -0.273810        -7.4507 
  18   2.0000      -0.237299        -6.4572 
  19   2.0000      -0.191551        -5.2124 
  20   0.0000      -0.019983        -0.5438 
  21   0.0000       0.047199         1.2844 
  22   0.0000       0.080609         2.1935 
  23   0.0000       0.114169         3.1067 
  24   0.0000       0.122858         3.3431 
  25   0.0000       0.153186         4.1684 
  26   0.0000       0.184600         5.0232 
  27   0.0000       0.215481         5.8635 
  28   0.0000       0.284634         7.7453 
  29   0.0000       0.317161         8.6304 
  30   0.0000       0.500537        13.6203 
*Only the first 10 virtual orbitals were printed.

                    ********************************
                    * MULLIKEN POPULATION ANALYSIS *
                    ********************************

-----------------------
MULLIKEN ATOMIC CHARGES
-----------------------
   0 C :   -0.121942
   1 C :    0.472504
   2 H :    0.248818
   3 H :    0.250380
   4 N :   -0.570260
   5 O :   -0.458203
   6 H :    0.132161
   7 H :    0.140776
   8 H :    0.318032
   9 O :   -0.412268
Sum of atomic charges:    0.0000000

--------------------------------
MULLIKEN REDUCED ORBITAL CHARGES
--------------------------------
  0 C s       :     3.220006  s :     3.220006
      pz      :     0.943309  p :     2.851734
      px      :     1.085065
      py      :     0.823360
      dz2     :     0.005745  d :     0.050202
      dxz     :     0.009937
      dyz     :     0.014544
      dx2y2   :     0.014915
      dxy     :     0.005062

  1 C s       :     2.995432  s :     2.995432
      pz      :     0.846256  p :     2.407570
      px      :     0.717613
      py      :     0.843701
      dz2     :     0.015052  d :     0.124493
      dxz     :     0.029054
      dyz     :     0.015870
      dx2y2   :     0.039215
      dxy     :     0.025302

  2 H s       :     0.727313  s :     0.727313
      pz      :     0.008302  p :     0.023869
      px      :     0.009503
      py      :     0.006065

  3 H s       :     0.725793  s :     0.725793
      pz      :     0.007882  p :     0.023827
      px      :     0.009497
      py      :     0.006448

  4 N s       :     3.597875  s :     3.597875
      pz      :     1.415729  p :     3.943748
      px      :     1.156395
      py      :     1.371623
      dz2     :     0.002622  d :     0.028636
      dxz     :     0.012471
      dyz     :     0.003300
      dx2y2   :     0.007628
      dxy     :     0.002615

  5 O s       :     3.817937  s :     3.817937
      pz      :     1.506220  p :     4.617822
      px      :     1.502245
      py      :     1.609356
      dz2     :     0.002341  d :     0.022444
      dxz     :     0.004259
      dyz     :     0.005060
      dx2y2   :     0.006781
      dxy     :     0.004003

  6 H s       :     0.856840  s :     0.856840
      pz      :     0.003945  p :     0.010999
      px      :     0.005114
      py      :     0.001940

  7 H s       :     0.848478  s :     0.848478
      pz      :     0.003536  p :     0.010746
      px      :     0.005304
      py      :     0.001906

  8 H s       :     0.644039  s :     0.644039
      pz      :     0.015339  p :     0.037929
      px      :     0.007285
      py      :     0.015305

  9 O s       :     3.854193  s :     3.854193
      pz      :     1.563420  p :     4.530036
      px      :     1.522914
      py      :     1.443702
      dz2     :     0.003487  d :     0.028039
      dxz     :     0.005866
      dyz     :     0.003464
      dx2y2   :     0.007995
      dxy     :     0.007228



                     *******************************
                     * LOEWDIN POPULATION ANALYSIS *
                     *******************************

----------------------
LOEWDIN ATOMIC CHARGES
----------------------
   0 C :   -0.086330
   1 C :    0.094184
   2 H :    0.128564
   3 H :    0.128288
   4 N :   -0.246131
   5 O :   -0.149999
   6 H :    0.082841
   7 H :    0.086177
   8 H :    0.180914
   9 O :   -0.218508

-------------------------------
LOEWDIN REDUCED ORBITAL CHARGES
-------------------------------
  0 C s       :     2.900492  s :     2.900492
      pz      :     1.026416  p :     3.075133
      px      :     1.098944
      py      :     0.949773
      dz2     :     0.011269  d :     0.110705
      dxz     :     0.020603
      dyz     :     0.035936
      dx2y2   :     0.033628
      dxy     :     0.009270

  1 C s       :     2.858840  s :     2.858840
      pz      :     0.908450  p :     2.750540
      px      :     0.914741
      py      :     0.927348
      dz2     :     0.034849  d :     0.296436
      dxz     :     0.067605
      dyz     :     0.037061
      dx2y2   :     0.096247
      dxy     :     0.060674

  2 H s       :     0.792494  s :     0.792494
      pz      :     0.028585  p :     0.078942
      px      :     0.032656
      py      :     0.017701

  3 H s       :     0.792683  s :     0.792683
      pz      :     0.026295  p :     0.079029
      px      :     0.033637
      py      :     0.019098

  4 N s       :     3.200615  s :     3.200615
      pz      :     1.424209  p :     3.987772
      px      :     1.174959
      py      :     1.388603
      dz2     :     0.004169  d :     0.057745
      dxz     :     0.022196
      dyz     :     0.007512
      dx2y2   :     0.017526
      dxy     :     0.006341

  5 O s       :     3.472145  s :     3.472145
      pz      :     1.501813  p :     4.627431
      px      :     1.531550
      py      :     1.594068
      dz2     :     0.005461  d :     0.050422
      dxz     :     0.011676
      dyz     :     0.010971
      dx2y2   :     0.015011
      dxy     :     0.007303

  6 H s       :     0.877803  s :     0.877803
      pz      :     0.014243  p :     0.039355
      px      :     0.019344
      py      :     0.005769

  7 H s       :     0.874978  s :     0.874978
      pz      :     0.012670  p :     0.038845
      px      :     0.020514
      py      :     0.005661

  8 H s       :     0.703234  s :     0.703234
      pz      :     0.047448  p :     0.115852
      px      :     0.020498
      py      :     0.047906

  9 O s       :     3.554639  s :     3.554639
      pz      :     1.560728  p :     4.605569
      px      :     1.566869
      py      :     1.477972
      dz2     :     0.007251  d :     0.058299
      dxz     :     0.010964
      dyz     :     0.007726
      dx2y2   :     0.013449
      dxy     :     0.018909



                      *****************************
                      * MAYER POPULATION ANALYSIS *
                      *****************************

  NA   - Mulliken gross atomic population
  ZA   - Total nuclear charge
  QA   - Mulliken gross atomic charge
  VA   - Mayer's total valence
  BVA  - Mayer's bonded valence
  FA   - Mayer's free valence

  ATOM       NA         ZA         QA         VA         BVA        FA
  0 C      6.1219     6.0000    -0.1219     3.8340     3.8340     0.0000
  1 C      5.5275     6.0000     0.4725     3.9728     3.9728    -0.0000
  2 H      0.7512     1.0000     0.2488     0.9152     0.9152    -0.0000
  3 H      0.7496     1.0000     0.2504     0.9186     0.9186    -0.0000
  4 N      7.5703     7.0000    -0.5703     2.9073     2.9073     0.0000
  5 O      8.4582     8.0000    -0.4582     2.0338     2.0338     0.0000
  6 H      0.8678     1.0000     0.1322     0.9475     0.9475    -0.0000
  7 H      0.8592     1.0000     0.1408     0.9495     0.9495     0.0000
  8 H      0.6820     1.0000     0.3180     0.9179     0.9179    -0.0000
  9 O      8.4123     8.0000    -0.4123     2.1107     2.1107     0.0000

  Mayer bond orders larger than 0.100000
B(  0-C ,  1-C ) :   0.9188 B(  0-C ,  4-N ) :   1.0269 B(  0-C ,  6-H ) :   0.9340 
B(  0-C ,  7-H ) :   0.9451 B(  1-C ,  5-O ) :   1.0862 B(  1-C ,  9-O ) :   1.9299 
B(  2-H ,  4-N ) :   0.9074 B(  3-H ,  4-N ) :   0.9048 B(  5-O ,  8-H ) :   0.8530 


-------
TIMINGS
-------

Total SCF time: 0 days 0 hours 0 min 1 sec 

Total time                  ....       1.891 sec
Sum of individual times     ....       1.729 sec  ( 91.5%)

SCF preparation             ....       0.026 sec  (  1.3%)
Fock matrix formation       ....       1.666 sec  ( 88.1%)
  Startup                   ....       0.000 sec  (  0.0% of F)
  Split-RI-J                ....       0.378 sec  ( 22.7% of F)
  XC integration            ....       1.414 sec  ( 84.8% of F)
    Basis function eval.    ....       0.476 sec  ( 33.6% of XC)
    Density eval.           ....       0.244 sec  ( 17.3% of XC)
    XC-Functional eval.     ....       0.369 sec  ( 26.1% of XC)
    XC-Potential eval.      ....       0.283 sec  ( 20.0% of XC)
Diagonalization             ....       0.000 sec  (  0.0%)
Density matrix formation    ....       0.020 sec  (  1.0%)
Total Energy calculation    ....       0.000 sec  (  0.0%)
Population analysis         ....       0.001 sec  (  0.1%)
Orbital Transformation      ....       0.001 sec  (  0.1%)
Orbital Orthonormalization  ....       0.000 sec  (  0.0%)
DIIS solution               ....       0.007 sec  (  0.4%)
SOSCF solution              ....       0.008 sec  (  0.4%)
Finished LeanSCF after   1.9 sec

Maximum memory used throughout the entire LEANSCF-calculation: 10.2 MB



-------------------------------------------------------------------------------
                          DFT DISPERSION CORRECTION                            
-------------------------------------------------------------------------------
Active option DFTDOPT                   ...         2   
Final C6-coefficient scaling factor     ...     1.250
Final VDW-radii scaling factor          ...     1.100
Damping factor alpha                    ...    20.000
-------------------------   ----------------
Dispersion correction           -0.007418287
-------------------------   ----------------


-------------------------   --------------------
FINAL SINGLE POINT ENERGY      -284.249421516588
-------------------------   --------------------

------------------------------------------------------------------------------
                         ORCA SCF GRADIENT CALCULATION
------------------------------------------------------------------------------

Nuc. rep. gradient        (SHARK) ... done (  0.0 sec)
HCore & Overlap gradient  (SHARK) ... done (  0.0 sec)
Split-RIJ-J gradient      (SHARK) ... done (  0.2 sec)
XC gradient                       ... done (  0.7 sec)
Dispersion correction             ... done (  0.0 sec)

-------------------
DISPERSION GRADIENT
-------------------

   1   C   :   -0.000055866    0.000069010    0.000629883
   2   C   :    0.000054968    0.000197449   -0.000715681
   3   H   :    0.000154797    0.000674075    0.000229534
   4   H   :   -0.000353120    0.000836114    0.000213101
   5   N   :   -0.000030385   -0.000417863   -0.000609192
   6   O   :    0.000029729   -0.000710039    0.000226205
   7   H   :   -0.000869915   -0.000156214   -0.000125802
   8   H   :    0.000840536    0.000070403   -0.000178161
   9   H   :   -0.000375257   -0.000165884   -0.000049656
  10   O   :    0.000604514   -0.000397051    0.000379769

Difference to translation invariance:
           :    0.0000000000    0.0000000000    0.0000000000

Difference to rotation invariance:
           :   -0.0000000000    0.0000000000   -0.0000000000

Norm of the Dispersion gradient    ...    0.0024166523
RMS gradient                       ...    0.0004412183
MAX gradient                       ...    0.0008699150

------------------
CARTESIAN GRADIENT
------------------

   1   C   :   -0.002478420    0.000436226   -0.001177952
   2   C   :   -0.001261730   -0.005405967    0.009858681
   3   H   :    0.001917707    0.000434239   -0.003429386
   4   H   :   -0.001935039    0.000150361   -0.003224959
   5   N   :    0.000891784   -0.012259461    0.003429009
   6   O   :   -0.029531706   -0.009469061   -0.002464084
   7   H   :   -0.003092073    0.000226333    0.004828802
   8   H   :    0.002322323    0.003121731    0.002072490
   9   H   :    0.006086009    0.003078382   -0.001504165
  10   O   :    0.027081145    0.019687217   -0.008388435

Difference to translation invariance:
           :    0.0000000000   -0.0000000000   -0.0000000000

Difference to rotation invariance:
           :    0.0000171667   -0.0000898541   -0.0001006958

Norm of the Cartesian gradient     ...    0.0508793787
RMS gradient                       ...    0.0092892611
MAX gradient                       ...    0.0295317057

-------
TIMINGS
-------

Total SCF gradient time     ....        0.837 sec

Densities                   ....       0.000 sec  (  0.0%)
One electron gradient       ....       0.022 sec  (  2.7%)
RI-J Coulomb gradient       ....       0.152 sec  ( 18.1%)
XC gradient                 ....       0.662 sec  ( 79.2%)

Maximum memory used throughout the entire SCFGRAD-calculation: 13.4 MB
------------------------------------------------------------------------------
                         ORCA GEOMETRY RELAXATION STEP
------------------------------------------------------------------------------

Reading the OPT-File                    .... done
Getting information on internals        .... done
Copying old internal coords+grads       .... done
Making the new internal coordinates     .... (2022 redundants) done
Validating the new internal coordinates .... (2022 redundants) done
Calculating the B-matrix                .... done
Calculating the G,G- and P matrices     .... done
Transforming gradient to internals      .... done
Projecting the internal gradient        .... done
Number of atoms                         ....  10
Number of internal coordinates          ....  34
Current Energy                          ....  -284.249421517 Eh
Current gradient norm                   ....     0.050879379 Eh/bohr
Maximum allowed component of the step   ....  0.300
Current trust radius                    ....  0.300
Evaluating the initial hessian          ....  (Almloef) done
Projecting the Hessian                  .... done
Forming the augmented Hessian           .... done
Diagonalizing the augmented Hessian     .... done
Last element of RFO vector              ....  0.995915164
Lowest eigenvalues of augmented Hessian:
 -0.003263163  0.011096915  0.016674173  0.017626588  0.033410577
Length of the computed step             ....  0.090664237
The final length of the internal step   ....  0.090664237
Converting the step to Cartesian space:
 Initial RMS(Int)=    0.0155487883
Transforming coordinates:
 Iter   0:  RMS(Cart)=    0.0167339906 RMS(Int)=    0.0155088708
done
Storing new coordinates                 .... done

                                .--------------------.
          ----------------------|Geometry convergence|-------------------------
          Item                value                   Tolerance       Converged
          ---------------------------------------------------------------------
          RMS gradient        0.0080878373            0.0001000000      NO
          MAX gradient        0.0343923000            0.0003000000      NO
          RMS step            0.0155487883            0.0020000000      NO
          MAX step            0.0340119493            0.0040000000      NO
          -------------------------------------------------------------------------
          ........................................................
          Max(Bonds)      0.0180      Max(Angles)    1.77
          Max(Dihed)        1.77      Max(Improp)    0.00
          ---------------------------------------------------------------------

The optimization has not yet converged - more geometry cycles are needed


    ---------------------------------------------------------------------------
                         Redundant Internal Coordinates
                            (Angstroem and degrees)

        Definition                    Value    dE/dq     Step     New-Value
    ----------------------------------------------------------------------------
     1. B(C   1,C   0)                1.5211 -0.007260  0.0099    1.5310   
     2. B(N   4,H   2)                1.0148 -0.003585  0.0044    1.0192   
     3. B(N   4,C   0)                1.4541 -0.011945  0.0142    1.4683   
     4. B(N   4,H   3)                1.0147 -0.003317  0.0041    1.0188   
     5. B(O   5,C   1)                1.3408 -0.022912  0.0180    1.3588   
     6. B(H   6,C   0)                1.0921 -0.005362  0.0079    1.1000   
     7. B(H   7,C   0)                1.0915 -0.003523  0.0052    1.0966   
     8. B(H   8,O   5)                0.9705 -0.002883  0.0030    0.9735   
     9. B(O   9,C   1)                1.2014 -0.034392  0.0162    1.2176   
    10. A(N   4,C   0,H   7)          108.76 -0.001493    0.25    109.01   
    11. A(C   1,C   0,H   7)          108.95  0.003824   -0.82    108.13   
    12. A(C   1,C   0,N   4)          111.62 -0.003775    0.77    112.39   
    13. A(H   6,C   0,H   7)          109.89  0.000679   -0.54    109.35   
    14. A(C   1,C   0,H   6)          109.28  0.000150    0.18    109.46   
    15. A(N   4,C   0,H   6)          108.34  0.000617    0.15    108.49   
    16. A(C   0,C   1,O   9)          125.80  0.000752   -0.08    125.72   
    17. A(C   0,C   1,O   5)          111.49  0.005269   -0.73    110.77   
    18. A(O   5,C   1,O   9)          122.58 -0.005944    0.71    123.30   
    19. A(C   0,N   4,H   3)          110.24  0.000560   -0.28    109.95   
    20. A(C   0,N   4,H   2)          110.33  0.000589   -0.29    110.04   
    21. A(H   2,N   4,H   3)          108.27  0.001075   -0.62    107.65   
    22. A(C   1,O   5,H   8)          110.68  0.011601   -1.77    108.91   
    23. D(O   5,C   1,C   0,N   4)    -74.09 -0.000107    0.19    -73.90   
    24. D(O   9,C   1,C   0,N   4)    102.01  0.000922   -1.36    100.65   
    25. D(O   9,C   1,C   0,H   6)   -138.18 -0.000589   -0.57   -138.75   
    26. D(O   5,C   1,C   0,H   6)     45.73 -0.001618    0.97     46.70   
    27. D(O   5,C   1,C   0,H   7)    165.80  0.001604   -0.07    165.73   
    28. D(H   2,N   4,C   0,H   6)   -179.79 -0.000020   -0.08   -179.87   
    29. D(H   2,N   4,C   0,C   1)    -59.43 -0.001758    0.71    -58.72   
    30. D(H   3,N   4,C   0,H   6)    -60.26  0.002041   -1.21    -61.47   
    31. D(H   3,N   4,C   0,C   1)     60.11  0.000304   -0.42     59.69   
    32. D(H   2,N   4,C   0,H   7)     60.80 -0.000337    0.34     61.14   
    33. D(H   8,O   5,C   1,O   9)      0.66  0.000010   -0.25      0.41   
    34. D(H   8,O   5,C   1,C   0)    176.91  0.001286   -1.77    175.13   
    ----------------------------------------------------------------------------

Geometry step timings:
Preparation and reading OPT file:      0.000 s ( 2.679 %)
Internal coordinates            :      0.000 s ( 2.009 %)
B/P matrices and projection     :      0.000 s (27.455 %)
Hessian update/contruction      :      0.000 s (11.607 %)
Making the step                 :      0.000 s (23.884 %)
Converting the step to Cartesian:      0.000 s ( 4.687 %)
Storing new data                :      0.000 s ( 2.902 %)
Checking convergence            :      0.000 s ( 2.232 %)
Final printing                  :      0.000 s (22.098 %)
Total time                      :      0.000 s

Time for energy+gradient        :      3.086 s
Time for complete geometry iter :      3.097 s

         *************************************************************
         *                GEOMETRY OPTIMIZATION CYCLE   2            *
         *************************************************************
---------------------------------
CARTESIAN COORDINATES (ANGSTROEM)
---------------------------------
  C     -5.166679   -1.390350   -0.278776
  C     -5.036273   -2.520398    0.745862
  H     -6.070374   -0.039908    0.978215
  H     -4.433174    0.109315    0.916141
  N     -5.264479   -0.069452    0.354908
  O     -3.792739   -2.532889    1.293483
  H     -4.289463   -1.394645   -0.942448
  H     -6.071604   -1.569988   -0.871600
  H     -3.763168   -3.208635    1.993673
  O     -5.936334   -3.252733    1.114771

----------------------------
CARTESIAN COORDINATES (A.U.)
----------------------------
  NO LB      ZA    FRAG     MASS         X           Y           Z
   0 C     6.0000    0    12.011   -9.763608   -2.627381   -0.526811
   1 C     6.0000    0    12.011   -9.517176   -4.762862    1.409474
   2 H     1.0000    0     1.008  -11.471345   -0.075416    1.848558
   3 H     1.0000    0     1.008   -8.377486    0.206575    1.731255
   4 N     7.0000    0    14.007   -9.948424   -0.131245    0.670680
   5 O     8.0000    0    15.999   -7.167238   -4.786467    2.444329
   6 H     1.0000    0     1.008   -8.105910   -2.635498   -1.780969
   7 H     1.0000    0     1.008  -11.473668   -2.966848   -1.647085
   8 H     1.0000    0     1.008   -7.111357   -6.063442    3.767496
   9 O     8.0000    0    15.999  -11.218046   -6.146775    2.106611

--------------------------------
INTERNAL COORDINATES (ANGSTROEM)
--------------------------------
 C      0   0   0     0.000000000000     0.00000000     0.00000000
 C      1   0   0     1.530979029705     0.00000000     0.00000000
 H      1   2   0     2.054357181491    96.49828340     0.00000000
 H      3   1   2     1.645157955941    66.34516524    93.32879346
 N      4   3   1     1.018826452608    36.18377875    39.49432781
 O      2   1   3     1.358830890140   110.76023574   262.46017998
 H      1   2   3     1.099993875255   109.45026641   144.23714240
 H      1   2   3     1.096630705277   108.13004214   263.26916847
 H      6   2   1     0.973535864746   108.90696542   175.12926132
 O      2   1   3     1.217587611072   125.71586005    77.01579761

---------------------------
INTERNAL COORDINATES (A.U.)
---------------------------
 C      0   0   0     0.000000000000     0.00000000     0.00000000
 C      1   0   0     2.893131082919     0.00000000     0.00000000
 H      1   2   0     3.882172454273    96.49828340     0.00000000
 H      3   1   2     3.108897983771    66.34516524    93.32879346
 N      4   3   1     1.925302973424    36.18377875    39.49432781
 O      2   1   3     2.567818244676   110.76023574   262.46017998
 H      1   2   3     2.078687173223   109.45026641   144.23714240
 H      1   2   3     2.072331703022   108.13004214   263.26916847
 H      6   2   1     1.839716165920   108.90696542   175.12926132
 O      2   1   3     2.300907128981   125.71586005    77.01579761

------------------------------------------------------------------------------
                   ___                                                        
                  /   \      - P O W E R E D   B Y -                         
                 /     \                                                     
                 |  |  |   _    _      __       _____    __    __             
                 |  |  |  | |  | |    /  \     |  _  \  |  |  /  |          
                  \  \/   | |  | |   /    \    | | | |  |  | /  /          
                 / \  \   | |__| |  /  /\  \   | |_| |  |  |/  /          
                |  |  |   |  __  | /  /__\  \  |    /   |      \           
                |  |  |   | |  | | |   __   |  |    \   |  |\   \          
                \     /   | |  | | |  |  |  |  | |\  \  |  | \   \       
                 \___/    |_|  |_| |__|  |__|  |_| \__\ |__|  \__/        
                                                                              
                      - O R C A' S   B I G   F R I E N D -                    
                                      &                                       
                       - I N T E G R A L  F E E D E R -                       
                                                                              
 v1 FN, 2020, v2 2021, v3 2022-2024                                           
------------------------------------------------------------------------------


----------------------
SHARK INTEGRAL PACKAGE
----------------------

Number of atoms                             ...     10
Number of basis functions                   ...     95
Number of shells                            ...     45
Maximum angular momentum                    ...      2
Integral batch strategy                     ... SHARK/LIBINT Hybrid
RI-J (if used) integral strategy            ... SPLIT-RIJ (Revised 2003 algorithm where possible)
Printlevel                                  ...      1
Contraction scheme used                     ... SEGMENTED contraction
Prescreening option                         ... SCHWARTZ
   Thresh                                   ... 2.500e-11
   Tcut                                     ... 2.500e-12
   Tpresel                                  ... 2.500e-12 
Coulomb Range Separation                    ... NOT USED
Exchange Range Separation                   ... NOT USED
Multipole approximations                    ... NOT USED
Finite Nucleus Model                        ... NOT USED
CABS basis                                  ... NOT available
Auxiliary Coulomb fitting basis             ... AVAILABLE
   # of basis functions in Aux-J            ...    300
   # of shells in Aux-J                     ...    100
   Maximum angular momentum in Aux-J        ...      4
Auxiliary J/K fitting basis                 ... NOT available
Auxiliary Correlation fitting basis         ... NOT available
Auxiliary 'external' fitting basis          ... NOT available

Checking pre-screening integrals            ... done (  0.0 sec) Dimension = 45
   => SHARK Basis and OBASIS are compatible. Storing Pre-screening
Shell pair information
Shell pair cut-off parameter TPreSel        ...   2.5e-12
Total number of shell pairs                 ...      1035
Shell pairs after pre-screening             ...      1014
Total number of primitive shell pairs       ...      5170
Primitive shell pairs kept                  ...      3752
          la=0 lb=0:    314 shell pairs
          la=1 lb=0:    367 shell pairs
          la=1 lb=1:    118 shell pairs
          la=2 lb=0:    125 shell pairs
          la=2 lb=1:     75 shell pairs
          la=2 lb=2:     15 shell pairs

Checking whether 4 symmetric matrices of dimension 95 fit in memory
:Max Core in MB      =   4096.00
 MB in use           =      4.78
 MB left             =   4091.22
 MB needed           =      0.14
 Data fit in memory  = YES
Calculating RI/J V-Matrix + Cholesky decomp.... done (  0.0 sec)
Calculating Nuclear repulsion               ... done (  0.0 sec) ENN=    178.559460595318 Eh

Diagonalization of the overlap matrix:
Smallest eigenvalue                        ... 5.669e-03
Time for diagonalization                   ...    0.001 sec
Threshold for overlap eigenvalues          ... 1.000e-07
Number of eigenvalues below threshold      ... 0
Time for construction of square roots      ...    0.000 sec
Total time needed                          ...    0.001 sec

-------------------
DFT GRID GENERATION
-------------------

General Integration Accuracy     IntAcc      ... 4.388
Radial Grid Type                 RadialGrid  ... OptM3 with GC (2021)
Angular Grid (max. ang.)         AngularGrid ... 4 (Lebedev-302)
Angular grid pruning method      GridPruning ... 4 (adaptive)
Weight generation scheme         WeightScheme... mBecke (2022)
Basis function cutoff            BFCut       ... 1.0000e-11
Integration weight cutoff        WCut        ... 1.0000e-14
Partially contracted basis set               ... off
Rotationally invariant grid construction     ... off
Angular grids for H and He will be reduced by one unit

Total number of grid points                  ...    46642
Total number of batches                      ...      734
Average number of points per batch           ...       63
Average number of grid points per atom       ...     4664
Grids setup in   0.1 sec
Initializing property integral containers    ... done (  0.0 sec)

SHARK setup successfully completed in   0.2 seconds

Maximum memory used throughout the entire STARTUP-calculation: 20.0 MB
Occupation numbers will be reassigned to an Aufbau configuration
             **** ENERGY FILE WAS UPDATED (2.en.tmp) ****
Finished Guess after   0.0 sec
Maximum memory used throughout the entire GUESS-calculation: 7.9 MB
----------------------------------------D-I-I-S--------------------------------------------
Iteration    Energy (Eh)           Delta-E    RMSDP     MaxDP     DIISErr   Damp  Time(sec)
-------------------------------------------------------------------------------------------
               ***  Starting incremental Fock matrix formation  ***
    1    -284.2434078014611032     0.00e+00  1.96e-04  2.73e-03  7.25e-03  0.700   0.2
    2    -284.2435885616725955    -1.81e-04  1.84e-04  2.58e-03  5.12e-03  0.700   0.1
                               ***Turning on AO-DIIS***
    3    -284.2437165462626467    -1.28e-04  1.44e-04  2.00e-03  3.43e-03  0.700   0.1
                              *** Initializing SOSCF ***
---------------------------------------S-O-S-C-F--------------------------------------
Iteration    Energy (Eh)           Delta-E    RMSDP     MaxDP     MaxGrad    Time(sec)
--------------------------------------------------------------------------------------
    4    -284.2438045246308320    -8.80e-05  3.59e-04  4.95e-03  2.48e-03     0.1
               *** Restarting incremental Fock matrix formation ***
    5    -284.2440100473704661    -2.06e-04  4.59e-05  7.24e-04  2.09e-04     0.1
    6    -284.2440093369597776     7.10e-07  2.95e-05  5.65e-04  3.69e-04     0.1
    7    -284.2440105867540865    -1.25e-06  2.57e-05  3.59e-04  1.84e-04     0.1
    8    -284.2440101317544645     4.55e-07  1.75e-05  2.55e-04  1.85e-04     0.1
    9    -284.2440107986190014    -6.67e-07  3.50e-06  6.36e-05  1.11e-05     0.1
   10    -284.2440107915346630     7.08e-09  2.23e-06  4.47e-05  2.16e-05     0.1
                 **** Energy Check signals convergence ****

               *****************************************************
               *                     SUCCESS                       *
               *           SCF CONVERGED AFTER  10 CYCLES          *
               *****************************************************

             **** ENERGY FILE WAS UPDATED (2.en.tmp) ****

----------------
TOTAL SCF ENERGY
----------------

Total Energy       :       -284.24401080252130 Eh           -7734.67276 eV

Components:
Nuclear Repulsion  :        178.55946059531828 Eh            4858.84994 eV
Electronic Energy  :       -462.80347139783959 Eh          -12593.52270 eV
One Electron Energy:       -741.67190329362040 Eh          -20181.91852 eV
Two Electron Energy:        278.86843189578082 Eh            7588.39582 eV

Virial components:
Potential Energy   :       -566.86649950146375 Eh          -15425.22165 eV
Kinetic Energy     :        282.62248869894250 Eh            7690.54890 eV
Virial Ratio       :          2.00573741357612

DFT components:
N(Alpha)           :       20.000011154769 electrons
N(Beta)            :       20.000011154769 electrons
N(Total)           :       40.000022309537 electrons
E(X)               :      -34.889402378136 Eh       
E(C)               :       -1.781845786245 Eh       
E(XC)              :      -36.671248164381 Eh       

---------------
SCF CONVERGENCE
---------------

  Last Energy change         ...   -7.0843e-09  Tolerance :   1.0000e-08
  Last MAX-Density change    ...    4.4677e-05  Tolerance :   1.0000e-07
  Last RMS-Density change    ...    2.2336e-06  Tolerance :   5.0000e-09
  Last DIIS Error            ...    2.4782e-03  Tolerance :   5.0000e-07
  Last Orbital Gradient      ...    2.1552e-05  Tolerance :   1.0000e-05
  Last Orbital Rotation      ...    2.2508e-05  Tolerance :   1.0000e-05


Total SCF time: 0 days 0 hours 0 min 1 sec 
Finished LeanSCF after   1.6 sec

Maximum memory used throughout the entire LEANSCF-calculation: 10.3 MB



-------------------------------------------------------------------------------
                          DFT DISPERSION CORRECTION                            
-------------------------------------------------------------------------------
-------------------------   ----------------
Dispersion correction           -0.007395204
-------------------------   ----------------


-------------------------   --------------------
FINAL SINGLE POINT ENERGY      -284.251406006926
-------------------------   --------------------

------------------------------------------------------------------------------
                         ORCA SCF GRADIENT CALCULATION
------------------------------------------------------------------------------

Nuc. rep. gradient        (SHARK) ... done (  0.0 sec)
HCore & Overlap gradient  (SHARK) ... done (  0.0 sec)
Split-RIJ-J gradient      (SHARK) ... done (  0.2 sec)
XC gradient                       ... done (  0.7 sec)
Dispersion correction             ... done (  0.0 sec)

-------------------
DISPERSION GRADIENT
-------------------

   1   C   :   -0.000058732    0.000060740    0.000678376
   2   C   :    0.000063100    0.000193832   -0.000755457
   3   H   :    0.000156132    0.000678339    0.000208168
   4   H   :   -0.000354686    0.000835918    0.000192162
   5   N   :   -0.000038966   -0.000510579   -0.000649234
   6   O   :    0.000001570   -0.000739401    0.000242953
   7   H   :   -0.000923366   -0.000133380   -0.000074961
   8   H   :    0.000873527    0.000114718   -0.000149084
   9   H   :   -0.000340352   -0.000166266   -0.000037527
  10   O   :    0.000621773   -0.000333921    0.000344604

Difference to translation invariance:
           :   -0.0000000000   -0.0000000000   -0.0000000000

Difference to rotation invariance:
           :    0.0000000000    0.0000000000    0.0000000000

Norm of the Dispersion gradient    ...    0.0024888949
RMS gradient                       ...    0.0004544080
MAX gradient                       ...    0.0009233661

------------------
CARTESIAN GRADIENT
------------------

   1   C   :   -0.001793563    0.000138866   -0.000313246
   2   C   :    0.006991471   -0.000167541   -0.000000644
   3   H   :   -0.000261505    0.001060734   -0.001082981
   4   H   :   -0.000003148    0.001156547   -0.001180640
   5   N   :    0.000400179   -0.004036306    0.002712681
   6   O   :   -0.011843793   -0.003250963   -0.000297549
   7   H   :    0.000380263   -0.000215816    0.000686624
   8   H   :    0.000080094    0.000973203    0.000101609
   9   H   :    0.003911808    0.001497754   -0.000161138
  10   O   :    0.002138194    0.002843521   -0.000464716

Difference to translation invariance:
           :   -0.0000000000    0.0000000000    0.0000000000

Difference to rotation invariance:
           :    0.0000398496   -0.0000903853   -0.0000972626

Norm of the Cartesian gradient     ...    0.0162528645
RMS gradient                       ...    0.0029673535
MAX gradient                       ...    0.0118437927

-------
TIMINGS
-------

Total SCF gradient time     ....        0.829 sec

Densities                   ....       0.000 sec  (  0.0%)
One electron gradient       ....       0.022 sec  (  2.7%)
RI-J Coulomb gradient       ....       0.151 sec  ( 18.2%)
XC gradient                 ....       0.656 sec  ( 79.0%)

Maximum memory used throughout the entire SCFGRAD-calculation: 13.4 MB
------------------------------------------------------------------------------
                         ORCA GEOMETRY RELAXATION STEP
------------------------------------------------------------------------------

Reading the OPT-File                    .... done
Getting information on internals        .... done
Copying old internal coords+grads       .... done
Making the new internal coordinates     .... (2022 redundants) done
Validating the new internal coordinates .... (2022 redundants) done
Calculating the B-matrix                .... done
Calculating the G,G- and P matrices     .... done
Transforming gradient to internals      .... done
Projecting the internal gradient        .... done
Number of atoms                         ....  10
Number of internal coordinates          ....  34
Current Energy                          ....  -284.251406007 Eh
Current gradient norm                   ....     0.016252865 Eh/bohr
Maximum allowed component of the step   ....  0.300
Current trust radius                    ....  0.300
Updating the Hessian (BFGS)             .... done
Forming the augmented Hessian           .... done
Diagonalizing the augmented Hessian     .... done
Last element of RFO vector              ....  0.994119390
Lowest eigenvalues of augmented Hessian:
 -0.000681537  0.011096222  0.016669396  0.018399948  0.033319940
Length of the computed step             ....  0.108930177
The final length of the internal step   ....  0.108930177
Converting the step to Cartesian space:
 Initial RMS(Int)=    0.0186813712
Transforming coordinates:
 Iter   0:  RMS(Cart)=    0.0177079952 RMS(Int)=    0.0186322070
done
Storing new coordinates                 .... done
The predicted energy change is          ....    -0.000344812
Previously predicted energy change      ....    -0.001644993
Actually observed energy change         ....    -0.001984490
Ratio of predicted to observed change   ....     1.206382234
New trust radius                        ....     0.450000000

                                .--------------------.
          ----------------------|Geometry convergence|-------------------------
          Item                value                   Tolerance       Converged
          ---------------------------------------------------------------------
          Energy change      -0.0019844903            0.0000050000      NO
          RMS gradient        0.0020507412            0.0001000000      NO
          MAX gradient        0.0074750922            0.0003000000      NO
          RMS step            0.0186813712            0.0020000000      NO
          MAX step            0.0451634537            0.0040000000      NO
          -------------------------------------------------------------------------
          ........................................................
          Max(Bonds)      0.0101      Max(Angles)    1.74
          Max(Dihed)        2.59      Max(Improp)    0.00
          ---------------------------------------------------------------------

The optimization has not yet converged - more geometry cycles are needed


    ---------------------------------------------------------------------------
                         Redundant Internal Coordinates
                            (Angstroem and degrees)

        Definition                    Value    dE/dq     Step     New-Value
    ----------------------------------------------------------------------------
     1. B(C   1,C   0)                1.5310 -0.001199  0.0035    1.5345   
     2. B(N   4,H   2)                1.0192 -0.000423  0.0013    1.0205   
     3. B(N   4,C   0)                1.4683 -0.001453  0.0043    1.4726   
     4. B(N   4,H   3)                1.0188 -0.000453  0.0013    1.0201   
     5. B(O   5,C   1)                1.3588 -0.007420  0.0101    1.3690   
     6. B(H   6,C   0)                1.1000 -0.000112  0.0013    1.1013   
     7. B(H   7,C   0)                1.0966 -0.000278  0.0013    1.0979   
     8. B(H   8,O   5)                0.9735 -0.001040  0.0019    0.9754   
     9. B(O   9,C   1)                1.2176 -0.003433  0.0044    1.2220   
    10. A(N   4,C   0,H   7)          109.01 -0.000616    0.13    109.14   
    11. A(C   1,C   0,H   7)          108.13  0.001377   -0.49    107.64   
    12. A(C   1,C   0,N   4)          112.39 -0.000275    0.23    112.61   
    13. A(H   6,C   0,H   7)          109.35 -0.000111   -0.20    109.14   
    14. A(C   1,C   0,H   6)          109.45 -0.000510    0.26    109.71   
[...]
----------------

Total Energy       :       -284.24566380061788 Eh           -7734.71774 eV

Components:
Nuclear Repulsion  :        177.92974269103539 Eh            4841.71445 eV
Electronic Energy  :       -462.17540649165323 Eh          -12576.43218 eV
One Electron Energy:       -740.40203530735778 Eh          -20147.36365 eV
Two Electron Energy:        278.22662881570454 Eh            7570.93147 eV

Virial components:
Potential Energy   :       -566.82711804496307 Eh          -15424.15003 eV
Kinetic Energy     :        282.58145424434514 Eh            7689.43229 eV
Virial Ratio       :          2.00588930919307

DFT components:
N(Alpha)           :       19.999993289130 electrons
N(Beta)            :       19.999993289130 electrons
N(Total)           :       39.999986578261 electrons
E(X)               :      -34.878196752127 Eh       
E(C)               :       -1.781885143533 Eh       
E(XC)              :      -36.660081895659 Eh       

---------------
SCF CONVERGENCE
---------------

  Last Energy change         ...   -8.0206e-10  Tolerance :   1.0000e-08
  Last MAX-Density change    ...    1.4987e-05  Tolerance :   1.0000e-07
  Last RMS-Density change    ...    9.0896e-07  Tolerance :   5.0000e-09
  Last DIIS Error            ...    1.2192e-03  Tolerance :   5.0000e-07
  Last Orbital Gradient      ...    6.4483e-06  Tolerance :   1.0000e-05
  Last Orbital Rotation      ...    5.6677e-06  Tolerance :   1.0000e-05


----------------
ORBITAL ENERGIES
----------------

  NO   OCC          E(Eh)            E(eV) 
   0   2.0000     -18.820020      -512.1188 
   1   2.0000     -18.758794      -510.4527 
   2   2.0000     -13.997517      -380.8918 
   3   2.0000     -10.037094      -273.1232 
   4   2.0000      -9.951842      -270.8034 
   5   2.0000      -1.013908       -27.5898 
   6   2.0000      -0.928886       -25.2763 
   7   2.0000      -0.813750       -22.1433 
   8   2.0000      -0.644583       -17.5400 
   9   2.0000      -0.554913       -15.1000 
  10   2.0000      -0.454936       -12.3794 
  11   2.0000      -0.438058       -11.9202 
  12   2.0000      -0.422300       -11.4914 
  13   2.0000      -0.388338       -10.5672 
  14   2.0000      -0.368049       -10.0151 
  15   2.0000      -0.345900        -9.4124 
  16   2.0000      -0.329673        -8.9709 
  17   2.0000      -0.273773        -7.4497 
  18   2.0000      -0.247464        -6.7338 
  19   2.0000      -0.194946        -5.3048 
  20   0.0000      -0.025537        -0.6949 
  21   0.0000       0.042381         1.1533 
  22   0.0000       0.077156         2.0995 
  23   0.0000       0.111390         3.0311 
  24   0.0000       0.116952         3.1824 
  25   0.0000       0.163716         4.4549 
  26   0.0000       0.174141         4.7386 
  27   0.0000       0.186013         5.0617 
  28   0.0000       0.264341         7.1931 
  29   0.0000       0.340666         9.2700 
  30   0.0000       0.504731        13.7344 
*Only the first 10 virtual orbitals were printed.

                    ********************************
                    * MULLIKEN POPULATION ANALYSIS *
                    ********************************

-----------------------
MULLIKEN ATOMIC CHARGES
-----------------------
   0 C :   -0.171805
   1 C :    0.492057
   2 H :    0.246220
   3 H :    0.246220
   4 N :   -0.557352
   5 O :   -0.469240
   6 H :    0.153525
   7 H :    0.153596
   8 H :    0.321059
   9 O :   -0.414279
Sum of atomic charges:   -0.0000000

--------------------------------
MULLIKEN REDUCED ORBITAL CHARGES
--------------------------------
  0 C s       :     3.230731  s :     3.230731
      pz      :     1.001156  p :     2.891987
      px      :     1.082914
      py      :     0.807916
      dz2     :     0.008068  d :     0.049088
      dxz     :     0.005718
      dyz     :     0.012885
      dx2y2   :     0.015317
      dxy     :     0.007100

  1 C s       :     3.017048  s :     3.017048
      pz      :     0.748688  p :     2.372867
      px      :     0.783447
      py      :     0.840731
      dz2     :     0.026887  d :     0.118028
      dxz     :     0.014326
      dyz     :     0.037086
      dx2y2   :     0.018424
      dxy     :     0.021304

  2 H s       :     0.730143  s :     0.730143
      pz      :     0.010560  p :     0.023637
      px      :     0.006993
      py      :     0.006084

  3 H s       :     0.730144  s :     0.730144
      pz      :     0.006284  p :     0.023636
      px      :     0.011207
      py      :     0.006145

  4 N s       :     3.603931  s :     3.603931
      pz      :     1.362863  p :     3.924280
      px      :     1.194972
      py      :     1.366446
      dz2     :     0.008108  d :     0.029140
      dxz     :     0.005991
      dyz     :     0.002959
      dx2y2   :     0.009635
      dxy     :     0.002446

  5 O s       :     3.837574  s :     3.837574
      pz      :     1.370332  p :     4.608523
      px      :     1.696765
      py      :     1.541426
      dz2     :     0.004799  d :     0.023142
      dxz     :     0.003370
      dyz     :     0.007176
      dx2y2   :     0.004736
      dxy     :     0.003062

  6 H s       :     0.835456  s :     0.835456
      pz      :     0.005673  p :     0.011020
      px      :     0.003442
      py      :     0.001904

  7 H s       :     0.835390  s :     0.835390
      pz      :     0.002764  p :     0.011013
      px      :     0.006325
      py      :     0.001924

  8 H s       :     0.641573  s :     0.641573
      pz      :     0.010222  p :     0.037368
      px      :     0.009357
      py      :     0.017789

  9 O s       :     3.867284  s :     3.867284
      pz      :     1.674943  p :     4.519611
      px      :     1.467934
      py      :     1.376734
      dz2     :     0.003251  d :     0.027384
      dxz     :     0.000964
      dyz     :     0.007726
      dx2y2   :     0.006633
      dxy     :     0.008811



                     *******************************
                     * LOEWDIN POPULATION ANALYSIS *
                     *******************************

----------------------
LOEWDIN ATOMIC CHARGES
----------------------
   0 C :   -0.102059
   1 C :    0.119888
   2 H :    0.128965
   3 H :    0.128989
   4 N :   -0.260197
   5 O :   -0.166800
   6 H :    0.096515
   7 H :    0.096458
   8 H :    0.184396
   9 O :   -0.226155

-------------------------------
LOEWDIN REDUCED ORBITAL CHARGES
-------------------------------
  0 C s       :     2.905939  s :     2.905939
      pz      :     1.051280  p :     3.087182
      px      :     1.092850
      py      :     0.943052
      dz2     :     0.016520  d :     0.108937
      dxz     :     0.011346
      dyz     :     0.031694
      dx2y2   :     0.035091
      dxy     :     0.014286

  1 C s       :     2.877770  s :     2.877770
      pz      :     0.884005  p :     2.724254
      px      :     0.806376
      py      :     1.033873
      dz2     :     0.063327  d :     0.278088
      dxz     :     0.032785
      dyz     :     0.090778
      dx2y2   :     0.044832
      dxy     :     0.046367

  2 H s       :     0.793814  s :     0.793814
      pz      :     0.039128  p :     0.077221
      px      :     0.020549
      py      :     0.017544

  3 H s       :     0.793798  s :     0.793798
      pz      :     0.017599  p :     0.077213
      px      :     0.041877
      py      :     0.017738

  4 N s       :     3.214916  s :     3.214916
      pz      :     1.382153  p :     3.987838
      px      :     1.216985
      py      :     1.388700
      dz2     :     0.013822  d :     0.057443
      dxz     :     0.010887
      dyz     :     0.006503
      dx2y2   :     0.020295
      dxy     :     0.005936

  5 O s       :     3.499955  s :     3.499955
      pz      :     1.397511  p :     4.618526
      px      :     1.673313
      py      :     1.547701
      dz2     :     0.012406  d :     0.048319
      dxz     :     0.009293
      dyz     :     0.015129
      dx2y2   :     0.007251
      dxy     :     0.004240

  6 H s       :     0.865039  s :     0.865039
      pz      :     0.021863  p :     0.038447
      px      :     0.011438
      py      :     0.005146

  7 H s       :     0.865089  s :     0.865089
      pz      :     0.008389  p :     0.038453
      px      :     0.024836
      py      :     0.005228

  8 H s       :     0.701478  s :     0.701478
      pz      :     0.029716  p :     0.114126
      px      :     0.026735
      py      :     0.057675

  9 O s       :     3.568430  s :     3.568430
      pz      :     1.665246  p :     4.601536
      px      :     1.457373
      py      :     1.478917
      dz2     :     0.007526  d :     0.056188
      dxz     :     0.001559
      dyz     :     0.015544
      dx2y2   :     0.018442
      dxy     :     0.013118



                      *****************************
                      * MAYER POPULATION ANALYSIS *
                      *****************************

  NA   - Mulliken gross atomic population
  ZA   - Total nuclear charge
  QA   - Mulliken gross atomic charge
  VA   - Mayer's total valence
  BVA  - Mayer's bonded valence
  FA   - Mayer's free valence

  ATOM       NA         ZA         QA         VA         BVA        FA
  0 C      6.1718     6.0000    -0.1718     3.8660     3.8660    -0.0000
  1 C      5.5079     6.0000     0.4921     3.9220     3.9220     0.0000
  2 H      0.7538     1.0000     0.2462     0.9184     0.9184     0.0000
  3 H      0.7538     1.0000     0.2462     0.9183     0.9183     0.0000
  4 N      7.5574     7.0000    -0.5574     2.8992     2.8992     0.0000
  5 O      8.4692     8.0000    -0.4692     2.0491     2.0491    -0.0000
  6 H      0.8465     1.0000     0.1535     0.9457     0.9457    -0.0000
  7 H      0.8464     1.0000     0.1536     0.9457     0.9457    -0.0000
  8 H      0.6789     1.0000     0.3211     0.9168     0.9168    -0.0000
  9 O      8.4143     8.0000    -0.4143     2.0911     2.0911     0.0000

  Mayer bond orders larger than 0.100000
B(  0-C ,  1-C ) :   0.9098 B(  0-C ,  4-N ) :   1.0460 B(  0-C ,  6-H ) :   0.9361 
B(  0-C ,  7-H ) :   0.9362 B(  1-C ,  5-O ) :   1.0833 B(  1-C ,  9-O ) :   1.8958 
B(  2-H ,  4-N ) :   0.9090 B(  3-H ,  4-N ) :   0.9090 B(  5-O ,  8-H ) :   0.8521 


-------
TIMINGS
-------

Total SCF time: 0 days 0 hours 0 min 1 sec 

Total time                  ....       1.013 sec
Sum of individual times     ....       0.859 sec  ( 84.8%)

SCF preparation             ....       0.028 sec  (  2.8%)
Fock matrix formation       ....       0.808 sec  ( 79.8%)
  Startup                   ....       0.000 sec  (  0.0% of F)
  Split-RI-J                ....       0.197 sec  ( 24.3% of F)
  XC integration            ....       0.732 sec  ( 90.7% of F)
    Basis function eval.    ....       0.254 sec  ( 34.7% of XC)
    Density eval.           ....       0.128 sec  ( 17.5% of XC)
    XC-Functional eval.     ....       0.199 sec  ( 27.2% of XC)
    XC-Potential eval.      ....       0.129 sec  ( 17.6% of XC)
Diagonalization             ....       0.000 sec  (  0.0%)
Density matrix formation    ....       0.001 sec  (  0.1%)
Total Energy calculation    ....       0.000 sec  (  0.0%)
Population analysis         ....       0.018 sec  (  1.8%)
Orbital Transformation      ....       0.001 sec  (  0.1%)
Orbital Orthonormalization  ....       0.000 sec  (  0.0%)
DIIS solution               ....       0.001 sec  (  0.1%)
SOSCF solution              ....       0.003 sec  (  0.3%)
Finished LeanSCF after   1.0 sec

Maximum memory used throughout the entire LEANSCF-calculation: 11.5 MB



-------------------------------------------------------------------------------
                          DFT DISPERSION CORRECTION                            
-------------------------------------------------------------------------------
Active option DFTDOPT                   ...         2   
Final C6-coefficient scaling factor     ...     1.250
Final VDW-radii scaling factor          ...     1.100
Damping factor alpha                    ...    20.000
-------------------------   ----------------
Dispersion correction           -0.007222306
-------------------------   ----------------


-------------------------   --------------------
FINAL SINGLE POINT ENERGY      -284.252886106397
-------------------------   --------------------

                                *** OPTIMIZATION RUN DONE ***


------------------------------------------------------------------------------
                              ORCA PROPERTY CALCULATIONS
------------------------------------------------------------------------------

GBWName                                 ... 2.gbw
Number of atoms                         ...     10
Number of basis functions               ...     95
Max core memory                         ...   4096 MB

Electric properties:
Dipole moment                           ... YES
Quadrupole moment                       ...  NO
Static polarizability (Dipole/Dipole)   ...  NO
Static polarizability (Dipole/Quad.)    ...  NO
Static polarizability (Quad./Quad.)     ...  NO
Static polarizability (Velocity)        ...  NO
Static hyperpolarizability              ...  NO

Atomic electric properties:
Dipole moment                           ...  NO
Quadrupole moment                       ...  NO
Static polarizability                   ...  NO

Choice of electric origin               ... Center of mass
Position of electric origin             ...    -9.335164    -3.760858     1.167309

General magnetic properties:
Magnetizability                         ...  NO

EPR properties:
g-Tensor (aka g-matrix)                 ...  NO
Zero-Field splitting spin-orbit         ...  NO
Zero-field splitting spin-spin          ...  NO
Hyperfine couplings                     ...  NO (   0 nuclei)
Quadrupole couplings                    ...  NO (   0 nuclei)
Contact density                         ...  NO (   0 nuclei)

NMR properties:
Chemical shifts                         ...  NO (   0 nuclei)
Spin-rotation constants                 ...  NO (   0 nuclei)
Spin-spin couplings                     ...  NO (   0 nuclei,    0 pairs)

Choice of magnetic origin               ... GIAO
Position of magnetic origin             ...     0.000000     0.000000     0.000000

Properties with geometric perturbations:
SCF Hessian                             ...  NO
IR spectrum                             ...  NO
VCD spectrum                            ...  NO
X-ray spectroscopy properties:
SCF XES/XAS/RIXS spectra                ...  NO

SCF SOC stabilization energy            ...  NO
Diagonal Born-Oppenheimer correction    ...  NO

-------------
DIPOLE MOMENT
-------------

Method             : SCF
Type of density    : Electron Density
Multiplicity       :   1
Irrep              :   0
Energy             :  -284.2456638006178764 Eh
Basis              : AO
                                X                 Y                 Z
Electronic contribution:      0.597628800      -3.537644714       1.273217985
Nuclear contribution   :     -0.311745799       3.768887840      -0.621624802
                        -----------------------------------------
Total Dipole Moment    :      0.285883001       0.231243126       0.651593183
                        -----------------------------------------
Magnitude (a.u.)       :      0.748181896
Magnitude (Debye)      :      1.901727247



--------------------
Rotational spectrum 
--------------------
 
Rotational constants in cm-1:             0.327864             0.130700             0.096524 
Rotational constants in MHz :          9829.122610          3918.286634          2893.729115 

Dipole components along the rotational axes: 
x,y,z [a.u.] :     0.090783    -0.742651    -0.002103 
x,y,z [Debye]:     0.230753    -1.887668    -0.005345 

 

Dipole moment calculation done in   0.0 sec 

Maximum memory used throughout the entire PROP-calculation: 7.0 MB

--------------------------------
SUGGESTED CITATIONS FOR THIS RUN
--------------------------------

Below you find a list of papers that are relevant to this ORCA run
We neither can nor want to force you to cite these papers, but we appreciate if you do
You receive ORCA, which is the product of decades of hard work by many enthusiastic individuals, for free
The only thing we kindly ask in return is that you cite our papers,
We deeply appreciate it, if you show your appreciation for ORCA by not just citing the generic ORCA reference.

Please note that relegating all ORCA citations to the supporting information does *not* help us.
SI sections are not indexed - citations you put there will not count into any citation statistics
But we need these citations in order to attract the funding resources that allow us to do what we are doing

Therefore, if you are a happy ORCA user, please consider citing a few of the papers listed below in the main body of your paper

In addition to the list printed below, the program has created the file 2.bibtex that contains the list in bibtex format
You can import this file easily into all common literature databanks and citation aid programs


List of essential papers. We consider these as the minimum necessary citations

  1. Neese, F.
     Software update: the ORCA program system, version 6.0
     WIRES Comput. Molec. Sci. 2025 15(1), e70019
     doi.org/10.1002/wcms.7019

List of papers to cite with high priority. The work reported in these papers was absolutely
necessary for this run to complete.
Our perspective: the developers of density functionals and basis sets usually get cited in chemistry papers
Good! But without the algorithms to do something with them, the functionals or basis sets would not do anything.
Hence, in our opinion, the algorithm design and method developments papers are equally worthy of getting cited

  1. Neese, F.
     An improvement of the resolution of the identity approximation for the formation of the Coulomb matrix
     J. Comp. Chem. 2003 24(14), 1740-1747
     doi.org/10.1002/jcc.10318
  2. Grimme, S.
     Semiempirical GGA-type density functional constructed with a long-range dispersion correction
     J.Comput.Chem. 2006 27(15), 1787-1799
     doi.org/10.1002/jcc.20495
  3. Neese, F.
     The SHARK Integral Generation and Digestion System
     J. Comp. Chem. 2022 44(3), 381
     doi.org/10.1002/jcc.26942

List of suggested additional citations. These are papers that are important in the 'surrounding' of 
of this run, or papers that preceded the highly important papers. If you like your results we are grateful for a citation.

  1. Neese, F.
     The ORCA program system
     WIRES Comput. Molec. Sci. 2012 2(1), 73-78
     doi.org/10.1002/wcms.81
  2. Neese, F.
     Software update: the ORCA program system, version 4.0
     WIRES Comput. Molec. Sci. 2018 8(1), 1-6
     doi.org/10.1002/wcms.1327
  3. Neese, F.; Wennmohs, F.; Becker, U.; Riplinger, C.
     The ORCA quantum chemistry program package
     J. Chem. Phys. 2020 152(22), 224108
     doi.org/10.1063/5.0004608
  4. Neese, F.
     Software update: The ORCA program system—Version 5.0
     WIRES Comput. Molec. Sci. 2022 12(1), e1606
     doi.org/10.1002/wcms.1606

List of optional additional citations

  1. Neese, F.
     Approximate second-order SCF convergence for spin unrestricted wavefunctions
     Chem. Phys. Lett. 2000 325(1-3), 93-98
     doi.org/10.1016/s0009-2614(00)00662-x

Timings for individual modules:

Sum of individual times          ...       81.001 sec (=   1.350 min)
Startup calculation              ...        5.919 sec (=   0.099 min)   7.3 %
SCF iterations                   ...       48.157 sec (=   0.803 min)  59.5 %
Property calculations            ...        0.035 sec (=   0.001 min)   0.0 %
SCF Gradient evaluation          ...       26.854 sec (=   0.448 min)  33.2 %
Geometry relaxation              ...        0.035 sec (=   0.001 min)   0.0 %
                             ****ORCA TERMINATED NORMALLY****
TOTAL RUN TIME: 0 days 0 hours 1 minutes 21 seconds 762 msec
