
                                 *****************
                                 * O   R   C   A *
                                 *****************

                                            #,                                       
                                            ###                                      
                                            ####                                     
                                            #####                                    
                                            ######                                   
                                           ########,                                 
                                     ,,################,,,,,                         
                               ,,#################################,,                 
                          ,,##########################################,,             
                       ,#########################################, ''#####,          
                    ,#############################################,,   '####,        
                  ,##################################################,,,,####,       
                ,###########''''           ''''###############################       
              ,#####''   ,,,,##########,,,,          '''####'''          '####       
            ,##' ,,,,###########################,,,                        '##       
           ' ,,###''''                  '''############,,,                           
         ,,##''                                '''############,,,,        ,,,,,,###''
      ,#''                                            '''#######################'''  
     '                                                          ''''####''''         
             ,#######,   #######,   ,#######,      ##                                
            ,#'     '#,  ##    ##  ,#'     '#,    #''#        ,####,    ,#,          
            ##       ##  ##   ,#'  ##            #'  '#       #'       ,# #          
            ##       ##  #######   ##           ,######,      #####,      #          
            '#,     ,#'  ##    ##  '#,     ,#' ,#      #,     #,   #      #          
             '#######'   ##     ##  '#######'  #'      '#     '####' #    #          



                #########################################################
                #                        -***-                          #
                #          Department of theory and spectroscopy        #
                #                                                       #
                #                      Frank Neese                      #
                #                                                       #
                #     Directorship, Architecture, Infrastructure        #
                #                    SHARK, DRIVERS                     #
                #        Core code/Algorithms in most modules           #
                #                                                       #
                #        Max Planck Institute fuer Kohlenforschung      #
                #                Kaiser Wilhelm Platz 1                 #
                #                 D-45470 Muelheim/Ruhr                 #
                #                      Germany                          #
                #                                                       #
                #                  All rights reserved                  #
                #                        -***-                          #
                #########################################################


                         Program Version 6.1.0  -  RELEASE   -
                                (GIT: $679e74b$)
                          ($2025-06-10 18:02:51 +0200$)


 With contributions from (in alphabetic order):
[Max-Planck-Institut fuer Kohlenforschung]                               
  Daniel Aravena         : Magnetic Suceptibility                        
  Michael Atanasov       : Ab Initio Ligand Field Theory (pilot matlab implementation)
  Alexander A. Auer      : GIAO ZORA, VPT2 properties, NMR spectrum      
  Ute Becker             : All parallelization in ORCA, NUMFREQ, NUMCALC 
  Giovanni Bistoni       : ED, misc. LED, open-shell LED, HFLD           
  Dmytro Bykov           : pre 5.0 version of the SCF Hessian            
  Marcos Casanova-Páez   : Triplet and SCS-CIS(D). UHF-(DLPNO)-IP/EA/STEOM-CCSD. UHF-CVS-IP/STEOM-CCSD   
  Vijay G. Chilkuri      : MRCI spin determinant printing, contributions to CSF-ICE 
  Pauline Colinet        : FMM embedding                                 
  Dipayan Datta          : RHF DLPNO-CCSD density                        
  Achintya Kumar Dutta   : EOM-CC, STEOM-CC                              
  Nicolas Foglia         : Exact transition moments, OPA infrastructure, MCD improvements    
  Dmitry Ganyushin       : Spin-Orbit,Spin-Spin,Magnetic field MRCI      
  Miquel Garcia-Rates    : C-PCM and meta-GGA Hessian, CCSD/C-PCM, Gaussian charge scheme 
  Tiago L. C. Gouveia    : GS-ROHF, GS-ROCIS                             
  Yang Guo               : DLPNO-NEVPT2, F12-NEVPT2, CIM, IAO-localization        
  Andreas Hansen         : Spin unrestricted coupled pair/coupled cluster methods 
  Ingolf Harden          : AUTO-CI MPn and infrastructure                
  Benjamin Helmich-Paris : MC-RPA, TRAH-(SCF,CASSCF), AVAS, COSX integrals, SCF dyn. polar., MC-PDFT, srDFT 
  Lee Huntington         : MR-EOM, pCC                                   
  Robert Izsak           : Overlap fitted RIJCOSX, COSX-SCS-MP3, EOM     
  Riya Kayal             : Wick's Theorem for AUTO-CI, AUTO-CI UHF-CCSDT 
  Emily Kempfer          : AUTO-CI RHF CISDT and CCSDT, approximate NEVPT4
  Christian Kollmar      : KDIIS, OOCD, Brueckner-CCSD(T), CCSD density, CASPT2, CASPT2-K, improved NEVPT2 
  Axel Koslowski         : Symmetry handling                             
  Simone Kossmann        : meta-GGA functionals, TD-DFT gradient, OOMP2, (MP2 Hessian; deprecated post 5.0) 
  Lucas Lang             : DCDCAS, Hyperfine gauge corrections, ICE-SOC+SSC
  Marvin Lechner         : AUTO-CI (C++ implementation), FIC-MRCC        
  Spencer Leger          : CASSCF response                               
  Dagmar Lenk            : GEPOL surface, SMD, ORCA-2-JSON               
  Dimitrios Liakos       : Extrapolation schemes; Compound Job, Property file
  Dimitrios Manganas     : Further ROCIS development; embedding schemes. LFT, Crystal Embedding 
  Dimitrios Pantazis     : SARC Basis sets                               
  Anastasios Papadopoulos: AUTO-CI, single reference methods and gradients 
  Taras Petrenko         : pre 6.0 DFT Hessian and TD-DFT gradient,  ECA, NRVS 
  Petra Pikulova         : Analytic Raman intensities                    
  Peter Pinski           : DLPNO-MP2, DLPNO-MP2 Gradient                 
  Shashank Vittal Rao    : ES-AILFT, MagRelax                            
  Christoph Reimann      : Effective Core Potentials                     
  Marius Retegan         : Local ZFS, SOC                                
  Christoph Riplinger    : Optimizer, TS searches, QM/MM, DLPNO-CCSD(T), (RO)-DLPNO pert. Triples 
  Michael Roemelt        : Original ROCIS implementation, recursive CI coupling coefficients
  Masaaki Saitow         : Open-shell DLPNO-CCSD energy and density      
  Barbara Sandhoefer     : DKH picture change effects                    
  Yorick L. A. Schmerwitz: GMF and freeze-and-release deltaSCF, NEB S-IDPP initial path                    
  Kantharuban Sivalingam : CASSCF convergence/infrastructure, NEVPT2, NEVPT3, NEVPT4(SD), FIC-MRCI and CEPA variants
  Bernardo de Souza      : ESD, SOC TD-DFT                               
  Georgi L. Stoychev     : AutoAux, RI-MP2 NMR, DLPNO-MP2 response, X2C  
  Van Anh Tran           : RI-MP2 g-tensors                              
  Willem Van den Heuvel  : Paramagnetic NMR                              
  Zikuan Wang            : NOTCH, Electric field optimization            
  Frank Wennmohs         : Technical directorship and infrastructure     
  Hang Xu                : AUTO-CI-Response properties                   
                                                                         
[FACCTs GmbH]                                                            
  Markus Bursch, Nicolas Foglia, Miquel Garcia-Rates, Ingolf Harden, Hagen Neugebauer, Anastasios Papadopoulos, 
  Christoph Riplinger, Bernardo de Souza, Georgi L. Stoychev                                                    
                                                                 
  APM, various basis sets, CI-OPT, improved COSX, DLPNO-Multilevel,           
  DOCKER, DRACO, updates on ESD, Fragmentator, GOAT, IRC, LR-CPCM, L-BFGS, MBIS, meta-GGA TD-DFT gradient, ML-optimized integration grids, 
  MM, NACMEs, nearIR, NEB, NEB-TS, NL-DFT gradient (VV10), 2- and 3-layer-ONIOM, interface openCOSMO-RS, QMMM,   
  Crystal-QMMM, RESP, rigid body optimization, SF, symmetry and pop. for TD-DFT, various functionals, SOLVATOR                                   
                                                                         
[Other institutions]                                                     
  V. Asgeirsson          : NEB                                           
  Christoph Bannwarth    : sTDA-DFT, sTD-DFT, PBEh-3c, B97-3c, D3        
  Giovanni Bistoni       : ETS/NOCV, ADLD/ADEX, COVALED                  
  Martin Brehm           : Molecular dynamics                            
  Ronald Cardenas        : ETS/NOCV                                      
  Martina Colucci        : COVALED                                       
  Sebastian Ehlert       : rSCAN, r2SCAN, r2SCAN-3c, D4, dhf basis sets  
  Marvin Friede          : D4 for Fr, Ra, Ac-Lr                          
  Lars Goerigk           : TD-DFT with DH, B97 family of functionals     
  Stefan Grimme          : VdW corrections, initial TS optimization, DFT functionals, gCP, sTDA/sTD-DF 
  Waldemar Hujo          : DFT-NL                                        
  H. Jonsson             : NEB                                           
  Holger Kruse           : gCP                                           
  Marcel Mueller         : wB97X-3c, vDZP basis set                      
  Hagen Neugebauer       : wr2SCAN, Native XTB                           
  Gianluca Regni         : ADLD/ADEX                                     
  Tobias Risthaus        : pre 6.0 range-separated hybrid DFT and stability analysis
  Lukas Wittmann         : regularized MP2, r2SCAN double-hybrids, wr2SCAN        
                                                                         
We gratefully acknowledge several colleagues who have allowed us to      
interface, adapt or use parts of their codes:                            
  Ed Valeev, F. Pavosevic, A. Kumar             : LibInt (2-el integral package), F12 methods 
  Garnet Chan, S. Sharma, J. Yang, R. Olivares  : DMRG                   
  Ulf Ekstrom                                   : XCFun DFT Library      
  Mihaly Kallay                                 : mrcc  (arbitrary order and MRCC methods)
  Frank Weinhold                                : gennbo (NPA and NBO analysis)           
  Simon Mueller                                 : openCOSMO-RS                            
  Christopher J. Cramer and Donald G. Truhlar   : smd solvation model                     
  S Lehtola, MJT Oliveira, MAL Marques          : LibXC Library                           
  Liviu Ungur et al                             : ANISO software                          


 Your calculation uses the libint2 library for the computation of 2-el integrals
 For citations please refer to: http://libint.valeyev.net

 Your ORCA version has been built with support for libXC version: 7.0.0
 For citations please refer to: https://libxc.gitlab.io

 This ORCA versions uses:
   CBLAS   interface :  Fast vector & matrix operations
   LAPACKE interface :  Fast linear algebra routines
   SCALAPACK package :  Parallel linear algebra routines
   Shared memory     :  Shared parallel matrices
   BLAS/LAPACK       :  OpenBLAS 0.3.29  USE64BITINT DYNAMIC_ARCH NO_AFFINITY Haswell SINGLE_THREADED
        Core in use  :  Haswell
   Copyright (c) 2011-2014, The OpenBLAS Project


  ***********************************
  * Starting time: Sat Aug 30 16:10:50 2025
  * Host name:     chemlab03
  * Process ID:    81791
  * Working dir.:  /home/vivek/mm-project/vivek/xtb-goat/B97-D-opt/i/2
  ***********************************



***************************************
The coordinates will be read from file: /home/vivek/mm-project/vivek/xtb-goat/xtb-goat/i/I_CONF/2.xyz
***************************************


Your calculation utilizes empirical dispersion correction


Warning: RI is on but no J-basis has been assigned. Assigning Def2/J (nothing to worry about!)
================================================================================

----- Orbital basis set information -----
Your calculation utilizes the basis: 6-31G**
   H-He, Li-Ne : W. J. Hehre, R. Ditchfield and J.A. Pople, J. Chem. Phys. 56, 2257 (1972).
                 Note: He and Ne are unpublished basis sets taken from the Gaussian program.
                 Note: Li and B from J. D. Dill and J. A. Pople, J. Chem. Phys. 62, 2921 (1975).
   Na - Ar     : M. M. Francl, W. J. Pietro, W. J. Hehre, J. S. Binkley, M. S. Gordon, 
                 D. J. DeFrees and J. A. Pople, J. Chem. Phys. 77, 3654 (1982).
   K - Zn      : V. A. Rassolov, J. A. Pople, M. A. Ratner, and T. L. Windus, J. Chem. Phys. 109, 1223 (1998).

----- AuxJ basis set information -----
Your calculation utilizes the auxiliary basis: def2/J
   H-Rn: F. Weigend, Phys. Chem. Chem. Phys. 8, 1057 (2006).
   Fr-Lr: K. Eichkorn, F. Weigend, O. Treutler, R. Ahlrichs; Theor. Chem. Acc. 97, 119 (1997).

================================================================================
                                        WARNINGS
                       Please study these warnings very carefully!
================================================================================


WARNING: Geometry Optimization
  ===> : Switching off AutoStart
         For restart on a previous wavefunction, please use MOREAD

INFO   : The exchange functional is Grimme's B97(-D)
         As described in S. Grimme, J. Comput. Chem. 27, 1787 (2006).
         Note that this functional defaults to a pure GGA. 

INFO   : The correlation functional is Grimme's B97(-D)
         As described in S. Grimme, J. Comput. Chem. 27, 1787 (2006).

================================================================================
                                       INPUT FILE
================================================================================
NAME = 2.inp
|  1> ! B97-D 6-31G** opt
|  2> 
|  3> * xyzfile 0 1 /home/vivek/mm-project/vivek/xtb-goat/xtb-goat/i/I_CONF/2.xyz
|  4> 
|  5>                          ****END OF INPUT****
================================================================================

                       *****************************
                       * Geometry Optimization Run *
                       *****************************

Geometry optimization settings:
Update method            Update   .... BFGS
Choice of coordinates    CoordSys .... (2022) Redundant Internals
Initial Hessian          InHess   .... Almloef's Model
Max. no of cycles        MaxIter  .... 66

Convergence Tolerances:
Energy Change            TolE     ....  5.0000e-06 Eh
Max. Gradient            TolMAXG  ....  3.0000e-04 Eh/bohr
RMS Gradient             TolRMSG  ....  1.0000e-04 Eh/bohr
Max. Displacement        TolMAXD  ....  4.0000e-03 bohr
RMS Displacement         TolRMSD  ....  2.0000e-03 bohr
Strict Convergence                .... False

------------------------------------------------------------------------------
                        ORCA OPTIMIZATION COORDINATE SETUP
------------------------------------------------------------------------------

The optimization will be done in redundant internal coordinates (2022)
Making redundant internal coordinates   ...  (2022 redundants) done
Evaluating the initial hessian          ...  (Almloef) done
Evaluating the coordinates              ...  done
Calculating the B-matrix                .... done
Calculating the G-matrix                .... done
The number of degrees of freedom        ....   94

    -----------------------------------------------------------------
                    Redundant Internal Coordinates


    -----------------------------------------------------------------
         Definition                    Initial Value    Approx d2E/dq
    -----------------------------------------------------------------
      1. B(C   1,C   0)                  1.5240         0.381911   
      2. B(C   2,C   0)                  1.5323         0.370391   
      3. B(C   5,C   2)                  1.5463         0.351892   
      4. B(C   7,C   2)                  1.5277         0.376811   
      5. B(C   8,C   5)                  1.5230         0.383324   
      6. B(H   9,C   7)                  1.0865         0.364826   
      7. B(N  10,H   3)                  1.0146         0.425475   
      8. B(N  10,C   5)                  1.4495         0.449687   
      9. B(N  10,H   4)                  1.0151         0.424683   
     10. B(O  11,C   8)                  1.3380         0.677470   
     11. B(O  11,H   6)                  0.9707         0.499849   
     12. B(H  12,C   1)                  1.0867         0.364470   
     13. B(O  13,C   8)                  1.2047         1.105356   
     14. B(H  14,C   2)                  1.0948         0.353811   
     15. B(H  15,C   7)                  1.0871         0.363942   
     16. B(H  16,C   7)                  1.0872         0.363762   
     17. B(H  17,C   5)                  1.0990         0.348411   
     18. B(H  18,C   0)                  1.0909         0.358916   
     19. B(H  19,C   0)                  1.0927         0.356518   
     20. B(H  20,C   1)                  1.0885         0.362079   
     21. B(H  21,C   1)                  1.0880         0.362705   
     22. A(H  18,C   0,H  19)          107.2948         0.290233   
     23. A(C   1,C   0,C   2)          114.2724         0.364192   
     24. A(C   1,C   0,H  19)          108.3663         0.324963   
     25. A(C   2,C   0,H  18)          109.2100         0.323689   
     26. A(C   2,C   0,H  19)          107.3956         0.323333   
     27. A(C   1,C   0,H  18)          110.0403         0.325321   
     28. A(C   0,C   1,H  20)          110.4885         0.325791   
     29. A(H  20,C   1,H  21)          108.2434         0.291420   
     30. A(C   0,C   1,H  12)          111.6874         0.326144   
     31. A(H  12,C   1,H  20)          108.4856         0.291642   
     32. A(H  12,C   1,H  21)          107.7665         0.291722   
     33. A(C   0,C   1,H  21)          110.0610         0.325883   
     34. A(C   0,C   2,C   7)          109.5901         0.363356   
     35. A(C   0,C   2,C   5)          113.6701         0.359140   
     36. A(C   5,C   2,H  14)          107.1189         0.320232   
     37. A(C   0,C   2,H  14)          108.6691         0.322929   
     38. A(C   5,C   2,C   7)          108.4837         0.360192   
     39. A(C   7,C   2,H  14)          109.2125         0.323840   
     40. A(C   8,C   5,H  17)          105.1954         0.323934   
     41. A(C   2,C   5,H  17)          106.5938         0.319428   
     42. A(N  10,C   5,H  17)          107.6257         0.330575   
     43. A(C   2,C   5,C   8)          112.7387         0.361246   
     44. A(C   8,C   5,N  10)          112.3544         0.374416   
     45. A(C   2,C   5,N  10)          111.8019         0.368943   
     46. A(C   2,C   7,H   9)          109.5202         0.325476   
     47. A(H  15,C   7,H  16)          108.3999         0.291789   
     48. A(H   9,C   7,H  16)          108.5946         0.291900   
     49. A(C   2,C   7,H  16)          110.7707         0.325319   
     50. A(H   9,C   7,H  15)          108.9814         0.291923   
     51. A(C   2,C   7,H  15)          110.5262         0.325346   
     52. A(C   5,C   8,O  13)          124.2380         0.438852   
     53. A(C   5,C   8,O  11)          113.2087         0.402157   
     54. A(O  11,C   8,O  13)          122.4953         0.483707   
     55. A(H   3,N  10,H   4)          106.5047         0.301539   
     56. A(H   4,N  10,C   5)          109.6864         0.338701   
     57. A(H   3,N  10,C   5)          109.8088         0.338806   
     58. A(H   6,O  11,C   8)          110.1842         0.373265   
     59. D(H  20,C   1,C   0,H  19)    -65.5404         0.011619   
     60. D(H  12,C   1,C   0,H  18)     56.5698         0.011619   
     61. D(H  12,C   1,C   0,H  19)    173.6049         0.011619   
     62. D(H  12,C   1,C   0,C   2)    -66.7073         0.011619   
     63. D(H  20,C   1,C   0,H  18)    177.4245         0.011619   
     64. D(H  20,C   1,C   0,C   2)     54.1474         0.011619   
     65. D(C   5,C   2,C   0,C   1)     64.0257         0.010966   
     66. D(C   7,C   2,C   0,H  19)    -54.1807         0.010966   
     67. D(C   7,C   2,C   0,H  18)     61.8639         0.010966   
     68. D(C   7,C   2,C   0,C   1)   -174.4118         0.010966   
     69. D(C   5,C   2,C   0,H  18)    -59.6986         0.010966   
     70. D(C   5,C   2,C   0,H  19)   -175.7432         0.010966   
     71. D(C   8,C   5,C   2,H  14)     45.6954         0.010000   
     72. D(C   8,C   5,C   2,C   7)    163.4713         0.010000   
     73. D(C   8,C   5,C   2,C   0)    -74.3521         0.010000   
     74. D(N  10,C   5,C   2,H  14)    173.4151         0.010000   
     75. D(N  10,C   5,C   2,C   7)    -68.8089         0.010000   
     76. D(N  10,C   5,C   2,C   0)     53.3676         0.010000   
     77. D(H  15,C   7,C   2,H  14)    -65.7116         0.011327   
     78. D(H  15,C   7,C   2,C   5)    177.8547         0.011327   
     79. D(H  15,C   7,C   2,C   0)     53.2242         0.011327   
     80. D(H   9,C   7,C   2,H  14)    174.2074         0.011327   
     81. D(H   9,C   7,C   2,C   5)     57.7737         0.011327   
     82. D(H   9,C   7,C   2,C   0)    -66.8568         0.011327   
     83. D(O  13,C   8,C   5,N  10)      3.4544         0.010953   
     84. D(O  13,C   8,C   5,C   2)    130.8828         0.010953   
     85. D(O  11,C   8,C   5,H  17)     63.9341         0.010953   
     86. D(O  11,C   8,C   5,N  10)   -179.2606         0.010953   
     87. D(O  11,C   8,C   5,C   2)    -51.8322         0.010953   
     88. D(H   3,N  10,C   5,C   8)    -61.6334         0.017250   
     89. D(H   3,N  10,C   5,C   2)    170.4414         0.017250   
     90. D(H   4,N  10,C   5,C   8)     55.0833         0.017250   
     91. D(H   4,N  10,C   5,C   2)    -72.8420         0.017250   
     92. D(H   3,N  10,C   5,H  17)     53.7089         0.017250   
     93. D(H   6,O  11,C   8,O  13)     -1.1010         0.034162   
     94. D(H   6,O  11,C   8,C   5)   -178.4400         0.034162   
    -----------------------------------------------------------------

Number of atoms                         .... 22
Number of degrees of freedom            .... 94


         *************************************************************
         *                GEOMETRY OPTIMIZATION CYCLE   1            *
         *************************************************************
---------------------------------
CARTESIAN COORDINATES (ANGSTROEM)
---------------------------------
  C     -9.380475    5.006947   -0.445974
  C     -9.920263    3.605369   -0.704358
  C     -8.142262    5.048758    0.455756
  H     -5.703545    4.490454   -1.785181
  H     -7.290289    4.509342   -2.141372
  C     -6.906235    4.347829   -0.154086
  H     -7.346516    1.377419    1.066113
  C     -7.776263    6.501161    0.756239
  C     -7.015232    2.829085   -0.122028
  H     -7.446357    6.988770   -0.156873
  N     -6.601155    4.850813   -1.478869
  O     -7.312110    2.347241    1.090344
  H     -9.226405    3.009719   -1.291482
  O     -6.808101    2.114520   -1.069555
  H     -8.374351    4.534236    1.393828
  H     -8.635386    7.036607    1.152490
  H     -6.972703    6.553071    1.486786
  H     -6.055032    4.589360    0.497741
  H     -9.152386    5.499983   -1.391989
  H    -10.162070    5.591827    0.045008
  H    -10.107674    3.089936    0.235884
  H    -10.857273    3.661842   -1.254493

----------------------------
CARTESIAN COORDINATES (A.U.)
----------------------------
  NO LB      ZA    FRAG     MASS         X           Y           Z
   0 C     6.0000    0    12.011  -17.726528    9.461758   -0.842768
   1 C     6.0000    0    12.011  -18.746580    6.813160   -1.331044
   2 C     6.0000    0    12.011  -15.386646    9.540769    0.861253
   3 H     1.0000    0     1.008  -10.778137    8.485728   -3.373502
   4 H     1.0000    0     1.008  -13.776651    8.521421   -4.046606
   5 C     6.0000    0    12.011  -13.050893    8.216206   -0.291181
   6 H     1.0000    0     1.008  -13.882903    2.602944    2.014661
   7 C     6.0000    0    12.011  -14.695007   12.285414    1.429084
   8 C     6.0000    0    12.011  -13.256866    5.346196   -0.230600
   9 H     1.0000    0     1.008  -14.071575   13.206862   -0.296448
  10 N     7.0000    0    14.007  -12.474375    9.166709   -2.794657
  11 O     8.0000    0    15.999  -13.817886    4.435643    2.060451
  12 H     1.0000    0     1.008  -17.435379    5.687544   -2.440548
  13 O     8.0000    0    15.999  -12.865447    3.995863   -2.021166
  14 H     1.0000    0     1.008  -15.825231    8.568464    2.633953
  15 H     1.0000    0     1.008  -16.318514   13.297259    2.177891
  16 H     1.0000    0     1.008  -13.176498   12.383509    2.809618
  17 H     1.0000    0     1.008  -11.442352    8.672633    0.940594
  18 H     1.0000    0     1.008  -17.295504   10.393461   -2.630479
  19 H     1.0000    0     1.008  -19.203529   10.567022    0.085053
  20 H     1.0000    0     1.008  -19.100737    5.839132    0.445756
  21 H     1.0000    0     1.008  -20.517273    6.919878   -2.370649

--------------------------------
INTERNAL COORDINATES (ANGSTROEM)
--------------------------------
 C      0   0   0     0.000000000000     0.00000000     0.00000000
 C      1   0   0     1.523992550669     0.00000000     0.00000000
 C      1   2   0     1.532329455410   114.27239162     0.00000000
 H      3   1   2     3.358696542833   100.92703652    84.43875288
 H      4   3   1     1.626341879732    55.65213809   357.68858232
 C      3   1   2     1.546276541361   113.67010132    64.02568493
 H      6   3   1     3.241306776739    99.11201986   268.53090492
 C      3   1   2     1.527652028102   109.59010349   185.58819003
 C      6   3   1     1.522987195451   112.73866735   285.64788998
 H      8   3   1     1.086450370422   109.52018415   293.14319018
 N      4   3   1     1.014588761763    25.46492029    32.41240611
 O      7   6   3     0.970735302076    24.35891036   315.43022933
 H      2   1   3     1.086716340352   111.68742672   293.29273034
 O      9   6   3     1.204704665699   124.23803438   130.88280490
 H      3   1   2     1.094795786847   108.66908559   304.85901398
 H      8   3   1     1.087110981840   110.52623316    53.22420303
 H      8   3   1     1.087245506704   110.77067833   173.38829533
 H      6   3   1     1.098982820566   106.59380033   170.72230588
 H      1   2   3     1.090896233792   110.04026408   123.27703331
 H      1   2   3     1.092721419756   108.36633997   240.31219578
 H      2   1   3     1.088508315091   110.48846195    54.14743797
 H      2   1   3     1.088037699928   110.06097060   173.63466876

---------------------------
INTERNAL COORDINATES (A.U.)
---------------------------
 C      0   0   0     0.000000000000     0.00000000     0.00000000
 C      1   0   0     2.879928550900     0.00000000     0.00000000
 C      1   2   0     2.895683017666   114.27239162     0.00000000
 H      3   1   2     6.347016632903   100.92703652    84.43875288
 H      4   3   1     3.073340752821    55.65213809   357.68858232
 C      3   1   2     2.922039190480   113.67010132    64.02568493
 H      6   3   1     6.125182124060    99.11201986   268.53090492
 C      3   1   2     2.886843961041   109.59010349   185.58819003
 C      6   3   1     2.878028704872   112.73866735   285.64788998
 H      8   3   1     2.053093658196   109.52018415   293.14319018
 N      4   3   1     1.917294898286    25.46492029    32.41240611
 O      7   6   3     1.834423869453    24.35891036   315.43022933
 H      2   1   3     2.053596268523   111.68742672   293.29273034
 O      9   6   3     2.276561890429   124.23803438   130.88280490
 H      3   1   2     2.068864209712   108.66908559   304.85901398
 H      8   3   1     2.054342032855   110.52623316    53.22420303
 H      8   3   1     2.054596248007   110.77067833   173.38829533
 H      6   3   1     2.076776556755   106.59380033   170.72230588
 H      1   2   3     2.061495122393   110.04026408   123.27703331
 H      1   2   3     2.064944224008   108.36633997   240.31219578
 H      2   1   3     2.056982610018   110.48846195    54.14743797
 H      2   1   3     2.056093276245   110.06097060   173.63466876

---------------------
BASIS SET INFORMATION
---------------------
There are 4 groups of distinct atoms

 Group   1 Type C   : 10s4p1d contracted to 3s2p1d pattern {631/31/1}
 Group   2 Type H   : 4s1p contracted to 2s1p pattern {31/1}
 Group   3 Type N   : 10s4p1d contracted to 3s2p1d pattern {631/31/1}
 Group   4 Type O   : 10s4p1d contracted to 3s2p1d pattern {631/31/1}

Atom   0C    basis set group =>   1
Atom   1C    basis set group =>   1
Atom   2C    basis set group =>   1
Atom   3H    basis set group =>   2
Atom   4H    basis set group =>   2
Atom   5C    basis set group =>   1
Atom   6H    basis set group =>   2
Atom   7C    basis set group =>   1
Atom   8C    basis set group =>   1
Atom   9H    basis set group =>   2
Atom  10N    basis set group =>   3
Atom  11O    basis set group =>   4
Atom  12H    basis set group =>   2
Atom  13O    basis set group =>   4
Atom  14H    basis set group =>   2
Atom  15H    basis set group =>   2
Atom  16H    basis set group =>   2
Atom  17H    basis set group =>   2
Atom  18H    basis set group =>   2
Atom  19H    basis set group =>   2
Atom  20H    basis set group =>   2
Atom  21H    basis set group =>   2
---------------------------------
AUXILIARY/J BASIS SET INFORMATION
---------------------------------
There are 4 groups of distinct atoms

 Group   1 Type C   : 12s5p4d2f1g contracted to 6s4p3d1f1g pattern {711111/2111/211/2/1}
 Group   2 Type H   : 5s2p1d contracted to 3s1p1d pattern {311/2/1}
 Group   3 Type N   : 12s5p4d2f1g contracted to 6s4p3d1f1g pattern {711111/2111/211/2/1}
 Group   4 Type O   : 12s5p4d2f1g contracted to 6s4p3d1f1g pattern {711111/2111/211/2/1}

Atom   0C    basis set group =>   1
Atom   1C    basis set group =>   1
Atom   2C    basis set group =>   1
Atom   3H    basis set group =>   2
Atom   4H    basis set group =>   2
Atom   5C    basis set group =>   1
Atom   6H    basis set group =>   2
Atom   7C    basis set group =>   1
Atom   8C    basis set group =>   1
Atom   9H    basis set group =>   2
Atom  10N    basis set group =>   3
Atom  11O    basis set group =>   4
Atom  12H    basis set group =>   2
Atom  13O    basis set group =>   4
Atom  14H    basis set group =>   2
Atom  15H    basis set group =>   2
Atom  16H    basis set group =>   2
Atom  17H    basis set group =>   2
Atom  18H    basis set group =>   2
Atom  19H    basis set group =>   2
Atom  20H    basis set group =>   2
Atom  21H    basis set group =>   2
------------------------------------------------------------------------------
                             ORCA STARTUP CALCULATIONS
                           -- RI-GTO INTEGRALS CHOSEN --
------------------------------------------------------------------------------
------------------------------------------------------------------------------
                   ___                                                        
                  /   \      - P O W E R E D   B Y -                         
                 /     \                                                     
                 |  |  |   _    _      __       _____    __    __             
                 |  |  |  | |  | |    /  \     |  _  \  |  |  /  |          
                  \  \/   | |  | |   /    \    | | | |  |  | /  /          
                 / \  \   | |__| |  /  /\  \   | |_| |  |  |/  /          
                |  |  |   |  __  | /  /__\  \  |    /   |      \           
                |  |  |   | |  | | |   __   |  |    \   |  |\   \          
                \     /   | |  | | |  |  |  |  | |\  \  |  | \   \       
                 \___/    |_|  |_| |__|  |__|  |_| \__\ |__|  \__/        
                                                                              
                      - O R C A' S   B I G   F R I E N D -                    
                                      &                                       
                       - I N T E G R A L  F E E D E R -                       
                                                                              
 v1 FN, 2020, v2 2021, v3 2022-2024                                           
------------------------------------------------------------------------------


----------------------
SHARK INTEGRAL PACKAGE
----------------------

Number of atoms                             ...     22
Number of basis functions                   ...    191
Number of shells                            ...     93
Maximum angular momentum                    ...      2
Integral batch strategy                     ... SHARK/LIBINT Hybrid
RI-J (if used) integral strategy            ... SPLIT-RIJ (Revised 2003 algorithm where possible)
Printlevel                                  ...      1
Contraction scheme used                     ... SEGMENTED contraction
Prescreening option                         ... SCHWARTZ
   Thresh                                   ... 2.500e-11
   Tcut                                     ... 2.500e-12
   Tpresel                                  ... 2.500e-12 
Coulomb Range Separation                    ... NOT USED
Exchange Range Separation                   ... NOT USED
Multipole approximations                    ... NOT USED
Finite Nucleus Model                        ... NOT USED
CABS basis                                  ... NOT available
Auxiliary Coulomb fitting basis             ... AVAILABLE
   # of basis functions in Aux-J            ...    584
   # of shells in Aux-J                     ...    200
   Maximum angular momentum in Aux-J        ...      4
Auxiliary J/K fitting basis                 ... NOT available
Auxiliary Correlation fitting basis         ... NOT available
Auxiliary 'external' fitting basis          ... NOT available

Checking pre-screening integrals            ... done (  0.0 sec) Dimension = 93
   => SHARK Basis and OBASIS are compatible. Storing Pre-screening
Shell pair information
Shell pair cut-off parameter TPreSel        ...   2.5e-12
Total number of shell pairs                 ...      4371
Shell pairs after pre-screening             ...      4034
Total number of primitive shell pairs       ...     20328
Primitive shell pairs kept                  ...     12566
          la=0 lb=0:   1323 shell pairs
          la=1 lb=0:   1502 shell pairs
          la=1 lb=1:    451 shell pairs
          la=2 lb=0:    452 shell pairs
          la=2 lb=1:    262 shell pairs
          la=2 lb=2:     44 shell pairs

Checking whether 4 symmetric matrices of dimension 191 fit in memory
:Max Core in MB      =   4096.00
 MB in use           =      8.79
 MB left             =   4087.21
 MB needed           =      0.56
 Data fit in memory  = YES
Calculating RI/J V-Matrix + Cholesky decomp.... done (  0.0 sec)
Calculating Nuclear repulsion               ... done (  0.0 sec) ENN=    502.161229252949 Eh

Diagonalization of the overlap matrix:
Smallest eigenvalue                        ... 2.826e-03
Time for diagonalization                   ...    0.002 sec
Threshold for overlap eigenvalues          ... 1.000e-07
Number of eigenvalues below threshold      ... 0
Time for construction of square roots      ...    0.001 sec
Total time needed                          ...    0.003 sec

-------------------
DFT GRID GENERATION
-------------------

General Integration Accuracy     IntAcc      ... 4.388
Radial Grid Type                 RadialGrid  ... OptM3 with GC (2021)
Angular Grid (max. ang.)         AngularGrid ... 4 (Lebedev-302)
Angular grid pruning method      GridPruning ... 4 (adaptive)
Weight generation scheme         WeightScheme... mBecke (2022)
Basis function cutoff            BFCut       ... 1.0000e-11
Integration weight cutoff        WCut        ... 1.0000e-14
Partially contracted basis set               ... off
Rotationally invariant grid construction     ... off
Angular grids for H and He will be reduced by one unit

Total number of grid points                  ...    95436
Total number of batches                      ...     1504
Average number of points per batch           ...       63
Average number of grid points per atom       ...     4338
Grids setup in   0.4 sec
Initializing property integral containers    ... done (  0.0 sec)

SHARK setup successfully completed in   0.5 seconds

Maximum memory used throughout the entire STARTUP-calculation: 40.7 MB
-------------------------------------------------------------------------------
                                 ORCA GUESS
                   Start orbitals & Density for SCF / CASSCF
-------------------------------------------------------------------------------

------------
SCF SETTINGS
------------
Hamiltonian:
 Density Functional     Method          .... DFT(GTOs)
 Exchange Functional    Exchange        .... B97(D)
 Correlation Functional Correlation     .... B97(D)
 Gradients option       PostSCFGGA      .... off
 RI-approximation to the Coulomb term is turned on
   Number of AuxJ basis functions       .... 584


General Settings:
 Integral files         IntName         .... 2
 Hartree-Fock type      HFTyp           .... RHF
 Total Charge           Charge          ....    0
 Multiplicity           Mult            ....    1
 Number of Electrons    NEL             ....   72
 Basis Dimension        Dim             ....  191
 Nuclear Repulsion      ENuc            ....    502.1612292529 Eh

Convergence Acceleration:
 AO-DIIS                CNVDIIS         .... on
   Start iteration      DIISMaxIt       ....    12
   Startup error        DIISStart       ....  0.200000
   # of expansion vecs  DIISMaxEq       ....     5
   Bias factor          DIISBfac        ....   1.050
   Max. coefficient     DIISMaxC        ....  10.000
 MO-DIIS                CNVKDIIS        .... off
 Trust-Rad. Augm. Hess. CNVTRAH         .... auto
   Auto Start mean grad. ratio tolernc. ....  1.125000
   Auto Start start iteration           ....    50
   Auto Start num. interpolation iter.  ....    10
   Max. Number of Micro iterations      ....    24
   Max. Number of Macro iterations      .... Maxiter - #DIIS iter
   Number of Davidson start vectors     ....     2
   Converg. threshold    (grad. norm)   ....   1.000e-05
   Grad. Scal. Fac. for Micro threshold ....   0.100
   Minimum threshold for Micro iter.    ....   1.000e-02
   NR start threshold (gradient norm)   ....   1.000e-04
   Initial trust radius                 ....   0.400
   Minimum AH scaling param. (alpha)    ....   1.000
   Maximum AH scaling param. (alpha)    .... 1000.000
   Quad. conv. algorithm                .... NR
   White noise on init. David. guess    .... on
   Maximum white noise                  ....   0.010
   Pseudo random numbers                .... off
   Inactive MOs                         .... canonical
   Orbital update algorithm             .... Taylor
   Preconditioner                       .... Diag
   Full preconditioner red. dimension   ....   250
 SOSCF                 CNVSOSCF           .... on
   Start iteration     SOSCFMaxIt         ....   150
   Startup grad/error  SOSCFStart         ....  0.003300
   Hessian update      SOSCFHessUp        .... L-BFGS
   Autom. constraints  SOSCFAutoConstrain .... off
 Level Shifting         CNVShift        .... on
   Level shift para.    LevelShift      ....    0.2500
   Turn off err/grad.   ShiftErr        ....    0.0010
 Zerner damping         CNVZerner       .... off
 Static damping         CNVDamp         .... on
   Fraction old density DampFac         ....    0.7000
   Max. Damping (<1)    DampMax         ....    0.9800
   Min. Damping (>=0)   DampMin         ....    0.0000
   Turn off err/grad.   DampErr         ....    0.1000

SCF Procedure:
 Maximum # iterations   MaxIter         ....   125
 SCF integral mode      SCFMode         .... Direct
   Integral package                     .... SHARK and LIBINT hybrid scheme
 Reset frequency        DirectResetFreq ....    20
 Integral Threshold     Thresh          ....  2.500e-11 Eh
 Primitive CutOff       TCut            ....  2.500e-12 Eh

Convergence Tolerance:
 Convergence Check Mode ConvCheckMode   .... Total+1el-Energy
 Convergence forced     ConvForced      .... 0
 Energy Change          TolE            ....  1.000e-08 Eh
 1-El. energy change                    ....  1.000e-05 Eh
 Orbital Gradient       TolG            ....  1.000e-05
 Orbital Rotation angle TolX            ....  1.000e-05
 DIIS Error             TolErr          ....  5.000e-07

------------------------------
INITIAL GUESS: MODEL POTENTIAL
------------------------------
Loading Hartree-Fock densities                     ... done
Calculating cut-offs                               ... done
Initializing the effective Hamiltonian             ... done
Setting up the integral package (SHARK)            ... done
Starting the Coulomb interaction                   ... done (   0.1 sec)
Making the grid                                    ... done (   0.1 sec)
Mapping shells                                     ... done
Starting the XC term evaluation                    ... done (   0.1 sec)
  promolecular density results
     # of electrons  =     72.002572004
     EX              =    -56.846323272
     EC              =     -3.121204902
     EX+EC           =    -59.967528174
Transforming the Hamiltonian                       ... done (   0.0 sec)
Diagonalizing the Hamiltonian                      ... done (   0.0 sec)
Back transforming the eigenvectors                 ... done (   0.0 sec)
Now organizing SCF variables                       ... done
                      ------------------
                      INITIAL GUESS DONE (   0.3 sec)
                      ------------------
             **** ENERGY FILE WAS UPDATED (2.en.tmp) ****
Finished Guess after   0.3 sec
Maximum memory used throughout the entire GUESS-calculation: 14.0 MB

-------------------------------------------------------------------------------------------
                                      ORCA LEAN-SCF
                              memory conserving SCF solver
-------------------------------------------------------------------------------------------

----------------------------------------D-I-I-S--------------------------------------------
Iteration    Energy (Eh)           Delta-E    RMSDP     MaxDP     DIISErr   Damp  Time(sec)
-------------------------------------------------------------------------------------------
               ***  Starting incremental Fock matrix formation  ***
    1    -441.0170332386389873     0.00e+00  3.57e-03  1.09e-01  2.60e-01  0.700   0.6
    2    -441.1948344035994296    -1.78e-01  2.34e-03  5.83e-02  9.59e-02  0.700   0.6
                               ***Turning on AO-DIIS***
    3    -441.2504766951024067    -5.56e-02  8.92e-04  1.56e-02  3.32e-02  0.700   0.6
    4    -441.2861322136427589    -3.57e-02  1.17e-03  1.78e-02  1.36e-02  0.000   0.5
    5    -441.3686203768040741    -8.25e-02  3.99e-04  8.62e-03  1.16e-02  0.000   0.5
    6    -441.3694732233888089    -8.53e-04  1.49e-04  2.88e-03  3.46e-03  0.000   0.5
                              *** Initializing SOSCF ***
---------------------------------------S-O-S-C-F--------------------------------------
Iteration    Energy (Eh)           Delta-E    RMSDP     MaxDP     MaxGrad    Time(sec)
--------------------------------------------------------------------------------------
    7    -441.3695411207800134    -6.79e-05  5.31e-05  1.36e-03  1.67e-03     0.5
               *** Restarting incremental Fock matrix formation ***
    8    -441.3695508817178279    -9.76e-06  3.40e-05  6.42e-04  1.03e-04     0.6
    9    -441.3695501566311350     7.25e-07  1.75e-05  6.88e-04  3.75e-04     0.5
   10    -441.3695517062815270    -1.55e-06  1.65e-05  4.56e-04  1.74e-04     0.5
   11    -441.3695515500436386     1.56e-07  8.44e-06  2.03e-04  1.14e-04     0.5
   12    -441.3695519512601777    -4.01e-07  3.92e-06  7.81e-05  1.21e-05     0.5
   13    -441.3695519434311336     7.83e-09  1.80e-06  4.10e-05  2.16e-05     0.5
                 **** Energy Check signals convergence ****

               *****************************************************
               *                     SUCCESS                       *
               *           SCF CONVERGED AFTER  13 CYCLES          *
               *****************************************************

             **** ENERGY FILE WAS UPDATED (2.en.tmp) ****

----------------
TOTAL SCF ENERGY
----------------

Total Energy       :       -441.36955196251961 Eh          -12010.27610 eV

Components:
Nuclear Repulsion  :        502.16122925294860 Eh           13664.50174 eV
Electronic Energy  :       -943.53078121546821 Eh          -25674.77784 eV
One Electron Energy:      -1596.36282050493014 Eh          -43439.24075 eV
Two Electron Energy:        652.83203928946193 Eh           17764.46292 eV

Virial components:
Potential Energy   :       -880.47515257782561 Eh          -23958.94695 eV
Kinetic Energy     :        439.10560061530595 Eh           11948.67085 eV
Virial Ratio       :          2.00515582434850

DFT components:
N(Alpha)           :       36.000059938469 electrons
N(Beta)            :       36.000059938469 electrons
N(Total)           :       72.000119876937 electrons
E(X)               :      -58.274467600836 Eh       
E(C)               :       -3.118830673106 Eh       
E(XC)              :      -61.393298273942 Eh       

---------------
SCF CONVERGENCE
---------------

  Last Energy change         ...   -7.8290e-09  Tolerance :   1.0000e-08
  Last MAX-Density change    ...    4.1003e-05  Tolerance :   1.0000e-07
  Last RMS-Density change    ...    1.7952e-06  Tolerance :   5.0000e-09
  Last DIIS Error            ...    1.6734e-03  Tolerance :   5.0000e-07
  Last Orbital Gradient      ...    2.1552e-05  Tolerance :   1.0000e-05
  Last Orbital Rotation      ...    2.3418e-05  Tolerance :   1.0000e-05


----------------
ORBITAL ENERGIES
----------------

  NO   OCC          E(Eh)            E(eV) 
   0   2.0000     -18.813723      -511.9474 
   1   2.0000     -18.751884      -510.2647 
   2   2.0000     -13.985952      -380.5771 
   3   2.0000     -10.026566      -272.8367 
   4   2.0000      -9.944712      -270.6094 
   5   2.0000      -9.909425      -269.6492 
   6   2.0000      -9.899352      -269.3751 
   7   2.0000      -9.891011      -269.1481 
   8   2.0000      -9.884821      -268.9796 
   9   2.0000      -1.020231       -27.7619 
  10   2.0000      -0.930330       -25.3156 
  11   2.0000      -0.815755       -22.1978 
  12   2.0000      -0.725968       -19.7546 
  13   2.0000      -0.664664       -18.0864 
  14   2.0000      -0.636907       -17.3311 
  15   2.0000      -0.565048       -15.3757 
  16   2.0000      -0.549394       -14.9498 
  17   2.0000      -0.500576       -13.6214 
  18   2.0000      -0.457810       -12.4577 
  19   2.0000      -0.447190       -12.1687 
  20   2.0000      -0.418529       -11.3888 
  21   2.0000      -0.395595       -10.7647 
  22   2.0000      -0.389599       -10.6015 
  23   2.0000      -0.381204       -10.3731 
  24   2.0000      -0.364884        -9.9290 
  25   2.0000      -0.355298        -9.6682 
  26   2.0000      -0.350432        -9.5357 
  27   2.0000      -0.334059        -9.0902 
  28   2.0000      -0.317588        -8.6420 
  29   2.0000      -0.303540        -8.2598 
  30   2.0000      -0.285342        -7.7646 
  31   2.0000      -0.284358        -7.7378 
  32   2.0000      -0.271167        -7.3788 
  33   2.0000      -0.267434        -7.2772 
  34   2.0000      -0.221317        -6.0223 
  35   2.0000      -0.196295        -5.3415 
  36   0.0000      -0.016278        -0.4429 
  37   0.0000       0.049447         1.3455 
  38   0.0000       0.059187         1.6106 
  39   0.0000       0.090210         2.4548 
  40   0.0000       0.107379         2.9219 
  41   0.0000       0.119754         3.2587 
  42   0.0000       0.131126         3.5681 
  43   0.0000       0.136188         3.7059 
  44   0.0000       0.151391         4.1196 
  45   0.0000       0.161342         4.3903 
  46   0.0000       0.163255         4.4424 
*Only the first 10 virtual orbitals were printed.

                    ********************************
                    * MULLIKEN POPULATION ANALYSIS *
                    ********************************

-----------------------
MULLIKEN ATOMIC CHARGES
-----------------------
   0 C :   -0.193621
   1 C :   -0.355159
   2 C :   -0.063306
   3 H :    0.247623
   4 H :    0.247872
   5 C :   -0.051403
   6 H :    0.317961
   7 C :   -0.325100
   8 C :    0.496485
   9 H :    0.132712
  10 N :   -0.553854
  11 O :   -0.454104
  12 H :    0.123601
  13 O :   -0.426591
  14 H :    0.110201
  15 H :    0.098230
  16 H :    0.096149
  17 H :    0.128893
  18 H :    0.106517
  19 H :    0.101387
  20 H :    0.109460
  21 H :    0.106045
Sum of atomic charges:   -0.0000000

--------------------------------
MULLIKEN REDUCED ORBITAL CHARGES
--------------------------------
  0 C s       :     3.226141  s :     3.226141
      pz      :     1.007008  p :     2.930253
      px      :     0.969401
      py      :     0.953844
      dz2     :     0.006153  d :     0.037227
      dxz     :     0.007522
      dyz     :     0.008396
      dx2y2   :     0.006485
      dxy     :     0.008670

  1 C s       :     3.253731  s :     3.253731
      pz      :     1.046046  p :     3.071134
      px      :     1.045279
      py      :     0.979810
      dz2     :     0.003540  d :     0.030294
      dxz     :     0.006762
      dyz     :     0.007983
      dx2y2   :     0.006033
      dxy     :     0.005976

  2 C s       :     3.208096  s :     3.208096
      pz      :     0.966552  p :     2.812649
      px      :     0.906412
      py      :     0.939684
      dz2     :     0.007264  d :     0.042561
      dxz     :     0.008135
      dyz     :     0.008993
      dx2y2   :     0.009607
      dxy     :     0.008562

  3 H s       :     0.728439  s :     0.728439
      pz      :     0.005107  p :     0.023937
      px      :     0.010407
      py      :     0.008423

  4 H s       :     0.728101  s :     0.728101
      pz      :     0.007517  p :     0.024027
      px      :     0.008104
      py      :     0.008407

  5 C s       :     3.200646  s :     3.200646
      pz      :     0.868135  p :     2.793752
      px      :     1.026952
      py      :     0.898664
      dz2     :     0.013201  d :     0.057005
      dxz     :     0.013212
      dyz     :     0.011686
      dx2y2   :     0.013367
      dxy     :     0.005539

  6 H s       :     0.644071  s :     0.644071
      pz      :     0.007231  p :     0.037968
      px      :     0.009275
      py      :     0.021462

  7 C s       :     3.246668  s :     3.246668
      pz      :     1.052740  p :     3.048241
      px      :     1.027998
      py      :     0.967503
      dz2     :     0.003778  d :     0.030192
      dxz     :     0.007971
      dyz     :     0.006434
      dx2y2   :     0.005785
      dxy     :     0.006225

  8 C s       :     2.989136  s :     2.989136
      pz      :     0.710388  p :     2.390260
      px      :     0.771102
      py      :     0.908770
      dz2     :     0.042591  d :     0.124118
      dxz     :     0.024373
      dyz     :     0.032865
      dx2y2   :     0.013495
      dxy     :     0.010794

  9 H s       :     0.855402  s :     0.855402
      pz      :     0.005657  p :     0.011886
      px      :     0.003073
      py      :     0.003155

 10 N s       :     3.587811  s :     3.587811
      pz      :     1.072089  p :     3.937444
      px      :     1.149703
      py      :     1.715653
      dz2     :     0.004297  d :     0.028599
      dxz     :     0.007581
      dyz     :     0.007530
      dx2y2   :     0.002330
      dxy     :     0.006862

 11 O s       :     3.827105  s :     3.827105
      pz      :     1.515160  p :     4.604188
      px      :     1.753003
      py      :     1.336025
      dz2     :     0.008649  d :     0.022811
      dxz     :     0.005228
      dyz     :     0.003773
      dx2y2   :     0.004666
      dxy     :     0.000495

 12 H s       :     0.864363  s :     0.864363
      pz      :     0.003811  p :     0.012035
      px      :     0.004357
      py      :     0.003867

 13 O s       :     3.863493  s :     3.863493
      pz      :     1.493792  p :     4.535111
      px      :     1.427341
      py      :     1.613978
      dz2     :     0.007283  d :     0.027987
      dxz     :     0.006527
      dyz     :     0.007536
      dx2y2   :     0.002789
      dxy     :     0.003852

 14 H s       :     0.878151  s :     0.878151
      pz      :     0.005455  p :     0.011648
      px      :     0.002551
      py      :     0.003642

 15 H s       :     0.890138  s :     0.890138
      pz      :     0.003194  p :     0.011632
      px      :     0.004920
      py      :     0.003518

 16 H s       :     0.892212  s :     0.892212
      pz      :     0.004402  p :     0.011639
      px      :     0.004724
      py      :     0.002514

 17 H s       :     0.859887  s :     0.859887
      pz      :     0.003435  p :     0.011220
      px      :     0.004901
      py      :     0.002884

 18 H s       :     0.881812  s :     0.881812
      pz      :     0.005400  p :     0.011671
      px      :     0.002810
      py      :     0.003462

 19 H s       :     0.887054  s :     0.887054
      pz      :     0.003300  p :     0.011559
      px      :     0.004509
      py      :     0.003750

 20 H s       :     0.879022  s :     0.879022
      pz      :     0.005346  p :     0.011518
      px      :     0.002776
      py      :     0.003396

 21 H s       :     0.882401  s :     0.882401
      pz      :     0.003576  p :     0.011554
      px      :     0.005453
      py      :     0.002525



                     *******************************
                     * LOEWDIN POPULATION ANALYSIS *
                     *******************************

----------------------
LOEWDIN ATOMIC CHARGES
----------------------
   0 C :   -0.125501
   1 C :   -0.212072
   2 C :   -0.065670
   3 H :    0.129979
   4 H :    0.126216
   5 C :   -0.049796
   6 H :    0.181729
   7 C :   -0.196206
   8 C :    0.099824
   9 H :    0.078371
  10 N :   -0.242487
  11 O :   -0.139318
  12 H :    0.072429
  13 O :   -0.227704
  14 H :    0.072011
  15 H :    0.066061
  16 H :    0.065187
  17 H :    0.089513
  18 H :    0.067462
  19 H :    0.069589
  20 H :    0.069055
  21 H :    0.071329

-------------------------------
LOEWDIN REDUCED ORBITAL CHARGES
-------------------------------
  0 C s       :     2.896697  s :     2.896697
      pz      :     1.066770  p :     3.145823
      px      :     1.038239
      py      :     1.040814
      dz2     :     0.013244  d :     0.082981
      dxz     :     0.018029
      dyz     :     0.016934
      dx2y2   :     0.015846
      dxy     :     0.018929

  1 C s       :     2.914989  s :     2.914989
      pz      :     1.092974  p :     3.233131
      px      :     1.086846
      py      :     1.053310
      dz2     :     0.007728  d :     0.063953
      dxz     :     0.013490
      dyz     :     0.016200
      dx2y2   :     0.013546
      dxy     :     0.012988

  2 C s       :     2.886794  s :     2.886794
      pz      :     1.047218  p :     3.081066
      px      :     1.006720
      py      :     1.027128
      dz2     :     0.015593  d :     0.097810
      dxz     :     0.020397
      dyz     :     0.018871
      dx2y2   :     0.023630
      dxy     :     0.019320

  3 H s       :     0.790919  s :     0.790919
      pz      :     0.014553  p :     0.079102
      px      :     0.037370
      py      :     0.027180

  4 H s       :     0.794126  s :     0.794126
      pz      :     0.025739  p :     0.079658
      px      :     0.027055
      py      :     0.026865

  5 C s       :     2.882422  s :     2.882422
      pz      :     0.972343  p :     3.037346
      px      :     1.058592
      py      :     1.006410
      dz2     :     0.031634  d :     0.130029
      dxz     :     0.027782
      dyz     :     0.025553
      dx2y2   :     0.032425
      dxy     :     0.012635

  6 H s       :     0.702463  s :     0.702463
      pz      :     0.020572  p :     0.115808
      px      :     0.026026
      py      :     0.069210

  7 C s       :     2.916802  s :     2.916802
      pz      :     1.094233  p :     3.215339
      px      :     1.082076
      py      :     1.039031
      dz2     :     0.008050  d :     0.064065
      dxz     :     0.015988
      dyz     :     0.013086
      dx2y2   :     0.013646
      dxy     :     0.013294

  8 C s       :     2.860793  s :     2.860793
      pz      :     0.928985  p :     2.742224
      px      :     0.788509
      py      :     1.024731
      dz2     :     0.108694  d :     0.297158
      dxz     :     0.054781
      dyz     :     0.080546
      dx2y2   :     0.032203
      dxy     :     0.020933

  9 H s       :     0.880246  s :     0.880246
      pz      :     0.021503  p :     0.041382
      px      :     0.009044
      py      :     0.010835

 10 N s       :     3.192298  s :     3.192298
      pz      :     1.133302  p :     3.992272
      px      :     1.168447
      py      :     1.690522
      dz2     :     0.012177  d :     0.057917
      dxz     :     0.018502
      dyz     :     0.013585
      dx2y2   :     0.004405
      dxy     :     0.009249

 11 O s       :     3.469886  s :     3.469886
      pz      :     1.546781  p :     4.618512
      px      :     1.722362
      py      :     1.349369
      dz2     :     0.019121  d :     0.050920
      dxz     :     0.008675
      dyz     :     0.011016
      dx2y2   :     0.010779
      dxy     :     0.001329

 12 H s       :     0.886123  s :     0.886123
      pz      :     0.012808  p :     0.041448
      px      :     0.015392
      py      :     0.013248

 13 O s       :     3.554392  s :     3.554392
      pz      :     1.553151  p :     4.615448
      px      :     1.416207
      py      :     1.646089
      dz2     :     0.015247  d :     0.057864
      dxz     :     0.010069
      dyz     :     0.020645
      dx2y2   :     0.006190
      dxy     :     0.005713

 14 H s       :     0.888054  s :     0.888054
      pz      :     0.020761  p :     0.039936
      px      :     0.007792
      py      :     0.011383

 15 H s       :     0.894207  s :     0.894207
      pz      :     0.009661  p :     0.039732
      px      :     0.018153
      py      :     0.011917

 16 H s       :     0.895305  s :     0.895305
      pz      :     0.015244  p :     0.039509
      px      :     0.016991
      py      :     0.007274

 17 H s       :     0.871279  s :     0.871279
      pz      :     0.012649  p :     0.039208
      px      :     0.018285
      py      :     0.008275

 18 H s       :     0.892619  s :     0.892619
      pz      :     0.020822  p :     0.039919
      px      :     0.008160
      py      :     0.010936

 19 H s       :     0.891528  s :     0.891528
      pz      :     0.010616  p :     0.038883
      px      :     0.016142
      py      :     0.012125

 20 H s       :     0.891300  s :     0.891300
      pz      :     0.020555  p :     0.039645
      px      :     0.007757
      py      :     0.011333

 21 H s       :     0.889135  s :     0.889135
      pz      :     0.011801  p :     0.039536
      px      :     0.020362
      py      :     0.007373



                      *****************************
                      * MAYER POPULATION ANALYSIS *
                      *****************************

  NA   - Mulliken gross atomic population
  ZA   - Total nuclear charge
  QA   - Mulliken gross atomic charge
  VA   - Mayer's total valence
  BVA  - Mayer's bonded valence
  FA   - Mayer's free valence

  ATOM       NA         ZA         QA         VA         BVA        FA
  0 C      6.1936     6.0000    -0.1936     3.9045     3.9045    -0.0000
  1 C      6.3552     6.0000    -0.3552     3.8849     3.8849    -0.0000
  2 C      6.0633     6.0000    -0.0633     3.8998     3.8998     0.0000
  3 H      0.7524     1.0000     0.2476     0.9227     0.9227    -0.0000
  4 H      0.7521     1.0000     0.2479     0.9254     0.9254    -0.0000
  5 C      6.0514     6.0000    -0.0514     3.8630     3.8630    -0.0000
  6 H      0.6820     1.0000     0.3180     0.9182     0.9182    -0.0000
  7 C      6.3251     6.0000    -0.3251     3.8767     3.8767    -0.0000
  8 C      5.5035     6.0000     0.4965     3.9483     3.9483    -0.0000
  9 H      0.8673     1.0000     0.1327     0.9642     0.9642     0.0000
 10 N      7.5539     7.0000    -0.5539     2.9163     2.9163    -0.0000
 11 O      8.4541     8.0000    -0.4541     2.0321     2.0321    -0.0000
 12 H      0.8764     1.0000     0.1236     0.9665     0.9665    -0.0000
 13 O      8.4266     8.0000    -0.4266     2.0971     2.0971     0.0000
 14 H      0.8898     1.0000     0.1102     0.9569     0.9569     0.0000
 15 H      0.9018     1.0000     0.0982     0.9582     0.9582     0.0000
 16 H      0.9039     1.0000     0.0961     0.9580     0.9580    -0.0000
 17 H      0.8711     1.0000     0.1289     0.9496     0.9496    -0.0000
 18 H      0.8935     1.0000     0.1065     0.9559     0.9559    -0.0000
 19 H      0.8986     1.0000     0.1014     0.9540     0.9540     0.0000
 20 H      0.8905     1.0000     0.1095     0.9584     0.9584    -0.0000
 21 H      0.8940     1.0000     0.1060     0.9541     0.9541    -0.0000

  Mayer bond orders larger than 0.100000
B(  0-C ,  1-C ) :   1.0128 B(  0-C ,  2-C ) :   1.0040 B(  0-C , 18-H ) :   0.9426 
B(  0-C , 19-H ) :   0.9485 B(  1-C , 12-H ) :   0.9462 B(  1-C , 20-H ) :   0.9601 
B(  1-C , 21-H ) :   0.9591 B(  2-C ,  5-C ) :   0.9600 B(  2-C ,  7-C ) :   1.0028 
B(  2-C , 14-H ) :   0.9308 B(  3-H , 10-N ) :   0.9038 B(  4-H , 10-N ) :   0.8984 
B(  5-C ,  8-C ) :   0.9043 B(  5-C , 10-N ) :   1.0514 B(  5-C , 17-H ) :   0.9181 
B(  6-H , 11-O ) :   0.8510 B(  7-C ,  9-H ) :   0.9495 B(  7-C , 15-H ) :   0.9583 
B(  7-C , 16-H ) :   0.9593 B(  8-C , 11-O ) :   1.0776 B(  8-C , 13-O ) :   1.8974 


-------
TIMINGS
-------

Total SCF time: 0 days 0 hours 0 min 7 sec 

Total time                  ....       7.342 sec
Sum of individual times     ....       6.835 sec  ( 93.1%)

SCF preparation             ....       0.032 sec  (  0.4%)
Fock matrix formation       ....       6.724 sec  ( 91.6%)
  Startup                   ....       0.001 sec  (  0.0% of F)
  Split-RI-J                ....       2.360 sec  ( 35.1% of F)
  XC integration            ....       4.796 sec  ( 71.3% of F)
    XC Preparation          ....       0.000 sec  (  0.0% of XC)
    Basis function eval.    ....       1.691 sec  ( 35.3% of XC)
    Density eval.           ....       1.096 sec  ( 22.8% of XC)
    XC-Functional eval.     ....       0.812 sec  ( 16.9% of XC)
    XC-Potential eval.      ....       1.075 sec  ( 22.4% of XC)
Diagonalization             ....       0.000 sec  (  0.0%)
Density matrix formation    ....       0.020 sec  (  0.3%)
Total Energy calculation    ....       0.001 sec  (  0.0%)
Population analysis         ....       0.003 sec  (  0.0%)
Orbital Transformation      ....       0.006 sec  (  0.1%)
Orbital Orthonormalization  ....       0.000 sec  (  0.0%)
DIIS solution               ....       0.032 sec  (  0.4%)
SOSCF solution              ....       0.016 sec  (  0.2%)
Finished LeanSCF after   7.3 sec

Maximum memory used throughout the entire LEANSCF-calculation: 22.0 MB



-------------------------------------------------------------------------------
                          DFT DISPERSION CORRECTION                            
-------------------------------------------------------------------------------
Active option DFTDOPT                   ...         2   
Final C6-coefficient scaling factor     ...     1.250
Final VDW-radii scaling factor          ...     1.100
Damping factor alpha                    ...    20.000
-------------------------   ----------------
Dispersion correction           -0.036816974
-------------------------   ----------------


-------------------------   --------------------
FINAL SINGLE POINT ENERGY      -441.406368936569
-------------------------   --------------------

------------------------------------------------------------------------------
                         ORCA SCF GRADIENT CALCULATION
------------------------------------------------------------------------------

Nuc. rep. gradient        (SHARK) ... done (  0.0 sec)
HCore & Overlap gradient  (SHARK) ... done (  0.1 sec)
Split-RIJ-J gradient      (SHARK) ... done (  0.7 sec)
XC gradient                       ... done (  3.0 sec)
Dispersion correction             ... done (  0.0 sec)

-------------------
DISPERSION GRADIENT
-------------------

   1   C   :   -0.000813119   -0.001192251    0.000241512
   2   C   :   -0.001280191    0.000821850   -0.000227122
   3   C   :    0.000461618    0.001418596   -0.000031474
   4   H   :    0.000267481    0.000415328   -0.000852971
   5   H   :    0.001461813    0.000231303   -0.001321173
   6   C   :    0.000439824   -0.000535635   -0.000025280
   7   H   :    0.000232141   -0.000190028   -0.000342511
   8   C   :    0.000125971   -0.000089788    0.000536746
   9   C   :    0.000586219   -0.000222223    0.000214479
  10   H   :   -0.000078469    0.000929499    0.001438774
  11   N   :    0.000781245   -0.000856059    0.000306008
  12   O   :    0.000516326   -0.000565217    0.000274708
  13   H   :   -0.001869150   -0.000333686    0.000267158
  14   O   :    0.000523786   -0.000890963    0.000698083
  15   H   :    0.000187093    0.000213871    0.000432763
  16   H   :    0.001306533    0.000471938    0.000087813
  17   H   :   -0.000803849    0.001147167   -0.000206786
  18   H   :    0.000318455   -0.000197877   -0.000124022
  19   H   :   -0.001604823    0.000391485    0.000261092
  20   H   :   -0.000232282    0.000003837   -0.000744302
  21   H   :   -0.001014074   -0.000261940   -0.001231549
  22   H   :    0.000487452   -0.000709207    0.000348052

Difference to translation invariance:
           :    0.0000000000   -0.0000000000    0.0000000000

Difference to rotation invariance:
           :   -0.0000000000   -0.0000000000    0.0000000000

Norm of the Dispersion gradient    ...    0.0058819475
RMS gradient                       ...    0.0007240177
MAX gradient                       ...    0.0018691499

------------------
CARTESIAN GRADIENT
------------------

   1   C   :   -0.000287802    0.004778982   -0.003322140
   2   C   :    0.001439162   -0.002112008    0.001766687
   3   C   :   -0.001120301   -0.005763296   -0.000610419
   4   H   :   -0.001435665    0.002986659    0.001385429
   5   H   :    0.001127113    0.003242662    0.001823269
   6   C   :    0.000519034    0.000641138   -0.000484416
   7   H   :   -0.001219102    0.002908874    0.005546565
   8   C   :    0.001575998    0.001590100   -0.001078583
   9   C   :   -0.003957583   -0.005812124   -0.002499603
  10   H   :   -0.002678767   -0.003914764    0.006449118
  11   N   :   -0.001310399   -0.010908920    0.001773798
  12   O   :    0.006001488   -0.001805311   -0.027535711
  13   H   :   -0.003614418    0.005030233    0.004307139
  14   O   :   -0.004632556    0.018292980    0.025233431
  15   H   :    0.001386929    0.001550901   -0.002936786
  16   H   :    0.006561284   -0.004796194   -0.003388587
  17   H   :   -0.006829476   -0.001231827   -0.005737199
  18   H   :   -0.002025349   -0.000511352   -0.002534607
  19   H   :   -0.001045641   -0.004788958    0.005335671
  20   H   :    0.003426655   -0.004939895   -0.001445725
  21   H   :    0.001056608    0.004590908   -0.006153601
  22   H   :    0.007062789    0.000971213    0.004106269

Difference to translation invariance:
           :   -0.0000000000    0.0000000000   -0.0000000000

Difference to rotation invariance:
           :   -0.0002579513    0.0003971780   -0.0000821060

Norm of the Cartesian gradient     ...    0.0514391003
RMS gradient                       ...    0.0063317156
MAX gradient                       ...    0.0275357112

-------
TIMINGS
-------

Total SCF gradient time     ....        3.773 sec

Densities                   ....       0.000 sec  (  0.0%)
One electron gradient       ....       0.140 sec  (  3.7%)
RI-J Coulomb gradient       ....       0.654 sec  ( 17.3%)
XC gradient                 ....       2.979 sec  ( 78.9%)

Maximum memory used throughout the entire SCFGRAD-calculation: 28.2 MB
------------------------------------------------------------------------------
                         ORCA GEOMETRY RELAXATION STEP
------------------------------------------------------------------------------

Reading the OPT-File                    .... done
Getting information on internals        .... done
Copying old internal coords+grads       .... done
Making the new internal coordinates     .... (2022 redundants) done
Validating the new internal coordinates .... (2022 redundants) done
Calculating the B-matrix                .... done
Calculating the G,G- and P matrices     .... done
Transforming gradient to internals      .... done
Projecting the internal gradient        .... done
Number of atoms                         ....  22
Number of internal coordinates          ....  94
Current Energy                          ....  -441.406368937 Eh
Current gradient norm                   ....     0.051439100 Eh/bohr
Maximum allowed component of the step   ....  0.300
Current trust radius                    ....  0.300
Evaluating the initial hessian          ....  (Almloef) done
Projecting the Hessian                  .... done
Forming the augmented Hessian           .... done
Diagonalizing the augmented Hessian     .... done
Last element of RFO vector              ....  0.982468532
Lowest eigenvalues of augmented Hessian:
 -0.006134589  0.010186707  0.010965217  0.011017042  0.011330225
Length of the computed step             ....  0.189755180
The final length of the internal step   ....  0.189755180
Converting the step to Cartesian space:
 Initial RMS(Int)=    0.0195717525
Transforming coordinates:
 Iter   0:  RMS(Cart)=    0.0790643778 RMS(Int)=    0.6455684057
 Iter   5:  RMS(Cart)=    0.0000000109 RMS(Int)=    0.0000000059
done
Storing new coordinates                 .... done

                                .--------------------.
          ----------------------|Geometry convergence|-------------------------
          Item                value                   Tolerance       Converged
          ---------------------------------------------------------------------
          RMS gradient        0.0055641918            0.0001000000      NO
          MAX gradient        0.0314938434            0.0003000000      NO
          RMS step            0.0195717525            0.0020000000      NO
          MAX step            0.0627739756            0.0040000000      NO
          -------------------------------------------------------------------------
          ........................................................
          Max(Bonds)      0.0180      Max(Angles)    1.56
          Max(Dihed)        3.60      Max(Improp)    0.00
          ---------------------------------------------------------------------

The optimization has not yet converged - more geometry cycles are needed


    ---------------------------------------------------------------------------
                         Redundant Internal Coordinates
                            (Angstroem and degrees)

        Definition                    Value    dE/dq     Step     New-Value
    ----------------------------------------------------------------------------
     1. B(C   1,C   0)                1.5240 -0.010586  0.0144    1.5384   
     2. B(C   2,C   0)                1.5323 -0.009280  0.0130    1.5454   
     3. B(C   5,C   2)                1.5463 -0.010709  0.0158    1.5621   
     4. B(C   7,C   2)                1.5277 -0.009014  0.0125    1.5401   
     5. B(C   8,C   5)                1.5230 -0.013256  0.0180    1.5410   
     6. B(H   9,C   7)                1.0865 -0.007996  0.0114    1.0979   
     7. B(N  10,H   3)                1.0146 -0.002748  0.0034    1.0180   
     8. B(N  10,C   5)                1.4495 -0.006525  0.0076    1.4571   
     9. B(N  10,H   4)                1.0151 -0.003053  0.0037    1.0188   
    10. B(O  11,C   8)                1.3380 -0.021385  0.0166    1.3545   
    11. B(O  11,H   6)                0.9707 -0.002999  0.0031    0.9739   
    12. B(H  12,C   1)                1.0867 -0.007387  0.0105    1.0973   
    13. B(O  13,C   8)                1.2047 -0.031494  0.0150    1.2197   
    14. B(H  14,C   2)                1.0948 -0.003538  0.0052    1.1000   
    15. B(H  15,C   7)                1.0871 -0.008779  0.0126    1.0997   
    16. B(H  16,C   7)                1.0872 -0.008961  0.0128    1.1001   
    17. B(H  17,C   5)                1.0990 -0.003182  0.0047    1.1037   
    18. B(H  18,C   0)                1.0909 -0.007007  0.0102    1.1011   
    19. B(H  19,C   0)                1.0927 -0.005746  0.0084    1.1011   
    20. B(H  20,C   1)                1.0885 -0.007678  0.0110    1.0995   
    21. B(H  21,C   1)                1.0880 -0.008106  0.0116    1.0997   
    22. A(H  18,C   0,H  19)          107.29  0.000576   -0.78    106.51   
    23. A(C   1,C   0,C   2)          114.27 -0.006936    1.37    115.64   
    24. A(C   1,C   0,H  19)          108.37  0.000642    0.06    108.43   
    25. A(C   2,C   0,H  18)          109.21  0.002339   -0.34    108.87   
    26. A(C   2,C   0,H  19)          107.40  0.002533   -0.41    106.99   
    27. A(C   1,C   0,H  18)          110.04  0.001265   -0.04    110.00   
    28. A(C   0,C   1,H  20)          110.49 -0.000553    0.10    110.59   
    29. A(H  20,C   1,H  21)          108.24  0.001285   -0.22    108.02   
    30. A(C   0,C   1,H  12)          111.69 -0.001630    0.29    111.97   
    31. A(H  12,C   1,H  20)          108.49  0.001272   -0.26    108.23   
    32. A(H  12,C   1,H  21)          107.77  0.001311   -0.22    107.54   
    33. A(C   0,C   1,H  21)          110.06 -0.001516    0.29    110.35   
    34. A(C   0,C   2,C   7)          109.59  0.000768   -0.01    109.58   
    35. A(C   0,C   2,C   5)          113.67 -0.001286    0.46    114.13   
    36. A(C   5,C   2,H  14)          107.12  0.000179   -0.18    106.94   
    37. A(C   0,C   2,H  14)          108.67  0.000257   -0.25    108.41   
    38. A(C   5,C   2,C   7)          108.48 -0.000673    0.36    108.84   
    39. A(C   7,C   2,H  14)          109.21  0.000820   -0.42    108.80   
    40. A(C   8,C   5,H  17)          105.20  0.001734   -0.56    104.64   
    41. A(C   2,C   5,H  17)          106.59  0.000662   -0.54    106.05   
    42. A(N  10,C   5,H  17)          107.63 -0.000515   -0.31    107.32   
    43. A(C   2,C   5,C   8)          112.74 -0.004898    1.27    114.01   
    44. A(C   8,C   5,N  10)          112.35  0.000048    0.34    112.70   
    45. A(C   2,C   5,N  10)          111.80  0.003112   -0.35    111.45   
    46. A(C   2,C   7,H   9)          109.52 -0.000096    0.03    109.55   
    47. A(H  15,C   7,H  16)          108.40  0.000340   -0.06    108.34   
    48. A(H   9,C   7,H  16)          108.59  0.001156   -0.22    108.37   
    49. A(C   2,C   7,H  16)          110.77 -0.000911    0.16    110.93   
    50. A(H   9,C   7,H  15)          108.98  0.000441   -0.07    108.92   
    51. A(C   2,C   7,H  15)          110.53 -0.000870    0.16    110.69   
    52. A(C   5,C   8,O  13)          124.24 -0.001921    0.29    124.53   
    53. A(C   5,C   8,O  11)          113.21  0.004778   -0.62    112.58   
    54. A(O  11,C   8,O  13)          122.50 -0.002866    0.37    122.87   
    55. A(H   3,N  10,H   4)          106.50  0.000830   -0.76    105.75   
    56. A(H   4,N  10,C   5)          109.69  0.001876   -0.57    109.12   
    57. A(H   3,N  10,C   5)          109.81  0.001203   -0.46    109.35   
    58. A(H   6,O  11,C   8)          110.18  0.010323   -1.56    108.63   
    59. D(H  20,C   1,C   0,H  19)    -65.54  0.001238   -1.53    -67.07   
    60. D(H  12,C   1,C   0,H  18)     56.57 -0.000671   -0.53     56.04   
    61. D(H  12,C   1,C   0,H  19)    173.60  0.001101   -1.46    172.15   
    62. D(H  12,C   1,C   0,C   2)    -66.71  0.000338   -1.05    -67.76   
    63. D(H  20,C   1,C   0,H  18)    177.42 -0.000533   -0.60    176.83   
    64. D(H  20,C   1,C   0,C   2)     54.15  0.000475   -1.12     53.03   
    65. D(C   5,C   2,C   0,C   1)     64.03  0.000731   -0.59     63.44   
    66. D(C   7,C   2,C   0,H  19)    -54.18 -0.002200    0.83    -53.35   
    67. D(C   7,C   2,C   0,H  18)     61.86  0.001064   -0.49     61.38   
    68. D(C   7,C   2,C   0,C   1)   -174.41 -0.000457    0.18   -174.23   
    69. D(C   5,C   2,C   0,H  18)    -59.70  0.002252   -1.26    -60.96   
    70. D(C   5,C   2,C   0,H  19)   -175.74 -0.001012    0.06   -175.68   
    71. D(C   8,C   5,C   2,H  14)     45.70  0.001095   -3.20     42.50   
    72. D(C   8,C   5,C   2,C   7)    163.47  0.001804   -3.60    159.87   
    73. D(C   8,C   5,C   2,C   0)    -74.35  0.001435   -3.04    -77.39   
    74. D(N  10,C   5,C   2,H  14)    173.42 -0.000294   -1.97    171.44   
    75. D(N  10,C   5,C   2,C   7)    -68.81  0.000416   -2.37    -71.18   
    76. D(N  10,C   5,C   2,C   0)     53.37  0.000047   -1.81     51.55   
    77. D(H  15,C   7,C   2,H  14)    -65.71 -0.000449    0.44    -65.28   
    78. D(H  15,C   7,C   2,C   5)    177.85 -0.000737    0.68    178.53   
    79. D(H  15,C   7,C   2,C   0)     53.22  0.000811   -0.13     53.10   
    80. D(H   9,C   7,C   2,H  14)    174.21 -0.000389    0.40    174.61   
    81. D(H   9,C   7,C   2,C   5)     57.77 -0.000677    0.65     58.42   
    82. D(H   9,C   7,C   2,C   0)    -66.86  0.000871   -0.16    -67.02   
    83. D(O  13,C   8,C   5,N  10)      3.45  0.000600   -2.44      1.01   
    84. D(O  13,C   8,C   5,C   2)    130.88  0.000798   -1.57    129.31   
    85. D(O  11,C   8,C   5,H  17)     63.93 -0.000107   -1.02     62.91   
    86. D(O  11,C   8,C   5,N  10)   -179.26  0.000338   -1.55   -180.81   
    87. D(O  11,C   8,C   5,C   2)    -51.83  0.000536   -0.68    -52.51   
    88. D(H   3,N  10,C   5,C   8)    -61.63 -0.003093    1.42    -60.22   
    89. D(H   3,N  10,C   5,C   2)    170.44  0.000944   -0.30    170.14   
    90. D(H   4,N  10,C   5,C   8)     55.08 -0.000293   -0.10     54.98   
    91. D(H   4,N  10,C   5,C   2)    -72.84  0.003744   -1.82    -74.66   
[...]
      py      :     1.339646
      dz2     :     0.009116  d :     0.023139
      dxz     :     0.005038
      dyz     :     0.004076
      dx2y2   :     0.004499
      dxy     :     0.000409

 12 H s       :     0.864963  s :     0.864963
      pz      :     0.003851  p :     0.011676
      px      :     0.004188
      py      :     0.003637

 13 O s       :     3.876311  s :     3.876311
      pz      :     1.503409  p :     4.527744
      px      :     1.425236
      py      :     1.599099
      dz2     :     0.006890  d :     0.027296
      dxz     :     0.006217
      dyz     :     0.007551
      dx2y2   :     0.002752
      dxy     :     0.003885

 14 H s       :     0.877293  s :     0.877293
      pz      :     0.005389  p :     0.011473
      px      :     0.002530
      py      :     0.003553

 15 H s       :     0.888552  s :     0.888552
      pz      :     0.003107  p :     0.011308
      px      :     0.004806
      py      :     0.003395

 16 H s       :     0.890705  s :     0.890705
      pz      :     0.004276  p :     0.011302
      px      :     0.004662
      py      :     0.002364

 17 H s       :     0.858329  s :     0.858329
      pz      :     0.003358  p :     0.011108
      px      :     0.004909
      py      :     0.002841

 18 H s       :     0.880198  s :     0.880198
      pz      :     0.005185  p :     0.011422
      px      :     0.002741
      py      :     0.003497

 19 H s       :     0.887855  s :     0.887855
      pz      :     0.003299  p :     0.011356
      px      :     0.004448
      py      :     0.003609

 20 H s       :     0.880357  s :     0.880357
      pz      :     0.005090  p :     0.011230
      px      :     0.002636
      py      :     0.003505

 21 H s       :     0.881459  s :     0.881459
      pz      :     0.003391  p :     0.011267
      px      :     0.005491
      py      :     0.002385



                     *******************************
                     * LOEWDIN POPULATION ANALYSIS *
                     *******************************

----------------------
LOEWDIN ATOMIC CHARGES
----------------------
   0 C :   -0.127769
   1 C :   -0.214565
   2 C :   -0.063340
   3 H :    0.130801
   4 H :    0.128141
   5 C :   -0.049153
   6 H :    0.183255
   7 C :   -0.198300
   8 C :    0.123272
   9 H :    0.079626
  10 N :   -0.249367
  11 O :   -0.159039
  12 H :    0.072716
  13 O :   -0.234363
  14 H :    0.072391
  15 H :    0.068178
  16 H :    0.066925
  17 H :    0.089613
  18 H :    0.068795
  19 H :    0.069758
  20 H :    0.069491
  21 H :    0.072933

-------------------------------
LOEWDIN REDUCED ORBITAL CHARGES
-------------------------------
  0 C s       :     2.906945  s :     2.906945
      pz      :     1.065688  p :     3.141105
      px      :     1.037077
      py      :     1.038341
      dz2     :     0.011506  d :     0.079719
      dxz     :     0.017755
      dyz     :     0.017622
      dx2y2   :     0.015238
      dxy     :     0.017599

  1 C s       :     2.925914  s :     2.925914
      pz      :     1.091265  p :     3.227133
      px      :     1.086138
      py      :     1.049729
      dz2     :     0.006485  d :     0.061519
      dxz     :     0.012811
      dyz     :     0.017117
      dx2y2   :     0.013566
      dxy     :     0.011540

  2 C s       :     2.896712  s :     2.896712
      pz      :     1.045647  p :     3.072565
      px      :     1.002878
      py      :     1.024041
      dz2     :     0.014771  d :     0.094063
      dxz     :     0.019822
      dyz     :     0.018482
      dx2y2   :     0.022365
      dxy     :     0.018622

  3 H s       :     0.791661  s :     0.791661
      pz      :     0.014724  p :     0.077539
      px      :     0.035567
      py      :     0.027248

  4 H s       :     0.793798  s :     0.793798
      pz      :     0.024068  p :     0.078060
      px      :     0.027342
      py      :     0.026649

  5 C s       :     2.894034  s :     2.894034
      pz      :     0.968742  p :     3.031011
      px      :     1.060224
      py      :     1.002045
      dz2     :     0.030627  d :     0.124108
      dxz     :     0.026513
      dyz     :     0.024685
      dx2y2   :     0.030548
      dxy     :     0.011734

  6 H s       :     0.702602  s :     0.702602
      pz      :     0.019991  p :     0.114143
      px      :     0.025806
      py      :     0.068346

  7 C s       :     2.927901  s :     2.927901
      pz      :     1.091796  p :     3.208681
      px      :     1.080373
      py      :     1.036512
      dz2     :     0.007393  d :     0.061718
      dxz     :     0.015587
      dyz     :     0.013002
      dx2y2   :     0.013190
      dxy     :     0.012547

  8 C s       :     2.877159  s :     2.877159
      pz      :     0.917690  p :     2.722553
      px      :     0.782156
      py      :     1.022707
      dz2     :     0.107391  d :     0.277016
      dxz     :     0.048087
      dyz     :     0.074516
      dx2y2   :     0.028722
      dxy     :     0.018300

  9 H s       :     0.880635  s :     0.880635
      pz      :     0.020613  p :     0.039739
      px      :     0.008515
      py      :     0.010611

 10 N s       :     3.215682  s :     3.215682
      pz      :     1.133251  p :     3.976055
      px      :     1.171611
      py      :     1.671193
      dz2     :     0.012026  d :     0.057631
      dxz     :     0.017233
      dyz     :     0.013850
      dx2y2   :     0.003496
      dxy     :     0.011026

 11 O s       :     3.496668  s :     3.496668
      pz      :     1.525583  p :     4.613865
      px      :     1.736057
      py      :     1.352225
      dz2     :     0.019733  d :     0.048506
      dxz     :     0.007574
      dyz     :     0.010459
      dx2y2   :     0.009975
      dxy     :     0.000764

 12 H s       :     0.887348  s :     0.887348
      pz      :     0.013232  p :     0.039937
      px      :     0.014603
      py      :     0.012101

 13 O s       :     3.568268  s :     3.568268
      pz      :     1.561748  p :     4.610492
      px      :     1.412888
      py      :     1.635857
      dz2     :     0.014244  d :     0.055603
      dxz     :     0.008947
      dyz     :     0.020673
      dx2y2   :     0.006284
      dxy     :     0.005455

 14 H s       :     0.888431  s :     0.888431
      pz      :     0.020374  p :     0.039178
      px      :     0.007655
      py      :     0.011148

 15 H s       :     0.893585  s :     0.893585
      pz      :     0.009341  p :     0.038237
      px      :     0.017547
      py      :     0.011349

 16 H s       :     0.895073  s :     0.895073
      pz      :     0.014638  p :     0.038002
      px      :     0.016655
      py      :     0.006709

 17 H s       :     0.871522  s :     0.871522
      pz      :     0.012394  p :     0.038865
      px      :     0.018338
      py      :     0.008133

 18 H s       :     0.892505  s :     0.892505
      pz      :     0.019700  p :     0.038700
      px      :     0.007781
      py      :     0.011219

 19 H s       :     0.892317  s :     0.892317
      pz      :     0.010535  p :     0.037925
      px      :     0.015782
      py      :     0.011609

 20 H s       :     0.892281  s :     0.892281
      pz      :     0.019227  p :     0.038228
      px      :     0.007154
      py      :     0.011846

 21 H s       :     0.888891  s :     0.888891
      pz      :     0.010903  p :     0.038176
      px      :     0.020450
      py      :     0.006824



                      *****************************
                      * MAYER POPULATION ANALYSIS *
                      *****************************

  NA   - Mulliken gross atomic population
  ZA   - Total nuclear charge
  QA   - Mulliken gross atomic charge
  VA   - Mayer's total valence
  BVA  - Mayer's bonded valence
  FA   - Mayer's free valence

  ATOM       NA         ZA         QA         VA         BVA        FA
  0 C      6.1933     6.0000    -0.1933     3.8959     3.8959    -0.0000
  1 C      6.3550     6.0000    -0.3550     3.8811     3.8811     0.0000
  2 C      6.0608     6.0000    -0.0608     3.8926     3.8926     0.0000
  3 H      0.7541     1.0000     0.2459     0.9219     0.9219    -0.0000
  4 H      0.7520     1.0000     0.2480     0.9242     0.9242     0.0000
  5 C      6.0526     6.0000    -0.0526     3.8529     3.8529     0.0000
  6 H      0.6806     1.0000     0.3194     0.9172     0.9172    -0.0000
  7 C      6.3275     6.0000    -0.3275     3.8738     3.8738    -0.0000
  8 C      5.4991     6.0000     0.5009     3.9152     3.9152    -0.0000
  9 H      0.8671     1.0000     0.1329     0.9623     0.9623    -0.0000
 10 N      7.5525     7.0000    -0.5525     2.9082     2.9082    -0.0000
 11 O      8.4623     8.0000    -0.4623     2.0272     2.0272    -0.0000
 12 H      0.8766     1.0000     0.1234     0.9660     0.9660     0.0000
 13 O      8.4314     8.0000    -0.4314     2.0928     2.0928     0.0000
 14 H      0.8888     1.0000     0.1112     0.9559     0.9559    -0.0000
 15 H      0.8999     1.0000     0.1001     0.9586     0.9586     0.0000
 16 H      0.9020     1.0000     0.0980     0.9583     0.9583    -0.0000
 17 H      0.8694     1.0000     0.1306     0.9495     0.9495    -0.0000
 18 H      0.8916     1.0000     0.1084     0.9559     0.9559     0.0000
 19 H      0.8992     1.0000     0.1008     0.9544     0.9544    -0.0000
 20 H      0.8916     1.0000     0.1084     0.9583     0.9583    -0.0000
 21 H      0.8927     1.0000     0.1073     0.9550     0.9550    -0.0000

  Mayer bond orders larger than 0.100000
B(  0-C ,  1-C ) :   1.0078 B(  0-C ,  2-C ) :   0.9996 B(  0-C , 18-H ) :   0.9419 
B(  0-C , 19-H ) :   0.9475 B(  1-C , 12-H ) :   0.9472 B(  1-C , 20-H ) :   0.9591 
B(  1-C , 21-H ) :   0.9585 B(  2-C ,  5-C ) :   0.9552 B(  2-C ,  7-C ) :   0.9985 
B(  2-C , 14-H ) :   0.9312 B(  3-H , 10-N ) :   0.9033 B(  4-H , 10-N ) :   0.8967 
B(  5-C ,  8-C ) :   0.9005 B(  5-C , 10-N ) :   1.0460 B(  5-C , 17-H ) :   0.9171 
B(  6-H , 11-O ) :   0.8516 B(  7-C ,  9-H ) :   0.9501 B(  7-C , 15-H ) :   0.9571 
B(  7-C , 16-H ) :   0.9581 B(  8-C , 11-O ) :   1.0643 B(  8-C , 13-O ) :   1.8822 


-------
TIMINGS
-------

Total SCF time: 0 days 0 hours 0 min 3 sec 

Total time                  ....       3.537 sec
Sum of individual times     ....       3.043 sec  ( 86.0%)

SCF preparation             ....       0.031 sec  (  0.9%)
Fock matrix formation       ....       2.979 sec  ( 84.2%)
  Startup                   ....       0.001 sec  (  0.0% of F)
  Split-RI-J                ....       1.121 sec  ( 37.6% of F)
  XC integration            ....       2.285 sec  ( 76.7% of F)
    XC Preparation          ....       0.000 sec  (  0.0% of XC)
    Basis function eval.    ....       0.837 sec  ( 36.6% of XC)
    Density eval.           ....       0.532 sec  ( 23.3% of XC)
    XC-Functional eval.     ....       0.409 sec  ( 17.9% of XC)
    XC-Potential eval.      ....       0.444 sec  ( 19.4% of XC)
Diagonalization             ....       0.000 sec  (  0.0%)
Density matrix formation    ....       0.002 sec  (  0.1%)
Total Energy calculation    ....       0.000 sec  (  0.0%)
Population analysis         ....       0.009 sec  (  0.3%)
Orbital Transformation      ....       0.003 sec  (  0.1%)
Orbital Orthonormalization  ....       0.000 sec  (  0.0%)
DIIS solution               ....       0.004 sec  (  0.1%)
SOSCF solution              ....       0.014 sec  (  0.4%)
Finished LeanSCF after   3.5 sec

Maximum memory used throughout the entire LEANSCF-calculation: 22.3 MB



-------------------------------------------------------------------------------
                          DFT DISPERSION CORRECTION                            
-------------------------------------------------------------------------------
Active option DFTDOPT                   ...         2   
Final C6-coefficient scaling factor     ...     1.250
Final VDW-radii scaling factor          ...     1.100
Damping factor alpha                    ...    20.000
-------------------------   ----------------
Dispersion correction           -0.036278963
-------------------------   ----------------


-------------------------   --------------------
FINAL SINGLE POINT ENERGY      -441.410206009677
-------------------------   --------------------

                                *** OPTIMIZATION RUN DONE ***


------------------------------------------------------------------------------
                              ORCA PROPERTY CALCULATIONS
------------------------------------------------------------------------------

GBWName                                 ... 2.gbw
Number of atoms                         ...     22
Number of basis functions               ...    191
Max core memory                         ...   4096 MB

Electric properties:
Dipole moment                           ... YES
Quadrupole moment                       ...  NO
Static polarizability (Dipole/Dipole)   ...  NO
Static polarizability (Dipole/Quad.)    ...  NO
Static polarizability (Quad./Quad.)     ...  NO
Static polarizability (Velocity)        ...  NO
Static hyperpolarizability              ...  NO

Atomic electric properties:
Dipole moment                           ...  NO
Quadrupole moment                       ...  NO
Static polarizability                   ...  NO

Choice of electric origin               ... Center of mass
Position of electric origin             ...   -14.642262     7.610167    -0.340173

General magnetic properties:
Magnetizability                         ...  NO

EPR properties:
g-Tensor (aka g-matrix)                 ...  NO
Zero-Field splitting spin-orbit         ...  NO
Zero-field splitting spin-spin          ...  NO
Hyperfine couplings                     ...  NO (   0 nuclei)
Quadrupole couplings                    ...  NO (   0 nuclei)
Contact density                         ...  NO (   0 nuclei)

NMR properties:
Chemical shifts                         ...  NO (   0 nuclei)
Spin-rotation constants                 ...  NO (   0 nuclei)
Spin-spin couplings                     ...  NO (   0 nuclei,    0 pairs)

Choice of magnetic origin               ... GIAO
Position of magnetic origin             ...     0.000000     0.000000     0.000000

Properties with geometric perturbations:
SCF Hessian                             ...  NO
IR spectrum                             ...  NO
VCD spectrum                            ...  NO
X-ray spectroscopy properties:
SCF XES/XAS/RIXS spectra                ...  NO

SCF SOC stabilization energy            ...  NO
Diagonal Born-Oppenheimer correction    ...  NO

-------------
DIPOLE MOMENT
-------------

Method             : SCF
Type of density    : Electron Density
Multiplicity       :   1
Irrep              :   0
Energy             :  -441.3739270464987499 Eh
Basis              : AO
                                X                 Y                 Z
Electronic contribution:      6.084319777      -8.242937050       0.329513579
Nuclear contribution   :     -6.182935405       8.048480706       0.095378393
                        -----------------------------------------
Total Dipole Moment    :     -0.098615628      -0.194456344       0.424891971
                        -----------------------------------------
Magnitude (a.u.)       :      0.477568319
Magnitude (Debye)      :      1.213882197



--------------------
Rotational spectrum 
--------------------
 
Rotational constants in cm-1:             0.064591             0.041323             0.036921 
Rotational constants in MHz :          1936.380524          1238.832338          1106.861063 

Dipole components along the rotational axes: 
x,y,z [a.u.] :     0.107670    -0.105821    -0.453079 
x,y,z [Debye]:     0.273675    -0.268976    -1.151635 

 

Dipole moment calculation done in   0.0 sec 

Maximum memory used throughout the entire PROP-calculation: 12.5 MB

--------------------------------
SUGGESTED CITATIONS FOR THIS RUN
--------------------------------

Below you find a list of papers that are relevant to this ORCA run
We neither can nor want to force you to cite these papers, but we appreciate if you do
You receive ORCA, which is the product of decades of hard work by many enthusiastic individuals, for free
The only thing we kindly ask in return is that you cite our papers,
We deeply appreciate it, if you show your appreciation for ORCA by not just citing the generic ORCA reference.

Please note that relegating all ORCA citations to the supporting information does *not* help us.
SI sections are not indexed - citations you put there will not count into any citation statistics
But we need these citations in order to attract the funding resources that allow us to do what we are doing

Therefore, if you are a happy ORCA user, please consider citing a few of the papers listed below in the main body of your paper

In addition to the list printed below, the program has created the file 2.bibtex that contains the list in bibtex format
You can import this file easily into all common literature databanks and citation aid programs


List of essential papers. We consider these as the minimum necessary citations

  1. Neese, F.
     Software update: the ORCA program system, version 6.0
     WIRES Comput. Molec. Sci. 2025 15(1), e70019
     doi.org/10.1002/wcms.7019

List of papers to cite with high priority. The work reported in these papers was absolutely
necessary for this run to complete.
Our perspective: the developers of density functionals and basis sets usually get cited in chemistry papers
Good! But without the algorithms to do something with them, the functionals or basis sets would not do anything.
Hence, in our opinion, the algorithm design and method developments papers are equally worthy of getting cited

  1. Neese, F.
     An improvement of the resolution of the identity approximation for the formation of the Coulomb matrix
     J. Comp. Chem. 2003 24(14), 1740-1747
     doi.org/10.1002/jcc.10318
  2. Grimme, S.
     Semiempirical GGA-type density functional constructed with a long-range dispersion correction
     J.Comput.Chem. 2006 27(15), 1787-1799
     doi.org/10.1002/jcc.20495
  3. Neese, F.
     The SHARK Integral Generation and Digestion System
     J. Comp. Chem. 2022 44(3), 381
     doi.org/10.1002/jcc.26942

List of suggested additional citations. These are papers that are important in the 'surrounding' of 
of this run, or papers that preceded the highly important papers. If you like your results we are grateful for a citation.

  1. Neese, F.
     The ORCA program system
     WIRES Comput. Molec. Sci. 2012 2(1), 73-78
     doi.org/10.1002/wcms.81
  2. Neese, F.
     Software update: the ORCA program system, version 4.0
     WIRES Comput. Molec. Sci. 2018 8(1), 1-6
     doi.org/10.1002/wcms.1327
  3. Neese, F.; Wennmohs, F.; Becker, U.; Riplinger, C.
     The ORCA quantum chemistry program package
     J. Chem. Phys. 2020 152(22), 224108
     doi.org/10.1063/5.0004608
  4. Neese, F.
     Software update: The ORCA program system—Version 5.0
     WIRES Comput. Molec. Sci. 2022 12(1), e1606
     doi.org/10.1002/wcms.1606

List of optional additional citations

  1. Neese, F.
     Approximate second-order SCF convergence for spin unrestricted wavefunctions
     Chem. Phys. Lett. 2000 325(1-3), 93-98
     doi.org/10.1016/s0009-2614(00)00662-x

Timings for individual modules:

Sum of individual times          ...       82.866 sec (=   1.381 min)
Startup calculation              ...        4.281 sec (=   0.071 min)   5.2 %
SCF iterations                   ...       48.575 sec (=   0.810 min)  58.6 %
Property calculations            ...        0.036 sec (=   0.001 min)   0.0 %
SCF Gradient evaluation          ...       29.956 sec (=   0.499 min)  36.2 %
Geometry relaxation              ...        0.018 sec (=   0.000 min)   0.0 %
                             ****ORCA TERMINATED NORMALLY****
TOTAL RUN TIME: 0 days 0 hours 1 minutes 23 seconds 104 msec
