
                                 *****************
                                 * O   R   C   A *
                                 *****************

                                            #,                                       
                                            ###                                      
                                            ####                                     
                                            #####                                    
                                            ######                                   
                                           ########,                                 
                                     ,,################,,,,,                         
                               ,,#################################,,                 
                          ,,##########################################,,             
                       ,#########################################, ''#####,          
                    ,#############################################,,   '####,        
                  ,##################################################,,,,####,       
                ,###########''''           ''''###############################       
              ,#####''   ,,,,##########,,,,          '''####'''          '####       
            ,##' ,,,,###########################,,,                        '##       
           ' ,,###''''                  '''############,,,                           
         ,,##''                                '''############,,,,        ,,,,,,###''
      ,#''                                            '''#######################'''  
     '                                                          ''''####''''         
             ,#######,   #######,   ,#######,      ##                                
            ,#'     '#,  ##    ##  ,#'     '#,    #''#        ,####,    ,#,          
            ##       ##  ##   ,#'  ##            #'  '#       #'       ,# #          
            ##       ##  #######   ##           ,######,      #####,      #          
            '#,     ,#'  ##    ##  '#,     ,#' ,#      #,     #,   #      #          
             '#######'   ##     ##  '#######'  #'      '#     '####' #    #          



                #########################################################
                #                        -***-                          #
                #          Department of theory and spectroscopy        #
                #                                                       #
                #                      Frank Neese                      #
                #                                                       #
                #     Directorship, Architecture, Infrastructure        #
                #                    SHARK, DRIVERS                     #
                #        Core code/Algorithms in most modules           #
                #                                                       #
                #        Max Planck Institute fuer Kohlenforschung      #
                #                Kaiser Wilhelm Platz 1                 #
                #                 D-45470 Muelheim/Ruhr                 #
                #                      Germany                          #
                #                                                       #
                #                  All rights reserved                  #
                #                        -***-                          #
                #########################################################


                         Program Version 6.1.0  -  RELEASE   -
                                (GIT: $679e74b$)
                          ($2025-06-10 18:02:51 +0200$)


 With contributions from (in alphabetic order):
[Max-Planck-Institut fuer Kohlenforschung]                               
  Daniel Aravena         : Magnetic Suceptibility                        
  Michael Atanasov       : Ab Initio Ligand Field Theory (pilot matlab implementation)
  Alexander A. Auer      : GIAO ZORA, VPT2 properties, NMR spectrum      
  Ute Becker             : All parallelization in ORCA, NUMFREQ, NUMCALC 
  Giovanni Bistoni       : ED, misc. LED, open-shell LED, HFLD           
  Dmytro Bykov           : pre 5.0 version of the SCF Hessian            
  Marcos Casanova-Páez   : Triplet and SCS-CIS(D). UHF-(DLPNO)-IP/EA/STEOM-CCSD. UHF-CVS-IP/STEOM-CCSD   
  Vijay G. Chilkuri      : MRCI spin determinant printing, contributions to CSF-ICE 
  Pauline Colinet        : FMM embedding                                 
  Dipayan Datta          : RHF DLPNO-CCSD density                        
  Achintya Kumar Dutta   : EOM-CC, STEOM-CC                              
  Nicolas Foglia         : Exact transition moments, OPA infrastructure, MCD improvements    
  Dmitry Ganyushin       : Spin-Orbit,Spin-Spin,Magnetic field MRCI      
  Miquel Garcia-Rates    : C-PCM and meta-GGA Hessian, CCSD/C-PCM, Gaussian charge scheme 
  Tiago L. C. Gouveia    : GS-ROHF, GS-ROCIS                             
  Yang Guo               : DLPNO-NEVPT2, F12-NEVPT2, CIM, IAO-localization        
  Andreas Hansen         : Spin unrestricted coupled pair/coupled cluster methods 
  Ingolf Harden          : AUTO-CI MPn and infrastructure                
  Benjamin Helmich-Paris : MC-RPA, TRAH-(SCF,CASSCF), AVAS, COSX integrals, SCF dyn. polar., MC-PDFT, srDFT 
  Lee Huntington         : MR-EOM, pCC                                   
  Robert Izsak           : Overlap fitted RIJCOSX, COSX-SCS-MP3, EOM     
  Riya Kayal             : Wick's Theorem for AUTO-CI, AUTO-CI UHF-CCSDT 
  Emily Kempfer          : AUTO-CI RHF CISDT and CCSDT, approximate NEVPT4
  Christian Kollmar      : KDIIS, OOCD, Brueckner-CCSD(T), CCSD density, CASPT2, CASPT2-K, improved NEVPT2 
  Axel Koslowski         : Symmetry handling                             
  Simone Kossmann        : meta-GGA functionals, TD-DFT gradient, OOMP2, (MP2 Hessian; deprecated post 5.0) 
  Lucas Lang             : DCDCAS, Hyperfine gauge corrections, ICE-SOC+SSC
  Marvin Lechner         : AUTO-CI (C++ implementation), FIC-MRCC        
  Spencer Leger          : CASSCF response                               
  Dagmar Lenk            : GEPOL surface, SMD, ORCA-2-JSON               
  Dimitrios Liakos       : Extrapolation schemes; Compound Job, Property file
  Dimitrios Manganas     : Further ROCIS development; embedding schemes. LFT, Crystal Embedding 
  Dimitrios Pantazis     : SARC Basis sets                               
  Anastasios Papadopoulos: AUTO-CI, single reference methods and gradients 
  Taras Petrenko         : pre 6.0 DFT Hessian and TD-DFT gradient,  ECA, NRVS 
  Petra Pikulova         : Analytic Raman intensities                    
  Peter Pinski           : DLPNO-MP2, DLPNO-MP2 Gradient                 
  Shashank Vittal Rao    : ES-AILFT, MagRelax                            
  Christoph Reimann      : Effective Core Potentials                     
  Marius Retegan         : Local ZFS, SOC                                
  Christoph Riplinger    : Optimizer, TS searches, QM/MM, DLPNO-CCSD(T), (RO)-DLPNO pert. Triples 
  Michael Roemelt        : Original ROCIS implementation, recursive CI coupling coefficients
  Masaaki Saitow         : Open-shell DLPNO-CCSD energy and density      
  Barbara Sandhoefer     : DKH picture change effects                    
  Yorick L. A. Schmerwitz: GMF and freeze-and-release deltaSCF, NEB S-IDPP initial path                    
  Kantharuban Sivalingam : CASSCF convergence/infrastructure, NEVPT2, NEVPT3, NEVPT4(SD), FIC-MRCI and CEPA variants
  Bernardo de Souza      : ESD, SOC TD-DFT                               
  Georgi L. Stoychev     : AutoAux, RI-MP2 NMR, DLPNO-MP2 response, X2C  
  Van Anh Tran           : RI-MP2 g-tensors                              
  Willem Van den Heuvel  : Paramagnetic NMR                              
  Zikuan Wang            : NOTCH, Electric field optimization            
  Frank Wennmohs         : Technical directorship and infrastructure     
  Hang Xu                : AUTO-CI-Response properties                   
                                                                         
[FACCTs GmbH]                                                            
  Markus Bursch, Nicolas Foglia, Miquel Garcia-Rates, Ingolf Harden, Hagen Neugebauer, Anastasios Papadopoulos, 
  Christoph Riplinger, Bernardo de Souza, Georgi L. Stoychev                                                    
                                                                 
  APM, various basis sets, CI-OPT, improved COSX, DLPNO-Multilevel,           
  DOCKER, DRACO, updates on ESD, Fragmentator, GOAT, IRC, LR-CPCM, L-BFGS, MBIS, meta-GGA TD-DFT gradient, ML-optimized integration grids, 
  MM, NACMEs, nearIR, NEB, NEB-TS, NL-DFT gradient (VV10), 2- and 3-layer-ONIOM, interface openCOSMO-RS, QMMM,   
  Crystal-QMMM, RESP, rigid body optimization, SF, symmetry and pop. for TD-DFT, various functionals, SOLVATOR                                   
                                                                         
[Other institutions]                                                     
  V. Asgeirsson          : NEB                                           
  Christoph Bannwarth    : sTDA-DFT, sTD-DFT, PBEh-3c, B97-3c, D3        
  Giovanni Bistoni       : ETS/NOCV, ADLD/ADEX, COVALED                  
  Martin Brehm           : Molecular dynamics                            
  Ronald Cardenas        : ETS/NOCV                                      
  Martina Colucci        : COVALED                                       
  Sebastian Ehlert       : rSCAN, r2SCAN, r2SCAN-3c, D4, dhf basis sets  
  Marvin Friede          : D4 for Fr, Ra, Ac-Lr                          
  Lars Goerigk           : TD-DFT with DH, B97 family of functionals     
  Stefan Grimme          : VdW corrections, initial TS optimization, DFT functionals, gCP, sTDA/sTD-DF 
  Waldemar Hujo          : DFT-NL                                        
  H. Jonsson             : NEB                                           
  Holger Kruse           : gCP                                           
  Marcel Mueller         : wB97X-3c, vDZP basis set                      
  Hagen Neugebauer       : wr2SCAN, Native XTB                           
  Gianluca Regni         : ADLD/ADEX                                     
  Tobias Risthaus        : pre 6.0 range-separated hybrid DFT and stability analysis
  Lukas Wittmann         : regularized MP2, r2SCAN double-hybrids, wr2SCAN        
                                                                         
We gratefully acknowledge several colleagues who have allowed us to      
interface, adapt or use parts of their codes:                            
  Ed Valeev, F. Pavosevic, A. Kumar             : LibInt (2-el integral package), F12 methods 
  Garnet Chan, S. Sharma, J. Yang, R. Olivares  : DMRG                   
  Ulf Ekstrom                                   : XCFun DFT Library      
  Mihaly Kallay                                 : mrcc  (arbitrary order and MRCC methods)
  Frank Weinhold                                : gennbo (NPA and NBO analysis)           
  Simon Mueller                                 : openCOSMO-RS                            
  Christopher J. Cramer and Donald G. Truhlar   : smd solvation model                     
  S Lehtola, MJT Oliveira, MAL Marques          : LibXC Library                           
  Liviu Ungur et al                             : ANISO software                          


 Your calculation uses the libint2 library for the computation of 2-el integrals
 For citations please refer to: http://libint.valeyev.net

 Your ORCA version has been built with support for libXC version: 7.0.0
 For citations please refer to: https://libxc.gitlab.io

 This ORCA versions uses:
   CBLAS   interface :  Fast vector & matrix operations
   LAPACKE interface :  Fast linear algebra routines
   SCALAPACK package :  Parallel linear algebra routines
   Shared memory     :  Shared parallel matrices
   BLAS/LAPACK       :  OpenBLAS 0.3.29  USE64BITINT DYNAMIC_ARCH NO_AFFINITY Haswell SINGLE_THREADED
        Core in use  :  Haswell
   Copyright (c) 2011-2014, The OpenBLAS Project


  ***********************************
  * Starting time: Thu Aug 14 12:10:17 2025
  * Host name:     CHEMLAB02
  * Process ID:    1769323
  * Working dir.:  /home/vivek/mm-project/vivek/B97-D/d/3
  ***********************************



***************************************
The coordinates will be read from file: /home/vivek/mm-project/vivek/xtb-goat/d/D_CONF/3.xyz
***************************************


Your calculation utilizes empirical dispersion correction


Warning: RI is on but no J-basis has been assigned. Assigning Def2/J (nothing to worry about!)
================================================================================

----- Orbital basis set information -----
Your calculation utilizes the basis: 6-31G**
   H-He, Li-Ne : W. J. Hehre, R. Ditchfield and J.A. Pople, J. Chem. Phys. 56, 2257 (1972).
                 Note: He and Ne are unpublished basis sets taken from the Gaussian program.
                 Note: Li and B from J. D. Dill and J. A. Pople, J. Chem. Phys. 62, 2921 (1975).
   Na - Ar     : M. M. Francl, W. J. Pietro, W. J. Hehre, J. S. Binkley, M. S. Gordon, 
                 D. J. DeFrees and J. A. Pople, J. Chem. Phys. 77, 3654 (1982).
   K - Zn      : V. A. Rassolov, J. A. Pople, M. A. Ratner, and T. L. Windus, J. Chem. Phys. 109, 1223 (1998).

----- AuxJ basis set information -----
Your calculation utilizes the auxiliary basis: def2/J
   H-Rn: F. Weigend, Phys. Chem. Chem. Phys. 8, 1057 (2006).
   Fr-Lr: K. Eichkorn, F. Weigend, O. Treutler, R. Ahlrichs; Theor. Chem. Acc. 97, 119 (1997).

================================================================================
                                        WARNINGS
                       Please study these warnings very carefully!
================================================================================


INFO   : The exchange functional is Grimme's B97(-D)
         As described in S. Grimme, J. Comput. Chem. 27, 1787 (2006).
         Note that this functional defaults to a pure GGA. 

INFO   : The correlation functional is Grimme's B97(-D)
         As described in S. Grimme, J. Comput. Chem. 27, 1787 (2006).

================================================================================
                                       INPUT FILE
================================================================================
NAME = 3.inp
|  1> ! B97-D 6-31G** 
|  2> 
|  3> * xyzfile 0 1 /home/vivek/mm-project/vivek/xtb-goat/d/D_CONF/3.xyz
|  4> 
|  5>                          ****END OF INPUT****
================================================================================

                       ****************************
                       * Single Point Calculation *
                       ****************************

---------------------------------
CARTESIAN COORDINATES (ANGSTROEM)
---------------------------------
  C     -4.165492    1.164613    1.287679
  C     -3.881167    1.151304   -0.195186
  O     -2.519305    4.051007    0.972277
  H     -4.369331    4.903987   -0.180465
  O     -5.314688    1.785738    1.571697
  C     -2.724953    2.129790   -0.492356
  H     -3.557688    0.153800   -0.491388
  H     -4.774748    1.449684   -0.739878
  C     -3.096838    3.503027    0.072833
  O     -3.448319    0.709996    2.137361
  N     -1.480654    1.609184    0.022315
  O     -4.141940    4.040586   -0.561528
  H     -0.778226    2.340865    0.049390
  H     -5.463070    1.810652    2.530999
  H     -2.634957    2.241116   -1.581382
  H     -1.608434    1.278976    0.975092

----------------------------
CARTESIAN COORDINATES (A.U.)
----------------------------
  NO LB      ZA    FRAG     MASS         X           Y           Z
   0 C     6.0000    0    12.011   -7.871639    2.200799    2.433360
   1 C     6.0000    0    12.011   -7.334343    2.175649   -0.368849
   2 O     8.0000    0    15.999   -4.760797    7.655293    1.837337
   3 H     1.0000    0     1.008   -8.256839    9.267192   -0.341029
   4 O     8.0000    0    15.999  -10.043304    3.374555    2.970076
   5 C     6.0000    0    12.011   -5.149415    4.024720   -0.930417
   6 H     1.0000    0     1.008   -6.723056    0.290639   -0.928589
   7 H     1.0000    0     1.008   -9.022965    2.739505   -1.398167
   8 C     6.0000    0    12.011   -5.852176    6.619762    0.137635
   9 O     8.0000    0    15.999   -6.516378    1.341698    4.039027
  10 N     7.0000    0    14.007   -2.798031    3.040917    0.042169
  11 O     8.0000    0    15.999   -7.827132    7.635600   -1.061134
  12 H     1.0000    0     1.008   -1.470634    4.423594    0.093333
  13 H     1.0000    0     1.008  -10.323706    3.421637    4.782894
  14 H     1.0000    0     1.008   -4.979346    4.235095   -2.988379
  15 H     1.0000    0     1.008   -3.039501    2.416915    1.842657

--------------------------------
INTERNAL COORDINATES (ANGSTROEM)
--------------------------------
 C      0   0   0     0.000000000000     0.00000000     0.00000000
 C      1   0   0     1.509936001382     0.00000000     0.00000000
 O      1   2   0     3.337765654459    79.74382303     0.00000000
 H      3   1   2     2.340722551799    88.38732379    69.98807413
 O      1   2   3     1.336829649414   112.00054785    88.46490020
 C      2   1   3     1.543559429594   108.93725180    19.37779894
 H      2   1   3     1.089673767103   109.32464132   136.93894837
 H      2   1   3     1.088211933572   109.54356583   258.79871537
 C      3   1   2     1.201176041770    55.88297322    23.21086084
 O      1   2   3     1.201238692296   125.37317391   270.24350611
 N      6   2   1     1.443674434373   110.38818394    70.38110662
 O      4   3   1     0.970761184982    71.58320131   311.25582536
 H     11   6   2     1.014640593778   110.25213802   194.86641311
 H      5   1   2     0.971029645307   110.68152655   181.99140440
 H      6   2   1     1.098395059787   108.45155352   189.27627197
 H     11   6   2     1.016439700192   110.05794521   312.96023013

---------------------------
INTERNAL COORDINATES (A.U.)
---------------------------
 C      0   0   0     0.000000000000     0.00000000     0.00000000
 C      1   0   0     2.853365522360     0.00000000     0.00000000
 O      1   2   0     6.307462986135    79.74382303     0.00000000
 H      3   1   2     4.423324578394    88.38732379    69.98807413
 O      1   2   3     2.526241925098   112.00054785    88.46490020
 C      2   1   3     2.916904593364   108.93725180    19.37779894
 H      2   1   3     2.059184995142   109.32464132   136.93894837
 H      2   1   3     2.056422530116   109.54356583   258.79871537
 C      3   1   2     2.269893757573    55.88297322    23.21086084
 O      1   2   3     2.270012149909   125.37317391   270.24350611
 N      6   2   1     2.728149307509   110.38818394    70.38110662
 O      4   3   1     1.834472781058    71.58320131   311.25582536
 H     11   6   2     1.917392846599   110.25213802   194.86641311
 H      5   1   2     1.834980097549   110.68152655   181.99140440
 H      6   2   1     2.075665849849   108.45155352   189.27627197
 H     11   6   2     1.920792665008   110.05794521   312.96023013

---------------------
BASIS SET INFORMATION
---------------------
There are 4 groups of distinct atoms

 Group   1 Type C   : 10s4p1d contracted to 3s2p1d pattern {631/31/1}
 Group   2 Type O   : 10s4p1d contracted to 3s2p1d pattern {631/31/1}
 Group   3 Type H   : 4s1p contracted to 2s1p pattern {31/1}
 Group   4 Type N   : 10s4p1d contracted to 3s2p1d pattern {631/31/1}

Atom   0C    basis set group =>   1
Atom   1C    basis set group =>   1
Atom   2O    basis set group =>   2
Atom   3H    basis set group =>   3
Atom   4O    basis set group =>   2
Atom   5C    basis set group =>   1
Atom   6H    basis set group =>   3
Atom   7H    basis set group =>   3
Atom   8C    basis set group =>   1
Atom   9O    basis set group =>   2
Atom  10N    basis set group =>   4
Atom  11O    basis set group =>   2
Atom  12H    basis set group =>   3
Atom  13H    basis set group =>   3
Atom  14H    basis set group =>   3
Atom  15H    basis set group =>   3
---------------------------------
AUXILIARY/J BASIS SET INFORMATION
---------------------------------
There are 4 groups of distinct atoms

 Group   1 Type C   : 12s5p4d2f1g contracted to 6s4p3d1f1g pattern {711111/2111/211/2/1}
 Group   2 Type O   : 12s5p4d2f1g contracted to 6s4p3d1f1g pattern {711111/2111/211/2/1}
 Group   3 Type H   : 5s2p1d contracted to 3s1p1d pattern {311/2/1}
 Group   4 Type N   : 12s5p4d2f1g contracted to 6s4p3d1f1g pattern {711111/2111/211/2/1}

Atom   0C    basis set group =>   1
Atom   1C    basis set group =>   1
Atom   2O    basis set group =>   2
Atom   3H    basis set group =>   3
Atom   4O    basis set group =>   2
Atom   5C    basis set group =>   1
Atom   6H    basis set group =>   3
Atom   7H    basis set group =>   3
Atom   8C    basis set group =>   1
Atom   9O    basis set group =>   2
Atom  10N    basis set group =>   4
Atom  11O    basis set group =>   2
Atom  12H    basis set group =>   3
Atom  13H    basis set group =>   3
Atom  14H    basis set group =>   3
Atom  15H    basis set group =>   3
------------------------------------------------------------------------------
                             ORCA STARTUP CALCULATIONS
                           -- RI-GTO INTEGRALS CHOSEN --
------------------------------------------------------------------------------
------------------------------------------------------------------------------
                   ___                                                        
                  /   \      - P O W E R E D   B Y -                         
                 /     \                                                     
                 |  |  |   _    _      __       _____    __    __             
                 |  |  |  | |  | |    /  \     |  _  \  |  |  /  |          
                  \  \/   | |  | |   /    \    | | | |  |  | /  /          
                 / \  \   | |__| |  /  /\  \   | |_| |  |  |/  /          
                |  |  |   |  __  | /  /__\  \  |    /   |      \           
                |  |  |   | |  | | |   __   |  |    \   |  |\   \          
                \     /   | |  | | |  |  |  |  | |\  \  |  | \   \       
                 \___/    |_|  |_| |__|  |__|  |_| \__\ |__|  \__/        
                                                                              
                      - O R C A' S   B I G   F R I E N D -                    
                                      &                                       
                       - I N T E G R A L  F E E D E R -                       
                                                                              
 v1 FN, 2020, v2 2021, v3 2022-2024                                           
------------------------------------------------------------------------------


----------------------
SHARK INTEGRAL PACKAGE
----------------------

Number of atoms                             ...     16
Number of basis functions                   ...    161
Number of shells                            ...     75
Maximum angular momentum                    ...      2
Integral batch strategy                     ... SHARK/LIBINT Hybrid
RI-J (if used) integral strategy            ... SPLIT-RIJ (Revised 2003 algorithm where possible)
Printlevel                                  ...      1
Contraction scheme used                     ... SEGMENTED contraction
Prescreening option                         ... SCHWARTZ
   Thresh                                   ... 1.000e-10
   Tcut                                     ... 1.000e-11
   Tpresel                                  ... 1.000e-11 
Coulomb Range Separation                    ... NOT USED
Exchange Range Separation                   ... NOT USED
Multipole approximations                    ... NOT USED
Finite Nucleus Model                        ... NOT USED
CABS basis                                  ... NOT available
Auxiliary Coulomb fitting basis             ... AVAILABLE
   # of basis functions in Aux-J            ...    518
   # of shells in Aux-J                     ...    170
   Maximum angular momentum in Aux-J        ...      4
Auxiliary J/K fitting basis                 ... NOT available
Auxiliary Correlation fitting basis         ... NOT available
Auxiliary 'external' fitting basis          ... NOT available

Checking pre-screening integrals            ... done (  0.0 sec) Dimension = 75
   => SHARK Basis and OBASIS are compatible. Storing Pre-screening
Shell pair information
Shell pair cut-off parameter TPreSel        ...   1.0e-11
Total number of shell pairs                 ...      2850
Shell pairs after pre-screening             ...      2650
Total number of primitive shell pairs       ...     14745
Primitive shell pairs kept                  ...      8958
          la=0 lb=0:    782 shell pairs
          la=1 lb=0:    947 shell pairs
          la=1 lb=1:    304 shell pairs
          la=2 lb=0:    351 shell pairs
          la=2 lb=1:    221 shell pairs
          la=2 lb=2:     45 shell pairs

Checking whether 4 symmetric matrices of dimension 161 fit in memory
:Max Core in MB      =   4096.00
 MB in use           =      7.04
 MB left             =   4088.96
 MB needed           =      0.40
 Data fit in memory  = YES
Calculating RI/J V-Matrix + Cholesky decomp.... done (  0.0 sec)
Calculating Nuclear repulsion               ... done (  0.0 sec) ENN=    485.791903544724 Eh

Diagonalization of the overlap matrix:
Smallest eigenvalue                        ... 3.073e-03
Time for diagonalization                   ...    0.001 sec
Threshold for overlap eigenvalues          ... 1.000e-07
Number of eigenvalues below threshold      ... 0
Time for construction of square roots      ...    0.000 sec
Total time needed                          ...    0.002 sec

-------------------
DFT GRID GENERATION
-------------------

General Integration Accuracy     IntAcc      ... 4.388
Radial Grid Type                 RadialGrid  ... OptM3 with GC (2021)
Angular Grid (max. ang.)         AngularGrid ... 4 (Lebedev-302)
Angular grid pruning method      GridPruning ... 4 (adaptive)
Weight generation scheme         WeightScheme... mBecke (2022)
Basis function cutoff            BFCut       ... 1.0000e-10
Integration weight cutoff        WCut        ... 1.0000e-14
Partially contracted basis set               ... off
Rotationally invariant grid construction     ... off
Angular grids for H and He will be reduced by one unit

Total number of grid points                  ...    76915
Total number of batches                      ...     1210
Average number of points per batch           ...       63
Average number of grid points per atom       ...     4807
Grids setup in   0.3 sec
Initializing property integral containers    ... done (  0.0 sec)

SHARK setup successfully completed in   0.4 seconds

Maximum memory used throughout the entire STARTUP-calculation: 32.4 MB
-------------------------------------------------------------------------------
                                 ORCA GUESS
                   Start orbitals & Density for SCF / CASSCF
-------------------------------------------------------------------------------

------------
SCF SETTINGS
------------
Hamiltonian:
 Density Functional     Method          .... DFT(GTOs)
 Exchange Functional    Exchange        .... B97(D)
 Correlation Functional Correlation     .... B97(D)
 Gradients option       PostSCFGGA      .... off
 RI-approximation to the Coulomb term is turned on
   Number of AuxJ basis functions       .... 518


General Settings:
 Integral files         IntName         .... 3
 Hartree-Fock type      HFTyp           .... RHF
 Total Charge           Charge          ....    0
 Multiplicity           Mult            ....    1
 Number of Electrons    NEL             ....   70
 Basis Dimension        Dim             ....  161
 Nuclear Repulsion      ENuc            ....    485.7919035447 Eh

Convergence Acceleration:
 AO-DIIS                CNVDIIS         .... on
   Start iteration      DIISMaxIt       ....    12
   Startup error        DIISStart       ....  0.200000
   # of expansion vecs  DIISMaxEq       ....     5
   Bias factor          DIISBfac        ....   1.050
   Max. coefficient     DIISMaxC        ....  10.000
 MO-DIIS                CNVKDIIS        .... off
 Trust-Rad. Augm. Hess. CNVTRAH         .... auto
   Auto Start mean grad. ratio tolernc. ....  1.125000
   Auto Start start iteration           ....    50
   Auto Start num. interpolation iter.  ....    10
   Max. Number of Micro iterations      ....    24
   Max. Number of Macro iterations      .... Maxiter - #DIIS iter
   Number of Davidson start vectors     ....     2
   Converg. threshold    (grad. norm)   ....   5.000e-05
   Grad. Scal. Fac. for Micro threshold ....   0.100
   Minimum threshold for Micro iter.    ....   1.000e-02
   NR start threshold (gradient norm)   ....   1.000e-04
   Initial trust radius                 ....   0.400
   Minimum AH scaling param. (alpha)    ....   1.000
   Maximum AH scaling param. (alpha)    .... 1000.000
   Quad. conv. algorithm                .... NR
   White noise on init. David. guess    .... on
   Maximum white noise                  ....   0.010
   Pseudo random numbers                .... off
   Inactive MOs                         .... canonical
   Orbital update algorithm             .... Taylor
   Preconditioner                       .... Diag
   Full preconditioner red. dimension   ....   250
 SOSCF                 CNVSOSCF           .... on
   Start iteration     SOSCFMaxIt         ....   150
   Startup grad/error  SOSCFStart         ....  0.003300
   Hessian update      SOSCFHessUp        .... L-BFGS
   Autom. constraints  SOSCFAutoConstrain .... off
 Level Shifting         CNVShift        .... on
   Level shift para.    LevelShift      ....    0.2500
   Turn off err/grad.   ShiftErr        ....    0.0010
 Zerner damping         CNVZerner       .... off
 Static damping         CNVDamp         .... on
   Fraction old density DampFac         ....    0.7000
   Max. Damping (<1)    DampMax         ....    0.9800
   Min. Damping (>=0)   DampMin         ....    0.0000
   Turn off err/grad.   DampErr         ....    0.1000

SCF Procedure:
 Maximum # iterations   MaxIter         ....   125
 SCF integral mode      SCFMode         .... Direct
   Integral package                     .... SHARK and LIBINT hybrid scheme
 Reset frequency        DirectResetFreq ....    20
 Integral Threshold     Thresh          ....  1.000e-10 Eh
 Primitive CutOff       TCut            ....  1.000e-11 Eh

Convergence Tolerance:
 Convergence Check Mode ConvCheckMode   .... Total+1el-Energy
 Convergence forced     ConvForced      .... 0
 Energy Change          TolE            ....  1.000e-06 Eh
 1-El. energy change                    ....  1.000e-03 Eh
 Orbital Gradient       TolG            ....  5.000e-05
 Orbital Rotation angle TolX            ....  5.000e-05
 DIIS Error             TolErr          ....  1.000e-06

------------------------------
INITIAL GUESS: MODEL POTENTIAL
------------------------------
Loading Hartree-Fock densities                     ... done
Calculating cut-offs                               ... done
Initializing the effective Hamiltonian             ... done
Setting up the integral package (SHARK)            ... done
Starting the Coulomb interaction                   ... done (   0.0 sec)
Making the grid                                    ... done (   0.1 sec)
Mapping shells                                     ... done
Starting the XC term evaluation                    ... done (   0.1 sec)
  promolecular density results
     # of electrons  =     69.998679956
     EX              =    -61.071366955
     EC              =     -3.177552979
     EX+EC           =    -64.248919935
Transforming the Hamiltonian                       ... done (   0.0 sec)
Diagonalizing the Hamiltonian                      ... done (   0.0 sec)
Back transforming the eigenvectors                 ... done (   0.0 sec)
Now organizing SCF variables                       ... done
                      ------------------
                      INITIAL GUESS DONE (   0.2 sec)
                      ------------------
             **** ENERGY FILE WAS UPDATED (3.en.tmp) ****
Finished Guess after   0.2 sec
Maximum memory used throughout the entire GUESS-calculation: 11.7 MB

-------------------------------------------------------------------------------------------
                                      ORCA LEAN-SCF
                              memory conserving SCF solver
-------------------------------------------------------------------------------------------

----------------------------------------D-I-I-S--------------------------------------------
Iteration    Energy (Eh)           Delta-E    RMSDP     MaxDP     DIISErr   Damp  Time(sec)
-------------------------------------------------------------------------------------------
               ***  Starting incremental Fock matrix formation  ***
    1    -511.6077853946010237     0.00e+00  4.57e-03  1.05e-01  2.56e-01  0.700   0.4
    2    -511.7960243584121827    -1.88e-01  2.64e-03  5.36e-02  9.53e-02  0.700   0.4
                               ***Turning on AO-DIIS***
    3    -511.8479650978263180    -5.19e-02  9.39e-04  1.47e-02  3.33e-02  0.700   0.4
    4    -511.8849967908714689    -3.70e-02  1.25e-03  2.00e-02  1.56e-02  0.000   0.4
    5    -511.9725150301081840    -8.75e-02  4.52e-04  7.61e-03  1.28e-02  0.000   0.4
    6    -511.9733902740352960    -8.75e-04  1.61e-04  2.41e-03  3.78e-03  0.000   0.4
                              *** Initializing SOSCF ***
---------------------------------------S-O-S-C-F--------------------------------------
Iteration    Energy (Eh)           Delta-E    RMSDP     MaxDP     MaxGrad    Time(sec)
--------------------------------------------------------------------------------------
    7    -511.9734595615850594    -6.93e-05  6.01e-05  9.70e-04  9.88e-04     0.3
               *** Restarting incremental Fock matrix formation ***
    8    -511.9734699338957853    -1.04e-05  3.87e-05  6.99e-04  1.02e-04     0.4
    9    -511.9734702817444258    -3.48e-07  1.90e-05  2.73e-04  1.85e-04     0.3
                 **** Energy Check signals convergence ****

               *****************************************************
               *                     SUCCESS                       *
               *           SCF CONVERGED AFTER   9 CYCLES          *
               *****************************************************

             **** ENERGY FILE WAS UPDATED (3.en.tmp) ****

----------------
TOTAL SCF ENERGY
----------------

Total Energy       :       -511.97347056987178 Eh          -13931.50640 eV

Components:
Nuclear Repulsion  :        485.79190354472439 Eh           13219.06974 eV
Electronic Energy  :       -997.76537411459617 Eh          -27150.57614 eV
One Electron Energy:      -1664.69776947227592 Eh          -45298.72925 eV
Two Electron Energy:        666.93239535767975 Eh           18148.15311 eV

Virial components:
Potential Energy   :      -1021.40638841206976 Eh          -27793.88084 eV
Kinetic Energy     :        509.43291784219798 Eh           13862.37444 eV
Virial Ratio       :          2.00498702113408

DFT components:
N(Alpha)           :       34.999984030983 electrons
N(Beta)            :       34.999984030983 electrons
N(Total)           :       69.999968061965 electrons
E(X)               :      -62.259412923196 Eh       
E(C)               :       -3.164466045533 Eh       
E(XC)              :      -65.423878968729 Eh       

---------------
SCF CONVERGENCE
---------------

  Last Energy change         ...    3.4785e-07  Tolerance :   1.0000e-06
  Last MAX-Density change    ...    2.7276e-04  Tolerance :   1.0000e-05
  Last RMS-Density change    ...    1.9042e-05  Tolerance :   1.0000e-06
  Last DIIS Error            ...    9.8801e-04  Tolerance :   1.0000e-06
  Last Orbital Gradient      ...    1.8473e-04  Tolerance :   5.0000e-05
  Last Orbital Rotation      ...    3.7360e-04  Tolerance :   5.0000e-05


----------------
ORBITAL ENERGIES
----------------

  NO   OCC          E(Eh)            E(eV) 
   0   2.0000     -18.821996      -512.1725 
   1   2.0000     -18.818603      -512.0802 
   2   2.0000     -18.760810      -510.5076 
   3   2.0000     -18.758188      -510.4362 
   4   2.0000     -13.981874      -380.4661 
   5   2.0000     -10.041674      -273.2478 
   6   2.0000     -10.032074      -272.9866 
   7   2.0000      -9.960380      -271.0357 
   8   2.0000      -9.930961      -270.2352 
   9   2.0000      -1.030382       -28.0381 
  10   2.0000      -1.025171       -27.8963 
  11   2.0000      -0.940734       -25.5987 
  12   2.0000      -0.936983       -25.4966 
  13   2.0000      -0.817748       -22.2521 
  14   2.0000      -0.710965       -19.3463 
  15   2.0000      -0.634698       -17.2710 
  16   2.0000      -0.577272       -15.7084 
  17   2.0000      -0.535402       -14.5690 
  18   2.0000      -0.470529       -12.8037 
  19   2.0000      -0.449290       -12.2258 
  20   2.0000      -0.441413       -12.0115 
  21   2.0000      -0.422959       -11.5093 
  22   2.0000      -0.416974       -11.3465 
  23   2.0000      -0.403958       -10.9923 
  24   2.0000      -0.387675       -10.5492 
  25   2.0000      -0.371434       -10.1072 
  26   2.0000      -0.353163        -9.6101 
  27   2.0000      -0.348363        -9.4794 
  28   2.0000      -0.331263        -9.0141 
  29   2.0000      -0.322463        -8.7747 
  30   2.0000      -0.282673        -7.6919 
  31   2.0000      -0.277921        -7.5626 
  32   2.0000      -0.232032        -6.3139 
  33   2.0000      -0.227826        -6.1995 
  34   2.0000      -0.193188        -5.2569 
  35   0.0000      -0.028792        -0.7835 
  36   0.0000      -0.021075        -0.5735 
  37   0.0000       0.044828         1.2198 
  38   0.0000       0.054159         1.4737 
  39   0.0000       0.084523         2.3000 
  40   0.0000       0.116610         3.1731 
  41   0.0000       0.129033         3.5112 
  42   0.0000       0.143082         3.8935 
  43   0.0000       0.157888         4.2964 
  44   0.0000       0.167563         4.5596 
  45   0.0000       0.194240         5.2855 
*Only the first 10 virtual orbitals were printed.

                    ********************************
                    * MULLIKEN POPULATION ANALYSIS *
                    ********************************

-----------------------
MULLIKEN ATOMIC CHARGES
-----------------------
   0 C :    0.497578
   1 C :   -0.251611
   2 O :   -0.412692
   3 H :    0.320209
   4 O :   -0.449582
   5 C :   -0.052512
   6 H :    0.161007
   7 H :    0.147658
   8 C :    0.492557
   9 O :   -0.408559
  10 N :   -0.565987
  11 O :   -0.451028
  12 H :    0.247024
  13 H :    0.321544
  14 H :    0.139314
  15 H :    0.265079
Sum of atomic charges:   -0.0000000

--------------------------------
MULLIKEN REDUCED ORBITAL CHARGES
--------------------------------
  0 C s       :     2.990980  s :     2.990980
      pz      :     0.891906  p :     2.384339
      px      :     0.721496
      py      :     0.770936
      dz2     :     0.037728  d :     0.127104
      dxz     :     0.026110
      dyz     :     0.015980
      dx2y2   :     0.023761
      dxy     :     0.023524

  1 C s       :     3.245765  s :     3.245765
      pz      :     0.931178  p :     2.972491
      px      :     1.007881
      py      :     1.033432
      dz2     :     0.009737  d :     0.033355
      dxz     :     0.006592
      dyz     :     0.003989
      dx2y2   :     0.006728
      dxy     :     0.006309

  2 O s       :     3.859805  s :     3.859805
      pz      :     1.378026  p :     4.524498
      px      :     1.538543
      py      :     1.607928
      dz2     :     0.009112  d :     0.028389
      dxz     :     0.006005
      dyz     :     0.005652
      dx2y2   :     0.003298
      dxy     :     0.004321

  3 H s       :     0.641793  s :     0.641793
      pz      :     0.010394  p :     0.037998
      px      :     0.008689
      py      :     0.018915

  4 O s       :     3.824141  s :     3.824141
      pz      :     1.401704  p :     4.602554
      px      :     1.509977
      py      :     1.690874
      dz2     :     0.008568  d :     0.022887
      dxz     :     0.002689
      dyz     :     0.001081
      dx2y2   :     0.005222
      dxy     :     0.005325

  5 C s       :     3.204983  s :     3.204983
      pz      :     1.035540  p :     2.789134
      px      :     0.847444
      py      :     0.906149
      dz2     :     0.014607  d :     0.058395
      dxz     :     0.009388
      dyz     :     0.006276
      dx2y2   :     0.012693
      dxy     :     0.015431

  6 H s       :     0.827278  s :     0.827278
      pz      :     0.002640  p :     0.011715
      px      :     0.002929
      py      :     0.006146

  7 H s       :     0.840800  s :     0.840800
      pz      :     0.003380  p :     0.011542
      px      :     0.005414
      py      :     0.002748

  8 C s       :     2.986158  s :     2.986158
      pz      :     0.772123  p :     2.396217
      px      :     0.744720
      py      :     0.879375
      dz2     :     0.024563  d :     0.125068
      dxz     :     0.026400
      dyz     :     0.025897
      dx2y2   :     0.028083
      dxy     :     0.020125

  9 O s       :     3.863721  s :     3.863721
      pz      :     1.550446  p :     4.516704
      px      :     1.524232
      py      :     1.442026
      dz2     :     0.006102  d :     0.028134
      dxz     :     0.006907
      dyz     :     0.006016
      dx2y2   :     0.004964
      dxy     :     0.004145

 10 N s       :     3.581877  s :     3.581877
      pz      :     1.350890  p :     3.956448
      px      :     1.129914
      py      :     1.475643
      dz2     :     0.010496  d :     0.027662
      dxz     :     0.002564
      dyz     :     0.001823
      dx2y2   :     0.003283
      dxy     :     0.009496

 11 O s       :     3.824512  s :     3.824512
      pz      :     1.680120  p :     4.603821
      px      :     1.525522
      py      :     1.398178
      dz2     :     0.003956  d :     0.022695
      dxz     :     0.005461
      dyz     :     0.004929
      dx2y2   :     0.005799
      dxy     :     0.002551

 12 H s       :     0.729041  s :     0.729041
      pz      :     0.005895  p :     0.023935
      px      :     0.008678
      py      :     0.009361

 13 H s       :     0.640669  s :     0.640669
      pz      :     0.021341  p :     0.037787
      px      :     0.007766
      py      :     0.008680

 14 H s       :     0.849719  s :     0.849719
      pz      :     0.006640  p :     0.010966
      px      :     0.001891
      py      :     0.002435

 15 H s       :     0.710112  s :     0.710112
      pz      :     0.012062  p :     0.024809
      px      :     0.004823
      py      :     0.007924



                     *******************************
                     * LOEWDIN POPULATION ANALYSIS *
                     *******************************

----------------------
LOEWDIN ATOMIC CHARGES
----------------------
   0 C :    0.116935
   1 C :   -0.136103
   2 O :   -0.213041
   3 H :    0.183354
   4 O :   -0.132149
   5 C :   -0.039229
   6 H :    0.100824
   7 H :    0.092785
   8 C :    0.094244
   9 O :   -0.214366
  10 N :   -0.248799
  11 O :   -0.137173
  12 H :    0.129285
  13 H :    0.184441
  14 H :    0.087002
  15 H :    0.131989

-------------------------------
LOEWDIN REDUCED ORBITAL CHARGES
-------------------------------
  0 C s       :     2.847080  s :     2.847080
      pz      :     1.025316  p :     2.735360
      px      :     0.886520
      py      :     0.823525
      dz2     :     0.092094  d :     0.300624
      dxz     :     0.061295
      dyz     :     0.034332
      dx2y2   :     0.053524
      dxy     :     0.059379

  1 C s       :     2.909310  s :     2.909310
      pz      :     1.027021  p :     3.151045
      px      :     1.057568
      py      :     1.066456
      dz2     :     0.024836  d :     0.075748
      dxz     :     0.014504
      dyz     :     0.008327
      dx2y2   :     0.013409
      dxy     :     0.014672

  2 O s       :     3.553383  s :     3.553383
      pz      :     1.434378  p :     4.601097
      px      :     1.548619
      py      :     1.618100
      dz2     :     0.014354  d :     0.058560
      dxz     :     0.014883
      dyz     :     0.014596
      dx2y2   :     0.006462
      dxy     :     0.008265

  3 H s       :     0.700898  s :     0.700898
      pz      :     0.031392  p :     0.115748
      px      :     0.024426
      py      :     0.059929

  4 O s       :     3.471381  s :     3.471381
      pz      :     1.408728  p :     4.609995
      px      :     1.527935
      py      :     1.673333
      dz2     :     0.018437  d :     0.050773
      dxz     :     0.007941
      dyz     :     0.002293
      dx2y2   :     0.009925
      dxy     :     0.012177

  5 C s       :     2.881444  s :     2.881444
      pz      :     1.055795  p :     3.025424
      px      :     0.964294
      py      :     1.005335
      dz2     :     0.032286  d :     0.132361
      dxz     :     0.020307
      dyz     :     0.014333
      dx2y2   :     0.029119
      dxy     :     0.036316

  6 H s       :     0.857830  s :     0.857830
      pz      :     0.008152  p :     0.041347
      px      :     0.009099
      py      :     0.024095

  7 H s       :     0.865346  s :     0.865346
      pz      :     0.012374  p :     0.041869
      px      :     0.020744
      py      :     0.008750

  8 C s       :     2.859476  s :     2.859476
      pz      :     0.912493  p :     2.746586
      px      :     0.866519
      py      :     0.967574
      dz2     :     0.053609  d :     0.299694
      dxz     :     0.069164
      dyz     :     0.062746
      dx2y2   :     0.068079
      dxy     :     0.046097

  9 O s       :     3.552914  s :     3.552914
      pz      :     1.602857  p :     4.603078
      px      :     1.554803
      py      :     1.445417
      dz2     :     0.012687  d :     0.058375
      dxz     :     0.017618
      dyz     :     0.011470
      dx2y2   :     0.007847
      dxy     :     0.008753

 10 N s       :     3.187089  s :     3.187089
      pz      :     1.357002  p :     4.004923
      px      :     1.181421
      py      :     1.466500
      dz2     :     0.018494  d :     0.056787
      dxz     :     0.006936
      dyz     :     0.003889
      dx2y2   :     0.007772
      dxy     :     0.019695

 11 O s       :     3.468305  s :     3.468305
      pz      :     1.673037  p :     4.617697
      px      :     1.541404
      py      :     1.403256
      dz2     :     0.006763  d :     0.051171
      dxz     :     0.011797
      dyz     :     0.009462
      dx2y2   :     0.013150
      dxy     :     0.010000

 12 H s       :     0.791275  s :     0.791275
      pz      :     0.016127  p :     0.079440
      px      :     0.029542
      py      :     0.033771

 13 H s       :     0.700347  s :     0.700347
      pz      :     0.068947  p :     0.115212
      px      :     0.021861
      py      :     0.024404

 14 H s       :     0.873752  s :     0.873752
      pz      :     0.026386  p :     0.039246
      px      :     0.005923
      py      :     0.006937

 15 H s       :     0.785021  s :     0.785021
      pz      :     0.046124  p :     0.082989
      px      :     0.013104
      py      :     0.023761



                      *****************************
                      * MAYER POPULATION ANALYSIS *
                      *****************************

  NA   - Mulliken gross atomic population
  ZA   - Total nuclear charge
  QA   - Mulliken gross atomic charge
  VA   - Mayer's total valence
  BVA  - Mayer's bonded valence
  FA   - Mayer's free valence

  ATOM       NA         ZA         QA         VA         BVA        FA
  0 C      5.5024     6.0000     0.4976     3.9913     3.9913    -0.0000
  1 C      6.2516     6.0000    -0.2516     3.8105     3.8105    -0.0000
  2 O      8.4127     8.0000    -0.4127     2.1184     2.1184    -0.0000
  3 H      0.6798     1.0000     0.3202     0.9158     0.9158     0.0000
  4 O      8.4496     8.0000    -0.4496     2.0597     2.0597    -0.0000
  5 C      6.0525     6.0000    -0.0525     3.8969     3.8969    -0.0000
  6 H      0.8390     1.0000     0.1610     0.9508     0.9508     0.0000
  7 H      0.8523     1.0000     0.1477     0.9542     0.9542    -0.0000
  8 C      5.5074     6.0000     0.4926     3.9436     3.9436    -0.0000
  9 O      8.4086     8.0000    -0.4086     2.1036     2.1036    -0.0000
 10 N      7.5660     7.0000    -0.5660     2.8962     2.8962    -0.0000
 11 O      8.4510     8.0000    -0.4510     2.0331     2.0331    -0.0000
 12 H      0.7530     1.0000     0.2470     0.9272     0.9272     0.0000
 13 H      0.6785     1.0000     0.3215     0.9143     0.9143    -0.0000
 14 H      0.8607     1.0000     0.1393     0.9430     0.9430     0.0000
 15 H      0.7349     1.0000     0.2651     0.9364     0.9364     0.0000

  Mayer bond orders larger than 0.100000
B(  0-C ,  1-C ) :   0.9508 B(  0-C ,  4-O ) :   1.0997 B(  0-C ,  9-O ) :   1.8910 
B(  1-C ,  5-C ) :   0.9698 B(  1-C ,  6-H ) :   0.9290 B(  1-C ,  7-H ) :   0.9266 
B(  2-O ,  8-C ) :   1.9281 B(  3-H , 11-O ) :   0.8506 B(  4-O , 13-H ) :   0.8516 
B(  5-C ,  8-C ) :   0.8825 B(  5-C , 10-N ) :   1.0729 B(  5-C , 14-H ) :   0.9211 
B(  8-C , 11-O ) :   1.0810 B( 10-N , 12-H ) :   0.9034 B( 10-N , 15-H ) :   0.8740 


-------
TIMINGS
-------

Total SCF time: 0 days 0 hours 0 min 3 sec 

Total time                  ....       3.619 sec
Sum of individual times     ....       3.301 sec  ( 91.2%)

SCF preparation             ....       0.025 sec  (  0.7%)
Fock matrix formation       ....       3.240 sec  ( 89.5%)
  Startup                   ....       0.001 sec  (  0.0% of F)
  Split-RI-J                ....       1.138 sec  ( 35.1% of F)
  XC integration            ....       2.410 sec  ( 74.4% of F)
    XC Preparation          ....       0.000 sec  (  0.0% of XC)
    Basis function eval.    ....       0.809 sec  ( 33.6% of XC)
    Density eval.           ....       0.523 sec  ( 21.7% of XC)
    XC-Functional eval.     ....       0.440 sec  ( 18.3% of XC)
    XC-Potential eval.      ....       0.573 sec  ( 23.8% of XC)
Diagonalization             ....       0.000 sec  (  0.0%)
Density matrix formation    ....       0.003 sec  (  0.1%)
Total Energy calculation    ....       0.000 sec  (  0.0%)
Population analysis         ....       0.002 sec  (  0.1%)
Orbital Transformation      ....       0.004 sec  (  0.1%)
Orbital Orthonormalization  ....       0.000 sec  (  0.0%)
DIIS solution               ....       0.021 sec  (  0.6%)
SOSCF solution              ....       0.005 sec  (  0.1%)
Finished LeanSCF after   3.6 sec

Maximum memory used throughout the entire LEANSCF-calculation: 17.4 MB



-------------------------------------------------------------------------------
                          DFT DISPERSION CORRECTION                            
-------------------------------------------------------------------------------
Active option DFTDOPT                   ...         2   
Final C6-coefficient scaling factor     ...     1.250
Final VDW-radii scaling factor          ...     1.100
Damping factor alpha                    ...    20.000
-------------------------   ----------------
Dispersion correction           -0.020701599
-------------------------   ----------------


-------------------------   --------------------
FINAL SINGLE POINT ENERGY      -511.994172169350
-------------------------   --------------------


------------------------------------------------------------------------------
                              ORCA PROPERTY CALCULATIONS
------------------------------------------------------------------------------

GBWName                                 ... 3.gbw
Number of atoms                         ...     16
Number of basis functions               ...    161
Max core memory                         ...   4096 MB

Electric properties:
Dipole moment                           ... YES
Quadrupole moment                       ...  NO
Static polarizability (Dipole/Dipole)   ...  NO
Static polarizability (Dipole/Quad.)    ...  NO
Static polarizability (Quad./Quad.)     ...  NO
Static polarizability (Velocity)        ...  NO
Static hyperpolarizability              ...  NO

Atomic electric properties:
Dipole moment                           ...  NO
Quadrupole moment                       ...  NO
Static polarizability                   ...  NO

Choice of electric origin               ... Center of mass
Position of electric origin             ...    -6.494747     4.283253     1.063039

General magnetic properties:
Magnetizability                         ...  NO

EPR properties:
g-Tensor (aka g-matrix)                 ...  NO
Zero-Field splitting spin-orbit         ...  NO
Zero-field splitting spin-spin          ...  NO
Hyperfine couplings                     ...  NO (   0 nuclei)
Quadrupole couplings                    ...  NO (   0 nuclei)
Contact density                         ...  NO (   0 nuclei)

NMR properties:
Chemical shifts                         ...  NO (   0 nuclei)
Spin-rotation constants                 ...  NO (   0 nuclei)
Spin-spin couplings                     ...  NO (   0 nuclei,    0 pairs)

Choice of magnetic origin               ... GIAO
Position of magnetic origin             ...     0.000000     0.000000     0.000000

Properties with geometric perturbations:
SCF Hessian                             ...  NO
IR spectrum                             ...  NO
VCD spectrum                            ...  NO
X-ray spectroscopy properties:
SCF XES/XAS/RIXS spectra                ...  NO

SCF SOC stabilization energy            ...  NO
Diagonal Born-Oppenheimer correction    ...  NO

-------------
DIPOLE MOMENT
-------------

Method             : SCF
Type of density    : Electron Density
Multiplicity       :   1
Irrep              :   0
Energy             :  -511.9734705698717789 Eh
Basis              : AO
                                X                 Y                 Z
Electronic contribution:     -1.769287953       2.062891734       2.803047661
Nuclear contribution   :      0.803737933      -1.563941088      -3.142030976
                        -----------------------------------------
Total Dipole Moment    :     -0.965550021       0.498950646      -0.338983315
                        -----------------------------------------
Magnitude (a.u.)       :      1.138485080
Magnitude (Debye)      :      2.893799099



--------------------
Rotational spectrum 
--------------------
 
Rotational constants in cm-1:             0.070956             0.049303             0.039762 
Rotational constants in MHz :          2127.220213          1478.056709          1192.035734 

Dipole components along the rotational axes: 
x,y,z [a.u.] :     0.186963    -1.037385    -0.430146 
x,y,z [Debye]:     0.475222    -2.636823    -1.093344 

 

Dipole moment calculation done in   0.0 sec 

Maximum memory used throughout the entire PROP-calculation: 10.0 MB

--------------------------------
SUGGESTED CITATIONS FOR THIS RUN
--------------------------------

Below you find a list of papers that are relevant to this ORCA run
We neither can nor want to force you to cite these papers, but we appreciate if you do
You receive ORCA, which is the product of decades of hard work by many enthusiastic individuals, for free
The only thing we kindly ask in return is that you cite our papers,
We deeply appreciate it, if you show your appreciation for ORCA by not just citing the generic ORCA reference.

Please note that relegating all ORCA citations to the supporting information does *not* help us.
SI sections are not indexed - citations you put there will not count into any citation statistics
But we need these citations in order to attract the funding resources that allow us to do what we are doing

Therefore, if you are a happy ORCA user, please consider citing a few of the papers listed below in the main body of your paper

In addition to the list printed below, the program has created the file 3.bibtex that contains the list in bibtex format
You can import this file easily into all common literature databanks and citation aid programs


List of essential papers. We consider these as the minimum necessary citations

  1. Neese, F.
     Software update: the ORCA program system, version 6.0
     WIRES Comput. Molec. Sci. 2025 15(1), e70019
     doi.org/10.1002/wcms.7019

List of papers to cite with high priority. The work reported in these papers was absolutely
necessary for this run to complete.
Our perspective: the developers of density functionals and basis sets usually get cited in chemistry papers
Good! But without the algorithms to do something with them, the functionals or basis sets would not do anything.
Hence, in our opinion, the algorithm design and method developments papers are equally worthy of getting cited

  1. Neese, F.
     An improvement of the resolution of the identity approximation for the formation of the Coulomb matrix
     J. Comp. Chem. 2003 24(14), 1740-1747
     doi.org/10.1002/jcc.10318
  2. Grimme, S.
     Semiempirical GGA-type density functional constructed with a long-range dispersion correction
     J.Comput.Chem. 2006 27(15), 1787-1799
     doi.org/10.1002/jcc.20495
  3. Neese, F.
     The SHARK Integral Generation and Digestion System
     J. Comp. Chem. 2022 44(3), 381
     doi.org/10.1002/jcc.26942

List of suggested additional citations. These are papers that are important in the 'surrounding' of 
of this run, or papers that preceded the highly important papers. If you like your results we are grateful for a citation.

  1. Neese, F.
     The ORCA program system
     WIRES Comput. Molec. Sci. 2012 2(1), 73-78
     doi.org/10.1002/wcms.81
  2. Neese, F.
     Software update: the ORCA program system, version 4.0
     WIRES Comput. Molec. Sci. 2018 8(1), 1-6
     doi.org/10.1002/wcms.1327
  3. Neese, F.; Wennmohs, F.; Becker, U.; Riplinger, C.
     The ORCA quantum chemistry program package
     J. Chem. Phys. 2020 152(22), 224108
     doi.org/10.1063/5.0004608
  4. Neese, F.
     Software update: The ORCA program system—Version 5.0
     WIRES Comput. Molec. Sci. 2022 12(1), e1606
     doi.org/10.1002/wcms.1606

List of optional additional citations

  1. Neese, F.
     Approximate second-order SCF convergence for spin unrestricted wavefunctions
     Chem. Phys. Lett. 2000 325(1-3), 93-98
     doi.org/10.1016/s0009-2614(00)00662-x

Timings for individual modules:

Sum of individual times          ...        4.266 sec (=   0.071 min)
Startup calculation              ...        0.367 sec (=   0.006 min)   8.6 %
SCF iterations                   ...        3.868 sec (=   0.064 min)  90.7 %
Property calculations            ...        0.031 sec (=   0.001 min)   0.7 %
                             ****ORCA TERMINATED NORMALLY****
TOTAL RUN TIME: 0 days 0 hours 0 minutes 4 seconds 307 msec
