
                                 *****************
                                 * O   R   C   A *
                                 *****************

                                            #,                                       
                                            ###                                      
                                            ####                                     
                                            #####                                    
                                            ######                                   
                                           ########,                                 
                                     ,,################,,,,,                         
                               ,,#################################,,                 
                          ,,##########################################,,             
                       ,#########################################, ''#####,          
                    ,#############################################,,   '####,        
                  ,##################################################,,,,####,       
                ,###########''''           ''''###############################       
              ,#####''   ,,,,##########,,,,          '''####'''          '####       
            ,##' ,,,,###########################,,,                        '##       
           ' ,,###''''                  '''############,,,                           
         ,,##''                                '''############,,,,        ,,,,,,###''
      ,#''                                            '''#######################'''  
     '                                                          ''''####''''         
             ,#######,   #######,   ,#######,      ##                                
            ,#'     '#,  ##    ##  ,#'     '#,    #''#        ,####,    ,#,          
            ##       ##  ##   ,#'  ##            #'  '#       #'       ,# #          
            ##       ##  #######   ##           ,######,      #####,      #          
            '#,     ,#'  ##    ##  '#,     ,#' ,#      #,     #,   #      #          
             '#######'   ##     ##  '#######'  #'      '#     '####' #    #          



                #########################################################
                #                        -***-                          #
                #          Department of theory and spectroscopy        #
                #                                                       #
                #                      Frank Neese                      #
                #                                                       #
                #     Directorship, Architecture, Infrastructure        #
                #                    SHARK, DRIVERS                     #
                #        Core code/Algorithms in most modules           #
                #                                                       #
                #        Max Planck Institute fuer Kohlenforschung      #
                #                Kaiser Wilhelm Platz 1                 #
                #                 D-45470 Muelheim/Ruhr                 #
                #                      Germany                          #
                #                                                       #
                #                  All rights reserved                  #
                #                        -***-                          #
                #########################################################


                         Program Version 6.1.0  -  RELEASE   -
                                (GIT: $679e74b$)
                          ($2025-06-10 18:02:51 +0200$)


 With contributions from (in alphabetic order):
[Max-Planck-Institut fuer Kohlenforschung]                               
  Daniel Aravena         : Magnetic Suceptibility                        
  Michael Atanasov       : Ab Initio Ligand Field Theory (pilot matlab implementation)
  Alexander A. Auer      : GIAO ZORA, VPT2 properties, NMR spectrum      
  Ute Becker             : All parallelization in ORCA, NUMFREQ, NUMCALC 
  Giovanni Bistoni       : ED, misc. LED, open-shell LED, HFLD           
  Dmytro Bykov           : pre 5.0 version of the SCF Hessian            
  Marcos Casanova-Páez   : Triplet and SCS-CIS(D). UHF-(DLPNO)-IP/EA/STEOM-CCSD. UHF-CVS-IP/STEOM-CCSD   
  Vijay G. Chilkuri      : MRCI spin determinant printing, contributions to CSF-ICE 
  Pauline Colinet        : FMM embedding                                 
  Dipayan Datta          : RHF DLPNO-CCSD density                        
  Achintya Kumar Dutta   : EOM-CC, STEOM-CC                              
  Nicolas Foglia         : Exact transition moments, OPA infrastructure, MCD improvements    
  Dmitry Ganyushin       : Spin-Orbit,Spin-Spin,Magnetic field MRCI      
  Miquel Garcia-Rates    : C-PCM and meta-GGA Hessian, CCSD/C-PCM, Gaussian charge scheme 
  Tiago L. C. Gouveia    : GS-ROHF, GS-ROCIS                             
  Yang Guo               : DLPNO-NEVPT2, F12-NEVPT2, CIM, IAO-localization        
  Andreas Hansen         : Spin unrestricted coupled pair/coupled cluster methods 
  Ingolf Harden          : AUTO-CI MPn and infrastructure                
  Benjamin Helmich-Paris : MC-RPA, TRAH-(SCF,CASSCF), AVAS, COSX integrals, SCF dyn. polar., MC-PDFT, srDFT 
  Lee Huntington         : MR-EOM, pCC                                   
  Robert Izsak           : Overlap fitted RIJCOSX, COSX-SCS-MP3, EOM     
  Riya Kayal             : Wick's Theorem for AUTO-CI, AUTO-CI UHF-CCSDT 
  Emily Kempfer          : AUTO-CI RHF CISDT and CCSDT, approximate NEVPT4
  Christian Kollmar      : KDIIS, OOCD, Brueckner-CCSD(T), CCSD density, CASPT2, CASPT2-K, improved NEVPT2 
  Axel Koslowski         : Symmetry handling                             
  Simone Kossmann        : meta-GGA functionals, TD-DFT gradient, OOMP2, (MP2 Hessian; deprecated post 5.0) 
  Lucas Lang             : DCDCAS, Hyperfine gauge corrections, ICE-SOC+SSC
  Marvin Lechner         : AUTO-CI (C++ implementation), FIC-MRCC        
  Spencer Leger          : CASSCF response                               
  Dagmar Lenk            : GEPOL surface, SMD, ORCA-2-JSON               
  Dimitrios Liakos       : Extrapolation schemes; Compound Job, Property file
  Dimitrios Manganas     : Further ROCIS development; embedding schemes. LFT, Crystal Embedding 
  Dimitrios Pantazis     : SARC Basis sets                               
  Anastasios Papadopoulos: AUTO-CI, single reference methods and gradients 
  Taras Petrenko         : pre 6.0 DFT Hessian and TD-DFT gradient,  ECA, NRVS 
  Petra Pikulova         : Analytic Raman intensities                    
  Peter Pinski           : DLPNO-MP2, DLPNO-MP2 Gradient                 
  Shashank Vittal Rao    : ES-AILFT, MagRelax                            
  Christoph Reimann      : Effective Core Potentials                     
  Marius Retegan         : Local ZFS, SOC                                
  Christoph Riplinger    : Optimizer, TS searches, QM/MM, DLPNO-CCSD(T), (RO)-DLPNO pert. Triples 
  Michael Roemelt        : Original ROCIS implementation, recursive CI coupling coefficients
  Masaaki Saitow         : Open-shell DLPNO-CCSD energy and density      
  Barbara Sandhoefer     : DKH picture change effects                    
  Yorick L. A. Schmerwitz: GMF and freeze-and-release deltaSCF, NEB S-IDPP initial path                    
  Kantharuban Sivalingam : CASSCF convergence/infrastructure, NEVPT2, NEVPT3, NEVPT4(SD), FIC-MRCI and CEPA variants
  Bernardo de Souza      : ESD, SOC TD-DFT                               
  Georgi L. Stoychev     : AutoAux, RI-MP2 NMR, DLPNO-MP2 response, X2C  
  Van Anh Tran           : RI-MP2 g-tensors                              
  Willem Van den Heuvel  : Paramagnetic NMR                              
  Zikuan Wang            : NOTCH, Electric field optimization            
  Frank Wennmohs         : Technical directorship and infrastructure     
  Hang Xu                : AUTO-CI-Response properties                   
                                                                         
[FACCTs GmbH]                                                            
  Markus Bursch, Nicolas Foglia, Miquel Garcia-Rates, Ingolf Harden, Hagen Neugebauer, Anastasios Papadopoulos, 
  Christoph Riplinger, Bernardo de Souza, Georgi L. Stoychev                                                    
                                                                 
  APM, various basis sets, CI-OPT, improved COSX, DLPNO-Multilevel,           
  DOCKER, DRACO, updates on ESD, Fragmentator, GOAT, IRC, LR-CPCM, L-BFGS, MBIS, meta-GGA TD-DFT gradient, ML-optimized integration grids, 
  MM, NACMEs, nearIR, NEB, NEB-TS, NL-DFT gradient (VV10), 2- and 3-layer-ONIOM, interface openCOSMO-RS, QMMM,   
  Crystal-QMMM, RESP, rigid body optimization, SF, symmetry and pop. for TD-DFT, various functionals, SOLVATOR                                   
                                                                         
[Other institutions]                                                     
  V. Asgeirsson          : NEB                                           
  Christoph Bannwarth    : sTDA-DFT, sTD-DFT, PBEh-3c, B97-3c, D3        
  Giovanni Bistoni       : ETS/NOCV, ADLD/ADEX, COVALED                  
  Martin Brehm           : Molecular dynamics                            
  Ronald Cardenas        : ETS/NOCV                                      
  Martina Colucci        : COVALED                                       
  Sebastian Ehlert       : rSCAN, r2SCAN, r2SCAN-3c, D4, dhf basis sets  
  Marvin Friede          : D4 for Fr, Ra, Ac-Lr                          
  Lars Goerigk           : TD-DFT with DH, B97 family of functionals     
  Stefan Grimme          : VdW corrections, initial TS optimization, DFT functionals, gCP, sTDA/sTD-DF 
  Waldemar Hujo          : DFT-NL                                        
  H. Jonsson             : NEB                                           
  Holger Kruse           : gCP                                           
  Marcel Mueller         : wB97X-3c, vDZP basis set                      
  Hagen Neugebauer       : wr2SCAN, Native XTB                           
  Gianluca Regni         : ADLD/ADEX                                     
  Tobias Risthaus        : pre 6.0 range-separated hybrid DFT and stability analysis
  Lukas Wittmann         : regularized MP2, r2SCAN double-hybrids, wr2SCAN        
                                                                         
We gratefully acknowledge several colleagues who have allowed us to      
interface, adapt or use parts of their codes:                            
  Ed Valeev, F. Pavosevic, A. Kumar             : LibInt (2-el integral package), F12 methods 
  Garnet Chan, S. Sharma, J. Yang, R. Olivares  : DMRG                   
  Ulf Ekstrom                                   : XCFun DFT Library      
  Mihaly Kallay                                 : mrcc  (arbitrary order and MRCC methods)
  Frank Weinhold                                : gennbo (NPA and NBO analysis)           
  Simon Mueller                                 : openCOSMO-RS                            
  Christopher J. Cramer and Donald G. Truhlar   : smd solvation model                     
  S Lehtola, MJT Oliveira, MAL Marques          : LibXC Library                           
  Liviu Ungur et al                             : ANISO software                          


 Your calculation uses the libint2 library for the computation of 2-el integrals
 For citations please refer to: http://libint.valeyev.net

 Your ORCA version has been built with support for libXC version: 7.0.0
 For citations please refer to: https://libxc.gitlab.io

 This ORCA versions uses:
   CBLAS   interface :  Fast vector & matrix operations
   LAPACKE interface :  Fast linear algebra routines
   SCALAPACK package :  Parallel linear algebra routines
   Shared memory     :  Shared parallel matrices
   BLAS/LAPACK       :  OpenBLAS 0.3.29  USE64BITINT DYNAMIC_ARCH NO_AFFINITY Haswell SINGLE_THREADED
        Core in use  :  Haswell
   Copyright (c) 2011-2014, The OpenBLAS Project


  ***********************************
  * Starting time: Sun Aug 31 19:22:01 2025
  * Host name:     chemlab03
  * Process ID:    94871
  * Working dir.:  /home/vivek/mm-project/vivek/xtb-goat/MP2-opt/f/1
  ***********************************



***************************************
The coordinates will be read from file: /home/vivek/mm-project/vivek/xtb-goat/xtb-goat/f/F_CONF/1.xyz
***************************************


================================================================================

----- Orbital basis set information -----
Your calculation utilizes the basis: 6-31G**
   H-He, Li-Ne : W. J. Hehre, R. Ditchfield and J.A. Pople, J. Chem. Phys. 56, 2257 (1972).
                 Note: He and Ne are unpublished basis sets taken from the Gaussian program.
                 Note: Li and B from J. D. Dill and J. A. Pople, J. Chem. Phys. 62, 2921 (1975).
   Na - Ar     : M. M. Francl, W. J. Pietro, W. J. Hehre, J. S. Binkley, M. S. Gordon, 
                 D. J. DeFrees and J. A. Pople, J. Chem. Phys. 77, 3654 (1982).
   K - Zn      : V. A. Rassolov, J. A. Pople, M. A. Ratner, and T. L. Windus, J. Chem. Phys. 109, 1223 (1998).

================================================================================
                                        WARNINGS
                       Please study these warnings very carefully!
================================================================================


WARNING: The frozen-core approximation for MP2-gradient calculations is turned on by default.

WARNING: Geometry Optimization
  ===> : Switching off AutoStart
         For restart on a previous wavefunction, please use MOREAD

WARNING: Post HF methods need fully converged wavefunctions
  ===> : Setting SCFConvForced true
         You can overwrite this default with %scf ConvForced false 


================================================================================
                                       INPUT FILE
================================================================================
NAME = 1.inp
|  1> ! MP2 6-31G** opt
|  2> 
|  3> * xyzfile 0 1 /home/vivek/mm-project/vivek/xtb-goat/xtb-goat/f/F_CONF/1.xyz
|  4> 
|  5>                          ****END OF INPUT****
================================================================================

                       *****************************
                       * Geometry Optimization Run *
                       *****************************

Geometry optimization settings:
Update method            Update   .... BFGS
Choice of coordinates    CoordSys .... (2022) Redundant Internals
Initial Hessian          InHess   .... Almloef's Model
Max. no of cycles        MaxIter  .... 69

Convergence Tolerances:
Energy Change            TolE     ....  5.0000e-06 Eh
Max. Gradient            TolMAXG  ....  3.0000e-04 Eh/bohr
RMS Gradient             TolRMSG  ....  1.0000e-04 Eh/bohr
Max. Displacement        TolMAXD  ....  4.0000e-03 bohr
RMS Displacement         TolRMSD  ....  2.0000e-03 bohr
Strict Convergence                .... False

------------------------------------------------------------------------------
                        ORCA OPTIMIZATION COORDINATE SETUP
------------------------------------------------------------------------------

The optimization will be done in redundant internal coordinates (2022)
Making redundant internal coordinates   ...  (2022 redundants) done
Evaluating the initial hessian          ...  (Almloef) done
Evaluating the coordinates              ...  done
Calculating the B-matrix                .... done
Calculating the G-matrix                .... done
The number of degrees of freedom        ....  107

    -----------------------------------------------------------------
                    Redundant Internal Coordinates


    -----------------------------------------------------------------
         Definition                    Initial Value    Approx d2E/dq
    -----------------------------------------------------------------
      1. B(C   1,C   0)                  1.3839         0.638917   
      2. B(H   4,C   2)                  1.0806         0.372728   
      3. B(C   5,C   1)                  1.3838         0.639145   
      4. B(H   7,C   1)                  1.0804         0.372996   
      5. B(C   8,C   5)                  1.3887         0.627824   
      6. B(C   8,C   6)                  1.5006         0.416145   
      7. B(C   8,C   2)                  1.3894         0.626285   
      8. B(H   9,C   0)                  1.0800         0.373555   
      9. B(C  10,H   3)                  1.0802         0.373248   
     10. B(C  10,C   2)                  1.3829         0.641249   
     11. B(C  10,C   0)                  1.3846         0.637241   
     12. B(H  11,C   5)                  1.0814         0.371661   
     13. B(C  12,C   6)                  1.5452         0.353227   
     14. B(H  13,C   6)                  1.0919         0.357620   
     15. B(H  14,C   6)                  1.0907         0.359222   
     16. B(C  15,C  12)                  1.5234         0.382679   
     17. B(N  17,C  12)                  1.4494         0.449925   
     18. B(O  18,H  16)                  0.9711         0.499205   
     19. B(O  18,C  15)                  1.3350         0.684833   
     20. B(H  19,N  17)                  1.0146         0.425395   
     21. B(O  20,C  15)                  1.2035         1.110263   
     22. B(H  21,C  12)                  1.0941         0.354702   
     23. B(H  22,N  17)                  1.0162         0.423021   
     24. A(C   1,C   0,C  10)          119.6999         0.438585   
     25. A(C   1,C   0,H   9)          120.1567         0.356926   
     26. A(H   9,C   0,C  10)          120.1434         0.356766   
     27. A(C   0,C   1,C   5)          120.0894         0.438821   
     28. A(C   0,C   1,H   7)          120.0677         0.356835   
     29. A(C   5,C   1,H   7)          119.8429         0.356856   
     30. A(C   8,C   2,C  10)          120.6298         0.437503   
     31. A(H   4,C   2,C   8)          119.4206         0.355584   
     32. A(H   4,C   2,C  10)          119.9494         0.357012   
     33. A(C   1,C   5,C   8)          120.6404         0.437437   
     34. A(C   8,C   5,H  11)          119.5172         0.355559   
     35. A(C   1,C   5,H  11)          119.8425         0.356639   
     36. A(C  12,C   6,H  14)          107.0689         0.321226   
     37. A(H  13,C   6,H  14)          108.4978         0.290413   
     38. A(C   8,C   6,H  14)          110.8949         0.330004   
     39. A(C  12,C   6,H  13)          108.2782         0.320991   
     40. A(C   8,C   6,H  13)          110.5231         0.329760   
     41. A(C   8,C   6,C  12)          111.4473         0.366594   
     42. A(C   5,C   8,C   6)          120.7751         0.405188   
     43. A(C   2,C   8,C   6)          120.3693         0.405012   
     44. A(C   2,C   8,C   5)          118.8311         0.435838   
     45. A(C   0,C  10,H   3)          120.0099         0.356717   
     46. A(C   0,C  10,C   2)          120.1093         0.438873   
     47. A(C   2,C  10,H   3)          119.8807         0.357097   
     48. A(C  15,C  12,N  17)          112.6256         0.374342   
     49. A(C   6,C  12,N  17)          109.0239         0.369216   
     50. A(C   6,C  12,C  15)          107.8660         0.361376   
     51. A(N  17,C  12,H  21)          109.3844         0.331585   
     52. A(C  15,C  12,H  21)          108.5674         0.324797   
     53. A(C   6,C  12,H  21)          109.3196         0.320562   
     54. A(C  12,C  15,O  20)          124.3222         0.439070   
     55. A(C  12,C  15,O  18)          112.6097         0.402805   
     56. A(O  18,C  15,O  20)          123.0679         0.485071   
     57. A(C  12,N  17,H  19)          110.5620         0.338826   
     58. A(H  19,N  17,H  22)          107.2311         0.301341   
     59. A(C  12,N  17,H  22)          109.2019         0.338509   
     60. A(C  15,O  18,H  16)          110.8275         0.373878   
     61. D(C   5,C   1,C   0,C  10)      0.1151         0.028356   
     62. D(C   5,C   1,C   0,H   9)   -179.9611         0.028356   
     63. D(H   7,C   1,C   0,H   9)      0.0331         0.028356   
     64. D(H   7,C   1,C   0,C  10)   -179.8907         0.028356   
     65. D(H  11,C   5,C   1,H   7)     -0.0601         0.028377   
     66. D(H  11,C   5,C   1,C   0)    179.9341         0.028377   
     67. D(C   8,C   5,C   1,C   0)     -0.0774         0.028377   
     68. D(C   8,C   5,C   1,H   7)    179.9283         0.028377   
     69. D(C   6,C   8,C   5,C   1)    178.2343         0.027317   
     70. D(C   6,C   8,C   2,C  10)   -178.2335         0.027175   
     71. D(C   2,C   8,C   5,C   1)      0.0304         0.027317   
     72. D(C   2,C   8,C   5,H  11)   -179.9811         0.027317   
     73. D(C   5,C   8,C   6,C  12)    -98.7855         0.012813   
     74. D(C   5,C   8,C   2,C  10)     -0.0221         0.027175   
     75. D(C   5,C   8,C   2,H   4)   -179.8275         0.027175   
     76. D(C   2,C   8,C   6,H  13)   -160.1541         0.012813   
     77. D(C   2,C   8,C   6,C  12)     79.3908         0.012813   
     78. D(C   2,C   8,C   6,H  14)    -39.7878         0.012813   
     79. D(C   6,C   8,C   5,H  11)     -1.7772         0.027317   
     80. D(C   6,C   8,C   2,H   4)      1.9611         0.027175   
     81. D(C   5,C   8,C   6,H  13)     21.6696         0.012813   
     82. D(H   3,C  10,C   2,C   8)   -179.9282         0.028577   
     83. D(H   3,C  10,C   2,H   4)     -0.1238         0.028577   
     84. D(C   0,C  10,C   2,C   8)      0.0607         0.028577   
     85. D(C   0,C  10,C   2,H   4)    179.8651         0.028577   
     86. D(H   3,C  10,C   0,H   9)     -0.0417         0.028197   
     87. D(H   3,C  10,C   0,C   1)    179.8821         0.028197   
     88. D(C   2,C  10,C   0,H   9)    179.9694         0.028197   
     89. D(C   2,C  10,C   0,C   1)     -0.1068         0.028197   
     90. D(C  15,C  12,C   6,H  13)    -60.4411         0.010038   
     91. D(C  15,C  12,C   6,C   8)     61.3242         0.010038   
     92. D(N  17,C  12,C   6,H  14)    -54.6505         0.010038   
     93. D(N  17,C  12,C   6,H  13)     62.1535         0.010038   
     94. D(N  17,C  12,C   6,C   8)   -176.0813         0.010038   
     95. D(C  15,C  12,C   6,H  14)   -177.2451         0.010038   
     96. D(O  20,C  15,C  12,N  17)    -32.3906         0.010918   
     97. D(O  20,C  15,C  12,C   6)     87.9659         0.010918   
     98. D(O  18,C  15,C  12,H  21)     26.1767         0.010918   
     99. D(O  18,C  15,C  12,N  17)    147.4635         0.010918   
    100. D(O  18,C  15,C  12,C   6)    -92.1801         0.010918   
    101. D(H  22,N  17,C  12,C  15)     52.8193         0.017269   
    102. D(H  22,N  17,C  12,C   6)    -66.8688         0.017269   
    103. D(H  19,N  17,C  12,H  21)     55.8862         0.017269   
    104. D(H  19,N  17,C  12,C  15)    -64.9340         0.017269   
    105. D(H  19,N  17,C  12,C   6)    175.3779         0.017269   
    106. D(H  16,O  18,C  15,O  20)     -2.7549         0.034977   
    107. D(H  16,O  18,C  15,C  12)    177.3889         0.034977   
    -----------------------------------------------------------------

Number of atoms                         .... 23
Number of degrees of freedom            .... 107


         *************************************************************
         *                GEOMETRY OPTIMIZATION CYCLE   1            *
         *************************************************************
---------------------------------
CARTESIAN COORDINATES (ANGSTROEM)
---------------------------------
  C     -6.310255    0.103756   -0.403478
  C     -5.323864    0.191432   -1.370210
  C     -5.246177    1.864696    0.828463
  H     -7.037927    0.881095    1.453007
  H     -5.218113    2.520629    1.686775
  C     -4.300731    1.113438   -1.235824
  C     -3.121500    2.933674    0.032640
  H     -5.350815   -0.460032   -2.231709
  C     -4.250709    1.959866   -0.136050
  H     -7.108923   -0.615864   -0.506952
  C     -6.269519    0.943936    0.696360
  H     -3.531438    1.177800   -1.993101
  C     -2.048712    2.392094    1.004032
  H     -2.643169    3.135299   -0.927959
  H     -3.480054    3.877356    0.445497
  C     -1.485572    1.107503    0.409401
  H     -1.777776   -0.779774    0.410344
  N     -1.033358    3.407573    1.200396
  O     -2.130122    0.018898    0.835764
  H     -0.356569    3.105500    1.893361
  O     -0.560284    1.064033   -0.358950
  H     -2.516364    2.155659    1.964490
  H     -0.529549    3.549274    0.329370

----------------------------
CARTESIAN COORDINATES (A.U.)
----------------------------
  NO LB      ZA    FRAG     MASS         X           Y           Z
   0 C     6.0000    0    12.011  -11.924653    0.196070   -0.762463
   1 C     6.0000    0    12.011  -10.060644    0.361754   -2.589321
   2 C     6.0000    0    12.011   -9.913837    3.523764    1.565569
   3 H     1.0000    0     1.008  -13.299754    1.665028    2.745786
   4 H     1.0000    0     1.008   -9.860805    4.763299    3.187542
   5 C     6.0000    0    12.011   -8.127204    2.104094   -2.335370
   6 C     6.0000    0    12.011   -5.898780    5.543840    0.061681
   7 H     1.0000    0     1.008  -10.111576   -0.869334   -4.217318
   8 C     6.0000    0    12.011   -8.032677    3.703609   -0.257098
   9 H     1.0000    0     1.008  -13.433918   -1.163815   -0.958001
  10 C     6.0000    0    12.011  -11.847674    1.783780    1.315929
  11 H     1.0000    0     1.008   -6.673451    2.225719   -3.766414
  12 C     6.0000    0    12.011   -3.871505    4.520402    1.897346
  13 H     1.0000    0     1.008   -4.994866    5.924857   -1.753589
  14 H     1.0000    0     1.008   -6.576349    7.327141    0.841868
  15 C     6.0000    0    12.011   -2.807325    2.092878    0.773656
  16 H     1.0000    0     1.008   -3.359510   -1.473560    0.775438
  17 N     7.0000    0    14.007   -1.952764    6.439380    2.268419
  18 O     8.0000    0    15.999   -4.025348    0.035713    1.579366
  19 H     1.0000    0     1.008   -0.673817    5.868545    3.577935
  20 O     8.0000    0    15.999   -1.058784    2.010731   -0.678316
  21 H     1.0000    0     1.008   -4.755239    4.073605    3.712348
  22 H     1.0000    0     1.008   -1.000703    6.707156    0.622420

--------------------------------
INTERNAL COORDINATES (ANGSTROEM)
--------------------------------
 C      0   0   0     0.000000000000     0.00000000     0.00000000
 C      1   0   0     1.383916450797     0.00000000     0.00000000
 C      1   2   0     2.398093130343    89.77500033     0.00000000
 H      3   1   2     2.137263115236    55.95738853   179.90134341
 H      3   1   2     1.080617686173   149.91490890   179.67410332
 C      2   1   3     1.383819178885   120.08942068     0.06178968
 C      3   1   2     2.508046893327   121.72637282   358.86905533
 H      2   1   3     1.080422197302   120.06766783   180.05600325
 C      6   2   1     1.388684203980   120.64035140   359.92255233
 H      1   2   3     1.080014707411   120.15666478   179.97707021
 C      4   3   1     1.080238228412    34.12757072     0.00000000
 H      6   2   1     1.081397870138   119.84247303   179.93409154
 C      7   3   1     1.545246001280   103.84394183   252.53920391
 H      7   3   1     1.091881228411   136.80078879    29.78812399
 H      7   3   1     1.090664209106    88.29064282   145.37664006
 C     13   7   3     1.523445236981   107.86600369    90.26006118
 H     16  13   7     1.909764552550   140.94438274   269.78920518
 N     13   7   3     1.449378956606   109.02392932   212.85461354
 O     17  16  13     0.971086270282    40.79636959   356.17280081
 H     18  13   7     1.014639809691   110.56203277   175.37790363
 O     16  13   7     1.203499138000   124.32224414    87.96586190
 H     13   7   3     1.094111061493   109.31963614   332.38648040
 H     18  13   7     1.016163097587   109.20185192   293.13122496

---------------------------
INTERNAL COORDINATES (A.U.)
---------------------------
 C      0   0   0     0.000000000000     0.00000000     0.00000000
 C      1   0   0     2.615223084235     0.00000000     0.00000000
 C      1   2   0     4.531739259987    89.77500033     0.00000000
 H      3   1   2     4.038841963928    55.95738853   179.90134341
 H      3   1   2     2.042071482339   149.91490890   179.67410332
 C      2   1   3     2.615039266960   120.08942068     0.06178968
 C      3   1   2     4.739521759421   121.72637282   358.86905533
 H      2   1   3     2.041702061909   120.06766783   180.05600325
 C      6   2   1     2.624232832025   120.64035140   359.92255233
 H      1   2   3     2.040932017614   120.15666478   179.97707021
 C      4   3   1     2.041354411092    34.12757072     0.00000000
 H      6   2   1     2.043545816367   119.84247303   179.93409154
 C      7   3   1     2.920091751956   103.84394183   252.53920391
 H      7   3   1     2.063356492466   136.80078879    29.78812399
 H      7   3   1     2.061056659280    88.29064282   145.37664006
 C     13   7   3     2.878894277922   107.86600369    90.26006118
 H     16  13   7     3.608931984590   140.94438274   269.78920518
 N     13   7   3     2.738929292253   109.02392932   212.85461354
 O     17  16  13     1.835087103243    40.79636959   356.17280081
 H     18  13   7     1.917391364890   110.56203277   175.37790363
 O     16  13   7     2.274283773231   124.32224414    87.96586190
 H     13   7   3     2.067570266315   109.31963614   332.38648040
 H     18  13   7     1.920269961836   109.20185192   293.13122496

---------------------
BASIS SET INFORMATION
---------------------
There are 4 groups of distinct atoms

 Group   1 Type C   : 10s4p1d contracted to 3s2p1d pattern {631/31/1}
 Group   2 Type H   : 4s1p contracted to 2s1p pattern {31/1}
 Group   3 Type N   : 10s4p1d contracted to 3s2p1d pattern {631/31/1}
 Group   4 Type O   : 10s4p1d contracted to 3s2p1d pattern {631/31/1}

Atom   0C    basis set group =>   1
Atom   1C    basis set group =>   1
Atom   2C    basis set group =>   1
Atom   3H    basis set group =>   2
Atom   4H    basis set group =>   2
Atom   5C    basis set group =>   1
Atom   6C    basis set group =>   1
Atom   7H    basis set group =>   2
Atom   8C    basis set group =>   1
Atom   9H    basis set group =>   2
Atom  10C    basis set group =>   1
Atom  11H    basis set group =>   2
Atom  12C    basis set group =>   1
Atom  13H    basis set group =>   2
Atom  14H    basis set group =>   2
Atom  15C    basis set group =>   1
Atom  16H    basis set group =>   2
Atom  17N    basis set group =>   3
Atom  18O    basis set group =>   4
Atom  19H    basis set group =>   2
Atom  20O    basis set group =>   4
Atom  21H    basis set group =>   2
Atom  22H    basis set group =>   2
------------------------------------------------------------------------------
                             ORCA STARTUP CALCULATIONS
------------------------------------------------------------------------------
------------------------------------------------------------------------------
                   ___                                                        
                  /   \      - P O W E R E D   B Y -                         
                 /     \                                                     
                 |  |  |   _    _      __       _____    __    __             
                 |  |  |  | |  | |    /  \     |  _  \  |  |  /  |          
                  \  \/   | |  | |   /    \    | | | |  |  | /  /          
                 / \  \   | |__| |  /  /\  \   | |_| |  |  |/  /          
                |  |  |   |  __  | /  /__\  \  |    /   |      \           
                |  |  |   | |  | | |   __   |  |    \   |  |\   \          
                \     /   | |  | | |  |  |  |  | |\  \  |  | \   \       
                 \___/    |_|  |_| |__|  |__|  |_| \__\ |__|  \__/        
                                                                              
                      - O R C A' S   B I G   F R I E N D -                    
                                      &                                       
                       - I N T E G R A L  F E E D E R -                       
                                                                              
 v1 FN, 2020, v2 2021, v3 2022-2024                                           
------------------------------------------------------------------------------


----------------------
SHARK INTEGRAL PACKAGE
----------------------

Number of atoms                             ...     23
Number of basis functions                   ...    223
Number of shells                            ...    105
Maximum angular momentum                    ...      2
Integral batch strategy                     ... SHARK/LIBINT Hybrid
RI-J (if used) integral strategy            ... SPLIT-RIJ (Revised 2003 algorithm where possible)
Printlevel                                  ...      1
Contraction scheme used                     ... SEGMENTED contraction
Prescreening option                         ... SCHWARTZ
   Thresh                                   ... 2.500e-11
   Tcut                                     ... 2.500e-12
   Tpresel                                  ... 2.500e-12 
Coulomb Range Separation                    ... NOT USED
Exchange Range Separation                   ... NOT USED
Multipole approximations                    ... NOT USED
Finite Nucleus Model                        ... NOT USED
CABS basis                                  ... NOT available
Auxiliary Coulomb fitting basis             ... NOT available
Auxiliary J/K fitting basis                 ... NOT available
Auxiliary Correlation fitting basis         ... NOT available
Auxiliary 'external' fitting basis          ... NOT available

Checking pre-screening integrals            ... done (  0.0 sec) Dimension = 105
   => SHARK Basis and OBASIS are compatible. Storing Pre-screening
Shell pair information
Shell pair cut-off parameter TPreSel        ...   2.5e-12
Total number of shell pairs                 ...      5565
Shell pairs after pre-screening             ...      4819
Total number of primitive shell pairs       ...     28015
Primitive shell pairs kept                  ...     15362
          la=0 lb=0:   1474 shell pairs
          la=1 lb=0:   1752 shell pairs
          la=1 lb=1:    554 shell pairs
          la=2 lb=0:    601 shell pairs
          la=2 lb=1:    369 shell pairs
          la=2 lb=2:     69 shell pairs

Checking whether 4 symmetric matrices of dimension 223 fit in memory
:Max Core in MB      =   4096.00
 MB in use           =      7.72
 MB left             =   4088.28
 MB needed           =      0.76
 Data fit in memory  = YES
Calculating Nuclear repulsion               ... done (  0.0 sec) ENN=    693.576787174977 Eh

Diagonalization of the overlap matrix:
Smallest eigenvalue                        ... 4.361e-04
Time for diagonalization                   ...    0.003 sec
Threshold for overlap eigenvalues          ... 1.000e-07
Number of eigenvalues below threshold      ... 0
Time for construction of square roots      ...    0.001 sec
Total time needed                          ...    0.004 sec

-------------------
DFT GRID GENERATION
-------------------

General Integration Accuracy     IntAcc      ... 4.388
Radial Grid Type                 RadialGrid  ... OptM3 with GC (2021)
Angular Grid (max. ang.)         AngularGrid ... 4 (Lebedev-302)
Angular grid pruning method      GridPruning ... 4 (adaptive)
Weight generation scheme         WeightScheme... mBecke (2022)
Basis function cutoff            BFCut       ... 1.0000e-11
Integration weight cutoff        WCut        ... 1.0000e-14
Partially contracted basis set               ... off
Rotationally invariant grid construction     ... off
Angular grids for H and He will be reduced by one unit

Total number of grid points                  ...   107264
Total number of batches                      ...     1689
Average number of points per batch           ...       63
Average number of grid points per atom       ...     4664
Grids setup in   0.5 sec
Initializing property integral containers    ... done (  0.0 sec)

SHARK setup successfully completed in   0.6 seconds

Maximum memory used throughout the entire STARTUP-calculation: 43.6 MB
-------------------------------------------------------------------------------
                                 ORCA GUESS
                   Start orbitals & Density for SCF / CASSCF
-------------------------------------------------------------------------------

------------
SCF SETTINGS
------------
Hamiltonian:
 Ab initio Hamiltonian  Method          .... Hartree-Fock(GTOs)


General Settings:
 Integral files         IntName         .... 1
 Hartree-Fock type      HFTyp           .... RHF
 Total Charge           Charge          ....    0
 Multiplicity           Mult            ....    1
 Number of Electrons    NEL             ....   88
 Basis Dimension        Dim             ....  223
 Nuclear Repulsion      ENuc            ....    693.5767871750 Eh

Convergence Acceleration:
 AO-DIIS                CNVDIIS         .... on
   Start iteration      DIISMaxIt       ....    12
   Startup error        DIISStart       ....  0.200000
   # of expansion vecs  DIISMaxEq       ....     5
   Bias factor          DIISBfac        ....   1.050
   Max. coefficient     DIISMaxC        ....  10.000
 MO-DIIS                CNVKDIIS        .... off
 Trust-Rad. Augm. Hess. CNVTRAH         .... auto
   Auto Start mean grad. ratio tolernc. ....  1.125000
   Auto Start start iteration           ....    50
   Auto Start num. interpolation iter.  ....    10
   Max. Number of Micro iterations      ....    24
   Max. Number of Macro iterations      .... Maxiter - #DIIS iter
   Number of Davidson start vectors     ....     2
   Converg. threshold    (grad. norm)   ....   1.000e-05
   Grad. Scal. Fac. for Micro threshold ....   0.100
   Minimum threshold for Micro iter.    ....   1.000e-02
   NR start threshold (gradient norm)   ....   1.000e-04
   Initial trust radius                 ....   0.400
   Minimum AH scaling param. (alpha)    ....   1.000
   Maximum AH scaling param. (alpha)    .... 1000.000
   Quad. conv. algorithm                .... NR
   White noise on init. David. guess    .... on
   Maximum white noise                  ....   0.010
   Pseudo random numbers                .... off
   Inactive MOs                         .... canonical
   Orbital update algorithm             .... Taylor
   Preconditioner                       .... Diag
   Full preconditioner red. dimension   ....   250
 SOSCF                 CNVSOSCF           .... on
   Start iteration     SOSCFMaxIt         ....   150
   Startup grad/error  SOSCFStart         ....  0.003300
   Hessian update      SOSCFHessUp        .... L-BFGS
   Autom. constraints  SOSCFAutoConstrain .... off
 Level Shifting         CNVShift        .... on
   Level shift para.    LevelShift      ....    0.2500
   Turn off err/grad.   ShiftErr        ....    0.0010
 Zerner damping         CNVZerner       .... off
 Static damping         CNVDamp         .... on
   Fraction old density DampFac         ....    0.7000
   Max. Damping (<1)    DampMax         ....    0.9800
   Min. Damping (>=0)   DampMin         ....    0.0000
   Turn off err/grad.   DampErr         ....    0.1000

SCF Procedure:
 Maximum # iterations   MaxIter         ....   125
 SCF integral mode      SCFMode         .... Direct
   Integral package                     .... SHARK and LIBINT hybrid scheme
 Reset frequency        DirectResetFreq ....    20
 Integral Threshold     Thresh          ....  2.500e-11 Eh
 Primitive CutOff       TCut            ....  2.500e-12 Eh

Convergence Tolerance:
 Convergence Check Mode ConvCheckMode   .... Total+1el-Energy
 Convergence forced     ConvForced      .... 1
 Energy Change          TolE            ....  1.000e-08 Eh
 1-El. energy change                    ....  1.000e-05 Eh
 Orbital Gradient       TolG            ....  1.000e-05
 Orbital Rotation angle TolX            ....  1.000e-05
 DIIS Error             TolErr          ....  5.000e-07

------------------------------
INITIAL GUESS: MODEL POTENTIAL
------------------------------
Loading Hartree-Fock densities                     ... done
Calculating cut-offs                               ... done
Initializing the effective Hamiltonian             ... done
Setting up the integral package (SHARK)            ... done
Starting the Coulomb interaction                   ... done (   0.1 sec)
Making the grid                                    ... done (   0.1 sec)
Mapping shells                                     ... done
Starting the XC term evaluation                    ... done (   0.1 sec)
Transforming the Hamiltonian                       ... done (   0.0 sec)
Diagonalizing the Hamiltonian                      ... done (   0.0 sec)
Back transforming the eigenvectors                 ... done (   0.0 sec)
Now organizing SCF variables                       ... done
                      ------------------
                      INITIAL GUESS DONE (   0.3 sec)
                      ------------------
             **** ENERGY FILE WAS UPDATED (1.en.tmp) ****
Finished Guess after   0.3 sec
Maximum memory used throughout the entire GUESS-calculation: 14.2 MB

-------------------------------------------------------------------------------------------
                                      ORCA LEAN-SCF
                              memory conserving SCF solver
-------------------------------------------------------------------------------------------

----------------------------------------D-I-I-S--------------------------------------------
Iteration    Energy (Eh)           Delta-E    RMSDP     MaxDP     DIISErr   Damp  Time(sec)
-------------------------------------------------------------------------------------------
               ***  Starting incremental Fock matrix formation  ***
    1    -550.9553386212157875     0.00e+00  2.47e-03  6.14e-02  2.54e-01  0.700   3.3
    2    -551.1229396214610006    -1.68e-01  1.89e-03  4.45e-02  1.59e-01  0.700   3.1
                               ***Turning on AO-DIIS***
    3    -551.2241285801731010    -1.01e-01  1.17e-03  2.11e-02  9.07e-02  0.700   3.1
    4    -551.2886644002369394    -6.45e-02  2.81e-03  4.55e-02  6.19e-02  0.000   3.1
    5    -551.4327212681148467    -1.44e-01  2.84e-04  5.56e-03  6.22e-03  0.000   3.2
    6    -551.4332216365094155    -5.00e-04  1.24e-04  3.66e-03  3.66e-03  0.000   2.9
                              *** Initializing SOSCF ***
---------------------------------------S-O-S-C-F--------------------------------------
Iteration    Energy (Eh)           Delta-E    RMSDP     MaxDP     MaxGrad    Time(sec)
--------------------------------------------------------------------------------------
    7    -551.4333274028713276    -1.06e-04  6.38e-05  1.71e-03  1.97e-03     2.8
               *** Restarting incremental Fock matrix formation ***
    8    -551.4333585535327984    -3.12e-05  3.09e-05  9.76e-04  6.61e-04     3.3
    9    -551.4333661252389902    -7.57e-06  3.20e-05  9.58e-04  4.08e-04     2.5
   10    -551.4333688923795762    -2.77e-06  6.00e-06  2.73e-04  9.91e-05     2.5
   11    -551.4333690708542690    -1.78e-07  2.29e-06  9.41e-05  4.26e-05     2.3
   12    -551.4333691171643750    -4.63e-08  6.91e-07  2.40e-05  1.05e-05     2.1
   13    -551.4333691209710651    -3.81e-09  3.48e-07  1.24e-05  2.69e-06     1.9
                 **** Energy Check signals convergence ****

               *****************************************************
               *                     SUCCESS                       *
               *           SCF CONVERGED AFTER  13 CYCLES          *
               *****************************************************

             **** ENERGY FILE WAS UPDATED (1.en.tmp) ****

----------------
TOTAL SCF ENERGY
----------------

Total Energy       :       -551.43336912104655 Eh          -15005.26483 eV

Components:
Nuclear Repulsion  :        693.57678717497720 Eh           18873.18387 eV
Electronic Energy  :      -1245.01015629602375 Eh          -33878.44870 eV
One Electron Energy:      -2127.91232111174850 Eh          -57903.43801 eV
Two Electron Energy:        882.90216481572475 Eh           24024.98931 eV

Virial components:
Potential Energy   :      -1102.45375321944766 Eh          -29999.29176 eV
Kinetic Energy     :        551.02038409840100 Eh           14994.02693 eV
Virial Ratio       :          2.00074949137013

---------------
SCF CONVERGENCE
---------------

  Last Energy change         ...    3.8067e-09  Tolerance :   1.0000e-08
  Last MAX-Density change    ...    1.2374e-05  Tolerance :   1.0000e-07
  Last RMS-Density change    ...    3.4818e-07  Tolerance :   5.0000e-09
  Last DIIS Error            ...    1.9746e-03  Tolerance :   5.0000e-07
  Last Orbital Gradient      ...    2.6870e-06  Tolerance :   1.0000e-05
  Last Orbital Rotation      ...    6.7977e-06  Tolerance :   1.0000e-05


----------------
ORBITAL ENERGIES
----------------

  NO   OCC          E(Eh)            E(eV) 
   0   2.0000     -20.613687      -560.9269 
   1   2.0000     -20.552506      -559.2621 
   2   2.0000     -15.550146      -423.1410 
   3   2.0000     -11.380805      -309.6874 
   4   2.0000     -11.275191      -306.8135 
   5   2.0000     -11.236631      -305.7643 
   6   2.0000     -11.235947      -305.7457 
   7   2.0000     -11.231039      -305.6121 
   8   2.0000     -11.230736      -305.6039 
   9   2.0000     -11.228023      -305.5300 
  10   2.0000     -11.227808      -305.5242 
  11   2.0000     -11.227462      -305.5148 
  12   2.0000      -1.466083       -39.8942 
  13   2.0000      -1.360457       -37.0199 
  14   2.0000      -1.200579       -32.6694 
  15   2.0000      -1.156826       -31.4788 
  16   2.0000      -1.061224       -28.8774 
  17   2.0000      -1.014576       -27.6080 
  18   2.0000      -0.981944       -26.7200 
  19   2.0000      -0.907293       -24.6887 
  20   2.0000      -0.828886       -22.5551 
  21   2.0000      -0.814861       -22.1735 
  22   2.0000      -0.782758       -21.2999 
  23   2.0000      -0.713956       -19.4277 
  24   2.0000      -0.700250       -19.0548 
  25   2.0000      -0.693689       -18.8762 
  26   2.0000      -0.660192       -17.9647 
  27   2.0000      -0.638962       -17.3870 
  28   2.0000      -0.634969       -17.2784 
  29   2.0000      -0.624214       -16.9857 
  30   2.0000      -0.595808       -16.2128 
  31   2.0000      -0.586712       -15.9652 
  32   2.0000      -0.579405       -15.7664 
  33   2.0000      -0.553081       -15.0501 
  34   2.0000      -0.543545       -14.7906 
  35   2.0000      -0.515247       -14.0206 
  36   2.0000      -0.495306       -13.4780 
  37   2.0000      -0.485400       -13.2084 
  38   2.0000      -0.484213       -13.1761 
  39   2.0000      -0.470627       -12.8064 
  40   2.0000      -0.452724       -12.3192 
  41   2.0000      -0.401679       -10.9302 
  42   2.0000      -0.334227        -9.0948 
  43   2.0000      -0.324325        -8.8253 
  44   0.0000       0.141651         3.8545 
  45   0.0000       0.144867         3.9420 
  46   0.0000       0.184104         5.0097 
  47   0.0000       0.225961         6.1487 
  48   0.0000       0.234919         6.3925 
  49   0.0000       0.239449         6.5157 
  50   0.0000       0.262119         7.1326 
  51   0.0000       0.280313         7.6277 
  52   0.0000       0.296378         8.0649 
  53   0.0000       0.319223         8.6865 
  54   0.0000       0.327489         8.9114 
*Only the first 10 virtual orbitals were printed.

                    ********************************
                    * MULLIKEN POPULATION ANALYSIS *
                    ********************************

-----------------------
MULLIKEN ATOMIC CHARGES
-----------------------
   0 C :   -0.154837
   1 C :   -0.144160
   2 C :   -0.147521
   3 H :    0.149374
   4 H :    0.146045
   5 C :   -0.158611
   6 C :   -0.243465
   7 H :    0.148783
   8 C :   -0.010438
   9 H :    0.147769
  10 C :   -0.140642
  11 H :    0.153297
  12 C :   -0.016643
  13 H :    0.139597
  14 H :    0.158741
  15 C :    0.789915
  16 H :    0.369113
  17 N :   -0.685713
  18 O :   -0.623614
  19 H :    0.273050
  20 O :   -0.596561
  21 H :    0.161471
  22 H :    0.285051
Sum of atomic charges:    0.0000000

--------------------------------
MULLIKEN REDUCED ORBITAL CHARGES
--------------------------------
  0 C s       :     3.145352  s :     3.145352
      pz      :     0.935786  p :     2.964885
      px      :     1.015388
      py      :     1.013711
      dz2     :     0.010969  d :     0.044599
      dxz     :     0.009855
      dyz     :     0.008804
      dx2y2   :     0.005878
      dxy     :     0.009093

  1 C s       :     3.145660  s :     3.145660
      pz      :     1.018913  p :     2.953470
      px      :     0.937305
      py      :     0.997252
      dz2     :     0.008625  d :     0.045029
      dxz     :     0.009572
      dyz     :     0.009515
      dx2y2   :     0.008822
      dxy     :     0.008495

  2 C s       :     3.134831  s :     3.134831
      pz      :     1.017489  p :     2.968317
      px      :     0.938783
      py      :     1.012044
      dz2     :     0.008306  d :     0.044373
      dxz     :     0.009567
      dyz     :     0.009506
      dx2y2   :     0.008696
      dxy     :     0.008298

  3 H s       :     0.836873  s :     0.836873
      pz      :     0.005831  p :     0.013753
      px      :     0.006005
      py      :     0.001917

  4 H s       :     0.840139  s :     0.840139
      pz      :     0.007023  p :     0.013816
      px      :     0.001793
      py      :     0.005000

  5 C s       :     3.135828  s :     3.135828
      pz      :     1.005366  p :     2.978367
      px      :     1.021311
      py      :     0.951690
      dz2     :     0.008499  d :     0.044416
      dxz     :     0.011151
      dyz     :     0.008395
      dx2y2   :     0.008582
      dxy     :     0.007790

  6 C s       :     3.253556  s :     3.253556
      pz      :     1.031180  p :     2.941660
      px      :     0.911656
      py      :     0.998824
      dz2     :     0.009358  d :     0.048249
      dxz     :     0.011999
      dyz     :     0.006696
      dx2y2   :     0.007251
      dxy     :     0.012945

  7 H s       :     0.837474  s :     0.837474
      pz      :     0.007052  p :     0.013743
      px      :     0.001752
      py      :     0.004939

  8 C s       :     3.123770  s :     3.123770
      pz      :     0.937412  p :     2.834953
      px      :     0.960099
      py      :     0.937443
      dz2     :     0.011361  d :     0.051715
      dxz     :     0.011650
      dyz     :     0.010126
      dx2y2   :     0.008689
      dxy     :     0.009889

  9 H s       :     0.838448  s :     0.838448
      pz      :     0.001782  p :     0.013783
      px      :     0.006355
      py      :     0.005645

 10 C s       :     3.144725  s :     3.144725
      pz      :     1.001224  p :     2.950835
      px      :     1.006289
      py      :     0.943321
      dz2     :     0.008700  d :     0.045082
      dxz     :     0.011281
      dyz     :     0.008349
      dx2y2   :     0.008814
      dxy     :     0.007938

 11 H s       :     0.832866  s :     0.832866
      pz      :     0.005902  p :     0.013838
      px      :     0.006001
      py      :     0.001935

 12 C s       :     3.194990  s :     3.194990
      pz      :     1.035439  p :     2.751112
      px      :     0.882209
      py      :     0.833463
      dz2     :     0.011763  d :     0.070542
      dxz     :     0.013777
      dyz     :     0.011372
      dx2y2   :     0.015108
      dxy     :     0.018522

 13 H s       :     0.847840  s :     0.847840
      pz      :     0.007560  p :     0.012563
      px      :     0.003118
      py      :     0.001885

 14 H s       :     0.828601  s :     0.828601
      pz      :     0.002783  p :     0.012658
      px      :     0.002359
      py      :     0.007515

 15 C s       :     2.955749  s :     2.955749
      pz      :     0.673624  p :     2.107600
      px      :     0.684714
      py      :     0.749262
      dz2     :     0.025437  d :     0.146736
      dxz     :     0.019043
      dyz     :     0.031910
      dx2y2   :     0.028219
      dxy     :     0.042127

 16 H s       :     0.589388  s :     0.589388
      pz      :     0.011431  p :     0.041499
      px      :     0.009895
      py      :     0.020173

 17 N s       :     3.606131  s :     3.606131
      pz      :     1.244743  p :     4.045037
      px      :     1.230714
      py      :     1.569580
      dz2     :     0.005376  d :     0.034545
      dxz     :     0.012853
      dyz     :     0.003262
      dx2y2   :     0.003781
      dxy     :     0.009274

 18 O s       :     3.836902  s :     3.836902
      pz      :     1.758011  p :     4.760977
      px      :     1.735348
      py      :     1.267618
      dz2     :     0.002937  d :     0.025735
      dxz     :     0.003883
      dyz     :     0.007432
      dx2y2   :     0.002685
      dxy     :     0.008797

 19 H s       :     0.700843  s :     0.700843
      pz      :     0.010483  p :     0.026107
      px      :     0.009140
      py      :     0.006484

 20 O s       :     3.874729  s :     3.874729
      pz      :     1.435463  p :     4.689271
      px      :     1.416578
      py      :     1.837229
      dz2     :     0.009842  d :     0.032561
      dxz     :     0.008931
      dyz     :     0.002726
      dx2y2   :     0.006884
      dxy     :     0.004178

 21 H s       :     0.826427  s :     0.826427
      pz      :     0.007514  p :     0.012103
      px      :     0.002863
      py      :     0.001726

 22 H s       :     0.688822  s :     0.688822
      pz      :     0.012640  p :     0.026126
      px      :     0.006862
      py      :     0.006624



                     *******************************
                     * LOEWDIN POPULATION ANALYSIS *
                     *******************************

----------------------
LOEWDIN ATOMIC CHARGES
----------------------
   0 C :   -0.080159
   1 C :   -0.069857
   2 C :   -0.077592
   3 H :    0.075712
   4 H :    0.072888
   5 C :   -0.082448
   6 C :   -0.092026
   7 H :    0.075275
   8 C :   -0.022398
   9 H :    0.074843
  10 C :   -0.067174
  11 H :    0.074773
  12 C :   -0.020193
  13 H :    0.073521
  14 H :    0.083155
  15 C :    0.228287
  16 H :    0.200114
  17 N :   -0.276434
  18 O :   -0.199405
  19 H :    0.130312
  20 O :   -0.316964
  21 H :    0.079735
  22 H :    0.136034

-------------------------------
LOEWDIN REDUCED ORBITAL CHARGES
-------------------------------
  0 C s       :     2.885935  s :     2.885935
      pz      :     1.042067  p :     3.100408
      px      :     1.035575
      py      :     1.022766
      dz2     :     0.024057  d :     0.093817
      dxz     :     0.021960
      dyz     :     0.019066
      dx2y2   :     0.011409
      dxy     :     0.017324

  1 C s       :     2.886448  s :     2.886448
      pz      :     1.036161  p :     3.088802
      px      :     1.035784
      py      :     1.016856
      dz2     :     0.017785  d :     0.094608
      dxz     :     0.021077
      dyz     :     0.018488
      dx2y2   :     0.018704
      dxy     :     0.018554

  2 C s       :     2.883452  s :     2.883452
      pz      :     1.036200  p :     3.100163
      px      :     1.036887
      py      :     1.027077
      dz2     :     0.017487  d :     0.093977
      dxz     :     0.021064
      dyz     :     0.018571
      dx2y2   :     0.018496
      dxy     :     0.018358

  3 H s       :     0.883053  s :     0.883053
      pz      :     0.017135  p :     0.041235
      px      :     0.017577
      py      :     0.006523

  4 H s       :     0.885718  s :     0.885718
      pz      :     0.020346  p :     0.041395
      px      :     0.006312
      py      :     0.014737

  5 C s       :     2.884924  s :     2.884924
      pz      :     1.038556  p :     3.103423
      px      :     1.039731
      py      :     1.025137
      dz2     :     0.017895  d :     0.094101
      dxz     :     0.022927
      dyz     :     0.018459
      dx2y2   :     0.017638
      dxy     :     0.017183

  6 C s       :     2.885348  s :     2.885348
      pz      :     1.053916  p :     3.114188
      px      :     1.011726
      py      :     1.048546
      dz2     :     0.017089  d :     0.092490
      dxz     :     0.023424
      dyz     :     0.012187
      dx2y2   :     0.014635
      dxy     :     0.025155

  7 H s       :     0.883496  s :     0.883496
      pz      :     0.020390  p :     0.041229
      px      :     0.006183
      py      :     0.014656

  8 C s       :     2.864890  s :     2.864890
      pz      :     1.041134  p :     3.045820
      px      :     1.011921
      py      :     0.992764
      dz2     :     0.025397  d :     0.111688
      dxz     :     0.025866
      dyz     :     0.021780
      dx2y2   :     0.017992
      dxy     :     0.020654

  9 H s       :     0.883747  s :     0.883747
      pz      :     0.006293  p :     0.041410
      px      :     0.018545
      py      :     0.016573

 10 C s       :     2.886215  s :     2.886215
      pz      :     1.036814  p :     3.086316
      px      :     1.031695
      py      :     1.017808
      dz2     :     0.018250  d :     0.094642
      dxz     :     0.022862
      dyz     :     0.018293
      dx2y2   :     0.018143
      dxy     :     0.017094

 11 H s       :     0.883614  s :     0.883614
      pz      :     0.017413  p :     0.041613
      px      :     0.017624
      py      :     0.006575

 12 C s       :     2.872429  s :     2.872429
      pz      :     1.055338  p :     3.006934
      px      :     0.981254
      py      :     0.970341
      dz2     :     0.021918  d :     0.140830
      dxz     :     0.026037
      dyz     :     0.022691
      dx2y2   :     0.032161
      dxy     :     0.038024

 13 H s       :     0.886550  s :     0.886550
      pz      :     0.022617  p :     0.039930
      px      :     0.010016
      py      :     0.007297

 14 H s       :     0.876319  s :     0.876319
      pz      :     0.009375  p :     0.040525
      px      :     0.008251
      py      :     0.022899

 15 C s       :     2.849045  s :     2.849045
      pz      :     0.810510  p :     2.604674
      px      :     0.861656
      py      :     0.932508
      dz2     :     0.049558  d :     0.317994
      dxz     :     0.044550
      dyz     :     0.070520
      dx2y2   :     0.058770
      dxy     :     0.094596

 16 H s       :     0.679803  s :     0.679803
      pz      :     0.034755  p :     0.120083
      px      :     0.030857
      py      :     0.054471

 17 N s       :     3.187807  s :     3.187807
      pz      :     1.225634  p :     4.027429
      px      :     1.244284
      py      :     1.557511
      dz2     :     0.009564  d :     0.061198
      dxz     :     0.022303
      dyz     :     0.005823
      dx2y2   :     0.007564
      dxy     :     0.015945

 18 O s       :     3.458138  s :     3.458138
      pz      :     1.719368  p :     4.692444
      px      :     1.707123
      py      :     1.265952
      dz2     :     0.005178  d :     0.048823
      dxz     :     0.004883
      dyz     :     0.013011
      dx2y2   :     0.010040
      dxy     :     0.015710

 19 H s       :     0.788260  s :     0.788260
      pz      :     0.030323  p :     0.081428
      px      :     0.028553
      py      :     0.022552

 20 O s       :     3.547633  s :     3.547633
      pz      :     1.459407  p :     4.712242
      px      :     1.459456
      py      :     1.793379
      dz2     :     0.010940  d :     0.057089
      dxz     :     0.020952
      dyz     :     0.005381
      dx2y2   :     0.011666
      dxy     :     0.008150

 21 H s       :     0.880280  s :     0.880280
      pz      :     0.023379  p :     0.039985
      px      :     0.010515
      py      :     0.006090

 22 H s       :     0.781852  s :     0.781852
      pz      :     0.038495  p :     0.082114
      px      :     0.021646
      py      :     0.021973



                      *****************************
                      * MAYER POPULATION ANALYSIS *
                      *****************************

  NA   - Mulliken gross atomic population
  ZA   - Total nuclear charge
  QA   - Mulliken gross atomic charge
  VA   - Mayer's total valence
  BVA  - Mayer's bonded valence
  FA   - Mayer's free valence

  ATOM       NA         ZA         QA         VA         BVA        FA
  0 C      6.1548     6.0000    -0.1548     3.9272     3.9272    -0.0000
  1 C      6.1442     6.0000    -0.1442     3.9265     3.9265     0.0000
  2 C      6.1475     6.0000    -0.1475     3.9296     3.9296     0.0000
  3 H      0.8506     1.0000     0.1494     0.9533     0.9533    -0.0000
  4 H      0.8540     1.0000     0.1460     0.9548     0.9548    -0.0000
  5 C      6.1586     6.0000    -0.1586     3.9331     3.9331     0.0000
  6 C      6.2435     6.0000    -0.2435     3.8052     3.8052     0.0000
  7 H      0.8512     1.0000     0.1488     0.9536     0.9536     0.0000
  8 C      6.0104     6.0000    -0.0104     3.8676     3.8676     0.0000
  9 H      0.8522     1.0000     0.1478     0.9540     0.9540     0.0000
 10 C      6.1406     6.0000    -0.1406     3.9281     3.9281    -0.0000
 11 H      0.8467     1.0000     0.1533     0.9548     0.9548     0.0000
 12 C      6.0166     6.0000    -0.0166     3.7437     3.7437     0.0000
 13 H      0.8604     1.0000     0.1396     0.9517     0.9517     0.0000
 14 H      0.8413     1.0000     0.1587     0.9487     0.9487     0.0000
 15 C      5.2101     6.0000     0.7899     3.6697     3.6697     0.0000
 16 H      0.6309     1.0000     0.3691     0.8744     0.8744     0.0000
 17 N      7.6857     7.0000    -0.6857     2.7703     2.7703     0.0000
 18 O      8.6236     8.0000    -0.6236     1.8393     1.8393     0.0000
 19 H      0.7270     1.0000     0.2730     0.9046     0.9046     0.0000
 20 O      8.5966     8.0000    -0.5966     1.8865     1.8865    -0.0000
 21 H      0.8385     1.0000     0.1615     0.9430     0.9430     0.0000
 22 H      0.7149     1.0000     0.2851     0.9055     0.9055    -0.0000

  Mayer bond orders larger than 0.100000
B(  0-C ,  1-C ) :   1.4542 B(  0-C ,  9-H ) :   0.9623 B(  0-C , 10-C ) :   1.4455 
B(  1-C ,  5-C ) :   1.4456 B(  1-C ,  7-H ) :   0.9618 B(  2-C ,  4-H ) :   0.9595 
B(  2-C ,  8-C ) :   1.4410 B(  2-C , 10-C ) :   1.4553 B(  3-H , 10-C ) :   0.9614 
B(  5-C ,  8-C ) :   1.4462 B(  5-C , 11-H ) :   0.9569 B(  6-C ,  8-C ) :   0.9679 
B(  6-C , 12-C ) :   0.9537 B(  6-C , 13-H ) :   0.9699 B(  6-C , 14-H ) :   0.9665 
B( 12-C , 15-C ) :   0.9001 B( 12-C , 17-N ) :   0.9924 B( 12-C , 21-H ) :   0.9570 
B( 15-C , 18-O ) :   0.9795 B( 15-C , 20-O ) :   1.8201 B( 16-H , 18-O ) :   0.8410 
B( 17-N , 19-H ) :   0.9098 B( 17-N , 22-H ) :   0.8963 

-------
TIMINGS
-------

Total SCF time: 0 days 0 hours 0 min 37 sec 

Total time                  ....      37.844 sec
Sum of individual times     ....      36.104 sec  ( 95.4%)

SCF preparation             ....       0.019 sec  (  0.1%)
Fock matrix formation       ....      35.990 sec  ( 95.1%)
  Startup                   ....       0.001 sec  (  0.0% of F)
  Coulomb+Exchange Fock     ....      37.709 sec  (104.8% of F)
Diagonalization             ....       0.000 sec  (  0.0%)
Density matrix formation    ....       0.007 sec  (  0.0%)
Total Energy calculation    ....       0.001 sec  (  0.0%)
Population analysis         ....       0.003 sec  (  0.0%)
Orbital Transformation      ....       0.009 sec  (  0.0%)
Orbital Orthonormalization  ....       0.000 sec  (  0.0%)
DIIS solution               ....       0.043 sec  (  0.1%)
SOSCF solution              ....       0.029 sec  (  0.1%)
Finished LeanSCF after  37.8 sec

Maximum memory used throughout the entire LEANSCF-calculation: 17.9 MB

------------------------------------------------------------------------------
                                ORCA  MP2 
------------------------------------------------------------------------------

Freezing NCore=24 chemical core electrons
MP2 will be done in the AO integral direct mode
The Q1-step will be done using symmetric double matrices
Dimension of the basis                    ...  223
Memory devoted for MP2                    ... 4096 MB   
Memory needed for all in one shot         ... 1361 MB
Number of MOs that can be treated together...   95      
MP2 density construction                  ... relaxed
The MP2 gradient is requested => amplitudes will be stored on disk
Total number of MOs              ...   32
Number of MOs treated per batch  ...   32 
Number of batches necessary      ...    1 
OPERATORS   0/  0 PASS   0
-----------------------------------------------
 MP2 CORRELATION ENERGY   :     -1.708564384 Eh
-----------------------------------------------


---------------------
MP2 DENSITY FORMATION
---------------------

Completing the external part of the density      ... done
Storing the unrelaxed density                    ... done

Calculating G(D)                                 ... done
Completing the Lagrangian                        ... done
Solving the Z-vector equations                   ... 
-------------------
SHARK CP-SCF DRIVER
-------------------

Dimension of the orbital basis          ...    223
Dimension of the CPSCF-problem          ...   7876
Number of operators                     ...      1
Max. number of iterations               ...    128
Convergence Tolerance                   ... 1.0e-04
Number of perturbations                 ...      1
Perturbation type                       ... REAL

----------------------------
POPLE LINEAR EQUATION SOLVER
----------------------------

  ITERATION   0:   ||err||_max =   1.4509e-01 (   4.2 sec)
  ITERATION   1:   ||err||_max =   4.0214e-02 (   4.2 sec)
  ITERATION   2:   ||err||_max =   1.6199e-02 (   4.4 sec)
  ITERATION   3:   ||err||_max =   4.9831e-03 (   4.3 sec)
  ITERATION   4:   ||err||_max =   2.0905e-03 (   4.3 sec)
  ITERATION   5:   ||err||_max =   8.8671e-04 (   4.3 sec)
  ITERATION   6:   ||err||_max =   3.7059e-04 (   4.3 sec)
  ITERATION   7:   ||err||_max =   1.5190e-04 (   4.3 sec)
  ITERATION   8:   ||err||_max =   4.8926e-05 (   4.3 sec)
                                                 ... done
Finalizing the relaxed density                   ... done
Transforming P to the AO basis                   ... done
Storing the relaxed density                      ... done

------------------------------------
ENERGY WEIGHTED DENSITY FINALIZATION
------------------------------------

Gathering the parts of the W-matrix              ...                                                      done
Forming the Z-density                            ... done
Transforming Z to the AO basis                   ... done
Calculating G(Z)                                 ... done
Finalizing the W-matrix                          ...                                                      done
Transforming W to the AO basis and storing       ... done

                *********************************************
                * UNRELAXED MP2 DENSITY POPULATION ANALYSIS *
                *********************************************

------------------------------------------------------------------------------
                           ORCA POPULATION ANALYSIS
------------------------------------------------------------------------------
Input electron density              ... 1.pmp2ur
BaseName (.gbw .S,...)              ... 1

                    ********************************
                    * MULLIKEN POPULATION ANALYSIS *
                    ********************************

-----------------------
MULLIKEN ATOMIC CHARGES
-----------------------
   0 C :   -0.155321
   1 C :   -0.145816
   2 C :   -0.148025
   3 H :    0.150652
   4 H :    0.147397
   5 C :   -0.159003
   6 C :   -0.244271
   7 H :    0.150060
   8 C :   -0.012789
   9 H :    0.149080
  10 C :   -0.142365
  11 H :    0.154556
  12 C :   -0.022185
  13 H :    0.140352
  14 H :    0.159364
  15 C :    0.755803
  16 H :    0.365828
  17 N :   -0.677833
  18 O :   -0.609425
  19 H :    0.271916
  20 O :   -0.573415
  21 H :    0.162055
  22 H :    0.283385
Sum of atomic charges:    0.0000000

--------------------------------
MULLIKEN REDUCED ORBITAL CHARGES
--------------------------------
  0 C s       :     3.144475  s :     3.144475
      pz      :     0.931036  p :     2.949415
      px      :     1.009993
      py      :     1.008386
      dz2     :     0.014774  d :     0.061431
      dxz     :     0.013089
      dyz     :     0.012009
      dx2y2   :     0.009070
      dxy     :     0.012489
  1 C s       :     3.144665  s :     3.144665
      pz      :     1.013956  p :     2.939375
      px      :     0.932743
      py      :     0.992676
      dz2     :     0.011974  d :     0.061776
      dxz     :     0.012751
      dyz     :     0.012929
      dx2y2   :     0.012492
      dxy     :     0.011631
  2 C s       :     3.134369  s :     3.134369
      pz      :     1.011867  p :     2.952270
      px      :     0.933979
      py      :     1.006423
      dz2     :     0.011669  d :     0.061386
      dxz     :     0.012785
      dyz     :     0.012946
      dx2y2   :     0.012463
      dxy     :     0.011523
  3 H s       :     0.833006  s :     0.833006
      pz      :     0.006628  p :     0.016342
      px      :     0.006797
      py      :     0.002917
  4 H s       :     0.836160  s :     0.836160
      pz      :     0.007775  p :     0.016443
      px      :     0.002802
      py      :     0.005867
  5 C s       :     3.135421  s :     3.135421
      pz      :     0.999947  p :     2.962117
      px      :     1.015445
      py      :     0.946725
      dz2     :     0.011883  d :     0.061465
      dxz     :     0.014770
      dyz     :     0.011555
      dx2y2   :     0.012343
      dxy     :     0.010914
  6 C s       :     3.249982  s :     3.249982
      pz      :     1.026457  p :     2.929593
      px      :     0.908248
      py      :     0.994887
      dz2     :     0.012633  d :     0.064696
      dxz     :     0.015174
      dyz     :     0.010071
      dx2y2   :     0.010875
      dxy     :     0.015944
  7 H s       :     0.833604  s :     0.833604
      pz      :     0.007791  p :     0.016336
      px      :     0.002748
      py      :     0.005798
  8 C s       :     3.123009  s :     3.123009
      pz      :     0.932935  p :     2.820438
      px      :     0.954550
      py      :     0.932953
      dz2     :     0.015251  d :     0.069341
      dxz     :     0.015108
      dyz     :     0.013485
      dx2y2   :     0.012161
      dxy     :     0.013337
  9 H s       :     0.834547  s :     0.834547
      pz      :     0.002770  p :     0.016373
      px      :     0.007132
      py      :     0.006471
 10 C s       :     3.143731  s :     3.143731
      pz      :     0.996253  p :     2.936827
      px      :     1.001391
      py      :     0.939183
      dz2     :     0.012040  d :     0.061807
      dxz     :     0.014852
      dyz     :     0.011466
      dx2y2   :     0.012470
      dxy     :     0.010979
 11 H s       :     0.828984  s :     0.828984
      pz      :     0.006706  p :     0.016460
      px      :     0.006807
      py      :     0.002947
 12 C s       :     3.191890  s :     3.191890
      pz      :     1.030592  p :     2.744209
      px      :     0.880388
      py      :     0.833229
      dz2     :     0.014986  d :     0.086087
      dxz     :     0.016832
      dyz     :     0.014608
      dx2y2   :     0.018371
      dxy     :     0.021289
 13 H s       :     0.844293  s :     0.844293
      pz      :     0.008302  p :     0.015354
      px      :     0.004117
      py      :     0.002935
 14 H s       :     0.825270  s :     0.825270
      pz      :     0.003759  p :     0.015366
      px      :     0.003359
      py      :     0.008248
 15 C s       :     2.957637  s :     2.957637
      pz      :     0.683711  p :     2.129235
      px      :     0.693156
      py      :     0.752368
      dz2     :     0.027353  d :     0.157325
      dxz     :     0.020926
      dyz     :     0.034278
      dx2y2   :     0.030369
      dxy     :     0.044400
 16 H s       :     0.591513  s :     0.591513
      pz      :     0.011959  p :     0.042659
      px      :     0.010475
      py      :     0.020225
 17 N s       :     3.601450  s :     3.601450
      pz      :     1.238465  p :     4.019923
      px      :     1.223480
      py      :     1.557978
      dz2     :     0.009574  d :     0.056460
      dxz     :     0.017021
      dyz     :     0.007792
      dx2y2   :     0.008553
      dxy     :     0.013519
 18 O s       :     3.832592  s :     3.832592
      pz      :     1.745273  p :     4.728007
      px      :     1.722796
      py      :     1.259938
      dz2     :     0.007537  d :     0.048826
      dxz     :     0.008412
      dyz     :     0.012093
      dx2y2   :     0.007446
      dxy     :     0.013338
 19 H s       :     0.699949  s :     0.699949
      pz      :     0.011010  p :     0.028135
      px      :     0.009779
      py      :     0.007346
 20 O s       :     3.870128  s :     3.870128
      pz      :     1.422183  p :     4.649037
      px      :     1.404746
      py      :     1.822109
      dz2     :     0.014074  d :     0.054249
      dxz     :     0.012834
      dyz     :     0.007321
      dx2y2   :     0.011174
      dxy     :     0.008847
 21 H s       :     0.823121  s :     0.823121
      pz      :     0.008229  p :     0.014823
      px      :     0.003835
      py      :     0.002759
 22 H s       :     0.688482  s :     0.688482
      pz      :     0.013037  p :     0.028133
      px      :     0.007604
      py      :     0.007492


                     *******************************
                     * LOEWDIN POPULATION ANALYSIS *
                     *******************************

----------------------
LOEWDIN ATOMIC CHARGES
----------------------
   0 C :   -0.080003
   1 C :   -0.070794
   2 C :   -0.077136
   3 H :    0.076161
   4 H :    0.073364
   5 C :   -0.081956
   6 C :   -0.092023
   7 H :    0.075720
   8 C :   -0.024256
   9 H :    0.075320
  10 C :   -0.068116
  11 H :    0.075217
  12 C :   -0.023827
  13 H :    0.073727
  14 H :    0.083327
  15 C :    0.203604
  16 H :    0.197681
  17 N :   -0.271961
  18 O :   -0.190330
  19 H :    0.129667
  20 O :   -0.298381
  21 H :    0.079899
  22 H :    0.135096

-------------------------------
LOEWDIN REDUCED ORBITAL CHARGES
-------------------------------
  0 C s       :     2.885799  s :     2.885799
      pz      :     1.034901  p :     3.080422
      px      :     1.029012
      py      :     1.016509
      dz2     :     0.028302  d :     0.113781
      dxz     :     0.026131
      dyz     :     0.023245
      dx2y2   :     0.014938
      dxy     :     0.021165
  1 C s       :     2.886283  s :     2.886283
      pz      :     1.029875  p :     3.070026
      px      :     1.029051
      py      :     1.011100
      dz2     :     0.021513  d :     0.114485
      dxz     :     0.025196
      dyz     :     0.022302
      dx2y2   :     0.022726
      dxy     :     0.022748
  2 C s       :     2.883317  s :     2.883317
      pz      :     1.029374  p :     3.079431
      px      :     1.029558
      py      :     1.020499
      dz2     :     0.021318  d :     0.114388
      dxz     :     0.025258
      dyz     :     0.022478
      dx2y2   :     0.022635
      dxy     :     0.022699
  3 H s       :     0.877953  s :     0.877953
      pz      :     0.018803  p :     0.045886
      px      :     0.019248
      py      :     0.007836
  4 H s       :     0.880480  s :     0.880480
      pz      :     0.022138  p :     0.046157
      px      :     0.007698
      py      :     0.016320
  5 C s       :     2.884800  s :     2.884800
      pz      :     1.031544  p :     3.082588
      px      :     1.032837
      py      :     1.018207
      dz2     :     0.021858  d :     0.114568
      dxz     :     0.026967
      dyz     :     0.022650
      dx2y2   :     0.021701
      dxy     :     0.021392
  6 C s       :     2.885083  s :     2.885083
      pz      :     1.047689  p :     3.095160
      px      :     1.005364
      py      :     1.042107
      dz2     :     0.020907  d :     0.111780
      dxz     :     0.027293
      dyz     :     0.015991
      dx2y2   :     0.018675
      dxy     :     0.028914
  7 H s       :     0.878393  s :     0.878393
      pz      :     0.022155  p :     0.045886
      px      :     0.007526
      py      :     0.016205
  8 C s       :     2.865199  s :     2.865199
      pz      :     1.034067  p :     3.026026
      px      :     1.005039
      py      :     0.986919
      dz2     :     0.029759  d :     0.133032
      dxz     :     0.030323
      dyz     :     0.026228
      dx2y2   :     0.021936
      dxy     :     0.024787
  9 H s       :     0.878634  s :     0.878634
      pz      :     0.007645  p :     0.046046
      px      :     0.020237
      py      :     0.018164
 10 C s       :     2.886038  s :     2.886038
      pz      :     1.030385  p :     3.067589
      px      :     1.025447
      py      :     1.011758
      dz2     :     0.022094  d :     0.114488
      dxz     :     0.026777
      dyz     :     0.022380
      dx2y2   :     0.022063
      dxy     :     0.021175
 11 H s       :     0.878413  s :     0.878413
      pz      :     0.019109  p :     0.046370
      px      :     0.019336
      py      :     0.007925
 12 C s       :     2.872701  s :     2.872701
      pz      :     1.049092  p :     2.992293
      px      :     0.976630
      py      :     0.966571
      dz2     :     0.025700  d :     0.158833
      dxz     :     0.029735
      dyz     :     0.026310
      dx2y2   :     0.035516
      dxy     :     0.041572
 13 H s       :     0.881494  s :     0.881494
      pz      :     0.024561  p :     0.044780
      px      :     0.011548
      py      :     0.008671
 14 H s       :     0.871416  s :     0.871416
      pz      :     0.010782  p :     0.045257
      px      :     0.009680
      py      :     0.024795
 15 C s       :     2.849835  s :     2.849835
      pz      :     0.818359  p :     2.617025
      px      :     0.866999
      py      :     0.931668
      dz2     :     0.051358  d :     0.329536
      dxz     :     0.047928
      dyz     :     0.072569
      dx2y2   :     0.061212
      dxy     :     0.096469
 16 H s       :     0.679746  s :     0.679746
      pz      :     0.035563  p :     0.122573
      px      :     0.031672
      py      :     0.055339
 17 N s       :     3.185967  s :     3.185967
      pz      :     1.218855  p :     4.000882
      px      :     1.236280
      py      :     1.545747
      dz2     :     0.014049  d :     0.085112
      dxz     :     0.027146
      dyz     :     0.010471
      dx2y2   :     0.012526
      dxy     :     0.020921
 18 O s       :     3.456197  s :     3.456197
      pz      :     1.707160  p :     4.660678
      px      :     1.695096
      py      :     1.258422
[...]
      pz      :     1.029370  p :     3.071078
      px      :     1.028464
      py      :     1.013244
      dz2     :     0.019876  d :     0.106520
      dxz     :     0.023290
      dyz     :     0.020785
      dx2y2   :     0.021307
      dxy     :     0.021262
  2 C s       :     2.895357  s :     2.895357
      pz      :     1.026456  p :     3.070096
      px      :     1.026796
      py      :     1.016844
      dz2     :     0.019595  d :     0.106673
      dxz     :     0.023139
      dyz     :     0.021078
      dx2y2   :     0.021498
      dxy     :     0.021363
  3 H s       :     0.880327  s :     0.880327
      pz      :     0.017779  p :     0.045055
      px      :     0.019200
      py      :     0.008076
  4 H s       :     0.882045  s :     0.882045
      pz      :     0.021568  p :     0.045162
      px      :     0.007840
      py      :     0.015754
  5 C s       :     2.897034  s :     2.897034
      pz      :     1.029777  p :     3.073974
      px      :     1.030423
      py      :     1.013774
      dz2     :     0.020168  d :     0.106593
      dxz     :     0.025132
      dyz     :     0.021250
      dx2y2   :     0.020415
      dxy     :     0.019628
  6 C s       :     2.889083  s :     2.889083
      pz      :     1.058583  p :     3.113982
      px      :     1.012451
      py      :     1.042947
      dz2     :     0.018875  d :     0.105373
      dxz     :     0.024774
      dyz     :     0.016787
      dx2y2   :     0.018227
      dxy     :     0.026711
  7 H s       :     0.880433  s :     0.880433
      pz      :     0.021765  p :     0.045074
      px      :     0.007733
      py      :     0.015576
  8 C s       :     2.874883  s :     2.874883
      pz      :     1.031151  p :     3.025760
      px      :     1.004110
      py      :     0.990499
      dz2     :     0.027497  d :     0.124540
      dxz     :     0.028609
      dyz     :     0.024624
      dx2y2   :     0.020692
      dxy     :     0.023118
  9 H s       :     0.880617  s :     0.880617
      pz      :     0.007997  p :     0.045135
      px      :     0.019393
      py      :     0.017745
 10 C s       :     2.896091  s :     2.896091
      pz      :     1.029570  p :     3.069139
      px      :     1.026222
      py      :     1.013347
      dz2     :     0.020391  d :     0.106508
      dxz     :     0.025102
      dyz     :     0.020941
      dx2y2   :     0.020549
      dxy     :     0.019524
 11 H s       :     0.876879  s :     0.876879
      pz      :     0.018093  p :     0.045747
      px      :     0.019590
      py      :     0.008065
 12 C s       :     2.876425  s :     2.876425
      pz      :     1.056181  p :     3.012191
      px      :     0.974648
      py      :     0.981362
      dz2     :     0.026729  d :     0.151275
      dxz     :     0.026671
      dyz     :     0.023788
      dx2y2   :     0.036386
      dxy     :     0.037700
 13 H s       :     0.877968  s :     0.877968
      pz      :     0.023867  p :     0.044576
      px      :     0.011449
      py      :     0.009260
 14 H s       :     0.870982  s :     0.870982
      pz      :     0.011481  p :     0.044945
      px      :     0.009854
      py      :     0.023610
 15 C s       :     2.861499  s :     2.861499
      pz      :     0.914888  p :     2.689414
      px      :     0.838554
      py      :     0.935972
      dz2     :     0.060191  d :     0.306875
      dxz     :     0.047252
      dyz     :     0.100376
      dx2y2   :     0.040382
      dxy     :     0.058673
 16 H s       :     0.691868  s :     0.691868
      pz      :     0.037231  p :     0.119831
      px      :     0.031583
      py      :     0.051017
 17 N s       :     3.202840  s :     3.202840
      pz      :     1.207907  p :     3.973493
      px      :     1.203762
      py      :     1.561824
      dz2     :     0.014223  d :     0.082953
      dxz     :     0.025817
      dyz     :     0.009819
      dx2y2   :     0.012508
      dxy     :     0.020587
 18 O s       :     3.481359  s :     3.481359
      pz      :     1.641861  p :     4.609851
      px      :     1.702938
      py      :     1.265053
      dz2     :     0.010329  d :     0.073031
      dxz     :     0.010046
      dyz     :     0.023996
      dx2y2   :     0.013925
      dxy     :     0.014736
 19 H s       :     0.787370  s :     0.787370
      pz      :     0.029562  p :     0.083678
      px      :     0.029385
      py      :     0.024732
 20 O s       :     3.561827  s :     3.561827
      pz      :     1.433251  p :     4.598245
      px      :     1.413261
      py      :     1.751733
      dz2     :     0.021395  d :     0.078682
      dxz     :     0.024180
      dyz     :     0.013838
      dx2y2   :     0.010132
      dxy     :     0.009137
 21 H s       :     0.876013  s :     0.876013
      pz      :     0.025874  p :     0.044807
      px      :     0.011163
      py      :     0.007769
 22 H s       :     0.784448  s :     0.784448
      pz      :     0.040138  p :     0.084255
      px      :     0.021635
      py      :     0.022482


                      *****************************
                      * MAYER POPULATION ANALYSIS *
                      *****************************

  NA   - Mulliken gross atomic population
  ZA   - Total nuclear charge
  QA   - Mulliken gross atomic charge
  VA   - Mayer's total valence
  BVA  - Mayer's bonded valence
  FA   - Mayer's free valence

  ATOM       NA         ZA         QA         VA         BVA        FA
  0 C      6.1201     6.0000    -0.1201     4.0222     3.6968     0.3254
  1 C      6.1230     6.0000    -0.1230     4.0209     3.6959     0.3250
  2 C      6.1228     6.0000    -0.1228     4.0214     3.6903     0.3312
  3 H      0.8787     1.0000     0.1213     0.9652     0.9187     0.0465
  4 H      0.8823     1.0000     0.1177     0.9666     0.9191     0.0475
  5 C      6.1370     6.0000    -0.1370     4.0206     3.6881     0.3325
  6 C      6.2490     6.0000    -0.2490     3.9318     3.6605     0.2713
  7 H      0.8787     1.0000     0.1213     0.9653     0.9188     0.0465
  8 C      5.9752     6.0000     0.0248     4.0008     3.6583     0.3426
  9 H      0.8794     1.0000     0.1206     0.9655     0.9190     0.0465
 10 C      6.1202     6.0000    -0.1202     4.0244     3.6998     0.3246
 11 H      0.8682     1.0000     0.1318     0.9681     0.9212     0.0470
 12 C      6.0367     6.0000    -0.0367     3.8935     3.6172     0.2763
 13 H      0.8714     1.0000     0.1286     0.9641     0.9147     0.0494
 14 H      0.8569     1.0000     0.1431     0.9607     0.9121     0.0486
 15 C      5.4275     6.0000     0.5725     3.9317     3.6521     0.2796
 16 H      0.6598     1.0000     0.3402     0.9036     0.8593     0.0443
 17 N      7.6102     7.0000    -0.6102     3.0262     2.7025     0.3238
 18 O      8.5135     8.0000    -0.5135     2.2241     1.8710     0.3531
 19 H      0.7431     1.0000     0.2569     0.9170     0.8707     0.0463
 20 O      8.4527     8.0000    -0.4527     2.2994     1.9091     0.3903
 21 H      0.8572     1.0000     0.1428     0.9562     0.9085     0.0477
 22 H      0.7362     1.0000     0.2638     0.9257     0.8799     0.0458

  Mayer bond orders larger than 0.100000
B(  0-C ,  1-C ) :   1.3559 B(  0-C ,  9-H ) :   0.9176 B(  0-C , 10-C ) :   1.3505 
B(  1-C ,  5-C ) :   1.3472 B(  1-C ,  7-H ) :   0.9167 B(  2-C ,  4-H ) :   0.9127 
B(  2-C ,  8-C ) :   1.3370 B(  2-C , 10-C ) :   1.3553 B(  3-H , 10-C ) :   0.9165 
B(  5-C ,  8-C ) :   1.3382 B(  5-C , 11-H ) :   0.9079 B(  6-C ,  8-C ) :   0.9260 
B(  6-C , 12-C ) :   0.9072 B(  6-C , 13-H ) :   0.9160 B(  6-C , 14-H ) :   0.9162 
B( 12-C , 15-C ) :   0.8613 B( 12-C , 17-N ) :   0.9603 B( 12-C , 21-H ) :   0.9086 
B( 15-C , 18-O ) :   1.0020 B( 15-C , 20-O ) :   1.7822 B( 16-H , 18-O ) :   0.8126 
B( 17-N , 19-H ) :   0.8727 B( 17-N , 22-H ) :   0.8613 


----------------------------------
MP2 DERIVATIVE INTEGRAL GENERATION
----------------------------------

Input SCF Electron Density              ... 1.scfp
Input Correlated Electron Density       ... 1.pmp2re
Input Energy Weighted Density           ... 1.wmp2.tmp
Input Wavefunction Amplitudes           ... 1.mp2tsaa.tmp

Nuclear repulsion gradient              ... done (  0.0 sec)
HCore & Overlap gradient  (SHARK)       ... done (  0.2 sec)
Analytic two-electron gradient terms    ... 
  Batch handling in the gradient evaluation:
  General contraction                   ... not used
  Memory available                      ... 4077.7 MB
  Memory per occupied orbital in Q2     ...   12.1 MB
  Memory per occupied orbital in Q3     ...    0.0 MB
  Total memory requirement per |i>      ...   12.2 MB
  Number of orbitals treated per batch  ...     32
  Number of batches to be done          ...      1
done ( 40.1 sec)

---------------------------------------
MP2 TOTAL ENERGY:     -553.145704978 Eh
---------------------------------------

The final MP2 gradient
  0:   0.00000196  -0.00001734   0.00000490
  1:  -0.00000912   0.00000691  -0.00000318
  2:   0.00001592   0.00000192  -0.00000054
  3:   0.00000122  -0.00000707   0.00000159
  4:  -0.00000293   0.00000499  -0.00000211
  5:   0.00001541  -0.00002239  -0.00002598
  6:  -0.00002485   0.00002296  -0.00003259
  7:   0.00000482  -0.00000059   0.00000032
  8:  -0.00002577   0.00000703   0.00005515
  9:  -0.00000377   0.00000450   0.00000093
 10:  -0.00001247   0.00000870  -0.00000708
 11:  -0.00000260   0.00000654  -0.00000020
 12:   0.00000389  -0.00002215   0.00002121
 13:   0.00002960   0.00000244   0.00001665
 14:  -0.00000906  -0.00000270  -0.00000940
 15:  -0.00003768   0.00002670   0.00003376
 16:   0.00001146   0.00001017  -0.00001718
 17:   0.00005209   0.00000760  -0.00002764
 18:  -0.00001019  -0.00002159   0.00000977
 19:  -0.00002345   0.00000903   0.00002122
 20:   0.00003104  -0.00001025  -0.00003263
 21:   0.00001044  -0.00000636  -0.00000076
 22:  -0.00001595  -0.00000903  -0.00000619

-----------------------------------
NORM OF THE MP2 GRADIENT:  0.000150
-----------------------------------

Maximum memory used throughout the entire MP2-calculation: 1448.7 MB

-------------------------   --------------------
FINAL SINGLE POINT ENERGY      -553.145704978299
-------------------------   --------------------

                                *** OPTIMIZATION RUN DONE ***


------------------------------------------------------------------------------
                              ORCA PROPERTY CALCULATIONS
------------------------------------------------------------------------------

GBWName                                 ... 1.gbw
Number of atoms                         ...     23
Number of basis functions               ...    223
Max core memory                         ...   4096 MB

Electric properties:
Dipole moment                           ... YES
Quadrupole moment                       ...  NO
Static polarizability (Dipole/Dipole)   ...  NO
Static polarizability (Dipole/Quad.)    ...  NO
Static polarizability (Quad./Quad.)     ...  NO
Static polarizability (Velocity)        ...  NO
Static hyperpolarizability              ...  NO

Atomic electric properties:
Dipole moment                           ...  NO
Quadrupole moment                       ...  NO
Static polarizability                   ...  NO

Choice of electric origin               ... Center of mass
Position of electric origin             ...    -6.415974     2.685912     0.275367

General magnetic properties:
Magnetizability                         ...  NO

EPR properties:
g-Tensor (aka g-matrix)                 ...  NO
Zero-Field splitting spin-orbit         ...  NO
Zero-field splitting spin-spin          ...  NO
Hyperfine couplings                     ...  NO (   0 nuclei)
Quadrupole couplings                    ...  NO (   0 nuclei)
Contact density                         ...  NO (   0 nuclei)

NMR properties:
Chemical shifts                         ...  NO (   0 nuclei)
Spin-rotation constants                 ...  NO (   0 nuclei)
Spin-spin couplings                     ...  NO (   0 nuclei,    0 pairs)

Choice of magnetic origin               ... GIAO
Position of magnetic origin             ...     0.000000     0.000000     0.000000

Properties with geometric perturbations:
SCF Hessian                             ...  NO
IR spectrum                             ...  NO
VCD spectrum                            ...  NO
X-ray spectroscopy properties:
SCF XES/XAS/RIXS spectra                ...  NO

SCF SOC stabilization energy            ...  NO
Diagonal Born-Oppenheimer correction    ...  NO

-------------
DIPOLE MOMENT
-------------

Method             : SCF
Type of density    : Electron Density
Multiplicity       :   1
Irrep              :   0
Energy             :  -551.4312773247295354 Eh
Basis              : AO
                                X                 Y                 Z
Electronic contribution:      1.594825195      -3.202280360      -0.556248043
Nuclear contribution   :     -1.799278911       2.732873073       0.936601431
                        -----------------------------------------
Total Dipole Moment    :     -0.204453716      -0.469407287       0.380353388
                        -----------------------------------------
Magnitude (a.u.)       :      0.637819114
Magnitude (Debye)      :      1.621207349



--------------------
Rotational spectrum 
--------------------
 
Rotational constants in cm-1:             0.058236             0.021019             0.018812 
Rotational constants in MHz :          1745.880248           630.121297           563.960564 

Dipole components along the rotational axes: 
x,y,z [a.u.] :    -0.253023     0.166554     0.561295 
x,y,z [Debye]:    -0.643133     0.423348     1.426699 

 

-------------
DIPOLE MOMENT
-------------

Method             : MP2
Type of density    : Electron Density
Multiplicity       :   1
Level              : Unrelaxed density
Irrep              :   0
Energy             :     0.0000000000000000 Eh
Basis              : AO
                                X                 Y                 Z
Electronic contribution:      1.614543673      -3.208966664      -0.581724529
Nuclear contribution   :     -1.799278911       2.732873073       0.936601431
                        -----------------------------------------
Total Dipole Moment    :     -0.184735238      -0.476093591       0.354876902
                        -----------------------------------------
Magnitude (a.u.)       :      0.621876058
Magnitude (Debye)      :      1.580683320



--------------------
Rotational spectrum 
--------------------
 
Rotational constants in cm-1:             0.058236             0.021019             0.018812 
Rotational constants in MHz :          1745.880248           630.121297           563.960564 

Dipole components along the rotational axes: 
x,y,z [a.u.] :    -0.240911     0.189521     0.541085 
x,y,z [Debye]:    -0.612348     0.481724     1.375330 

 

-------------
DIPOLE MOMENT
-------------

Method             : MP2
Type of density    : Electron Density
Multiplicity       :   1
Level              : Relaxed density
Irrep              :   0
Energy             :     0.0000000000000000 Eh
Basis              : AO
                                X                 Y                 Z
Electronic contribution:      1.715361382      -3.251007819      -0.658322748
Nuclear contribution   :     -1.799278911       2.732873073       0.936601431
                        -----------------------------------------
Total Dipole Moment    :     -0.083917529      -0.518134746       0.278278683
                        -----------------------------------------
Magnitude (a.u.)       :      0.594091569
Magnitude (Debye)      :      1.510060761



--------------------
Rotational spectrum 
--------------------
 
Rotational constants in cm-1:             0.058236             0.021019             0.018812 
Rotational constants in MHz :          1745.880248           630.121297           563.960564 

Dipole components along the rotational axes: 
x,y,z [a.u.] :    -0.171359     0.290724     0.488938 
x,y,z [Debye]:    -0.435559     0.738961     1.242782 

 

Dipole moment calculation done in   0.0 sec 

Maximum memory used throughout the entire PROP-calculation: 13.0 MB

--------------------------------
SUGGESTED CITATIONS FOR THIS RUN
--------------------------------

Below you find a list of papers that are relevant to this ORCA run
We neither can nor want to force you to cite these papers, but we appreciate if you do
You receive ORCA, which is the product of decades of hard work by many enthusiastic individuals, for free
The only thing we kindly ask in return is that you cite our papers,
We deeply appreciate it, if you show your appreciation for ORCA by not just citing the generic ORCA reference.

Please note that relegating all ORCA citations to the supporting information does *not* help us.
SI sections are not indexed - citations you put there will not count into any citation statistics
But we need these citations in order to attract the funding resources that allow us to do what we are doing

Therefore, if you are a happy ORCA user, please consider citing a few of the papers listed below in the main body of your paper

In addition to the list printed below, the program has created the file 1.bibtex that contains the list in bibtex format
You can import this file easily into all common literature databanks and citation aid programs


List of essential papers. We consider these as the minimum necessary citations

  1. Neese, F.
     Software update: the ORCA program system, version 6.0
     WIRES Comput. Molec. Sci. 2025 15(1), e70019
     doi.org/10.1002/wcms.7019

List of papers to cite with high priority. The work reported in these papers was absolutely
necessary for this run to complete.
Our perspective: the developers of density functionals and basis sets usually get cited in chemistry papers
Good! But without the algorithms to do something with them, the functionals or basis sets would not do anything.
Hence, in our opinion, the algorithm design and method developments papers are equally worthy of getting cited

  1. Neese, F.
     The SHARK Integral Generation and Digestion System
     J. Comp. Chem. 2022 44(3), 381
     doi.org/10.1002/jcc.26942

List of suggested additional citations. These are papers that are important in the 'surrounding' of 
of this run, or papers that preceded the highly important papers. If you like your results we are grateful for a citation.

  1. Neese, F.
     The ORCA program system
     WIRES Comput. Molec. Sci. 2012 2(1), 73-78
     doi.org/10.1002/wcms.81
  2. Neese, F.
     Software update: the ORCA program system, version 4.0
     WIRES Comput. Molec. Sci. 2018 8(1), 1-6
     doi.org/10.1002/wcms.1327
  3. Neese, F.; Wennmohs, F.; Becker, U.; Riplinger, C.
     The ORCA quantum chemistry program package
     J. Chem. Phys. 2020 152(22), 224108
     doi.org/10.1063/5.0004608
  4. Neese, F.
     Software update: The ORCA program system—Version 5.0
     WIRES Comput. Molec. Sci. 2022 12(1), e1606
     doi.org/10.1002/wcms.1606

List of optional additional citations

  1. Neese, F.
     Approximate second-order SCF convergence for spin unrestricted wavefunctions
     Chem. Phys. Lett. 2000 325(1-3), 93-98
     doi.org/10.1016/s0009-2614(00)00662-x

Timings for individual modules:

Sum of individual times          ...     1349.441 sec (=  22.491 min)
Startup calculation              ...        5.239 sec (=   0.087 min)   0.4 %
SCF iterations                   ...      246.731 sec (=   4.112 min)  18.3 %
Property calculations            ...        0.041 sec (=   0.001 min)   0.0 %
MP2 module                       ...     1097.413 sec (=  18.290 min)  81.3 %
Geometry relaxation              ...        0.017 sec (=   0.000 min)   0.0 %
                             ****ORCA TERMINATED NORMALLY****
TOTAL RUN TIME: 0 days 0 hours 22 minutes 29 seconds 638 msec
