
                                 *****************
                                 * O   R   C   A *
                                 *****************

                                            #,                                       
                                            ###                                      
                                            ####                                     
                                            #####                                    
                                            ######                                   
                                           ########,                                 
                                     ,,################,,,,,                         
                               ,,#################################,,                 
                          ,,##########################################,,             
                       ,#########################################, ''#####,          
                    ,#############################################,,   '####,        
                  ,##################################################,,,,####,       
                ,###########''''           ''''###############################       
              ,#####''   ,,,,##########,,,,          '''####'''          '####       
            ,##' ,,,,###########################,,,                        '##       
           ' ,,###''''                  '''############,,,                           
         ,,##''                                '''############,,,,        ,,,,,,###''
      ,#''                                            '''#######################'''  
     '                                                          ''''####''''         
             ,#######,   #######,   ,#######,      ##                                
            ,#'     '#,  ##    ##  ,#'     '#,    #''#        ,####,    ,#,          
            ##       ##  ##   ,#'  ##            #'  '#       #'       ,# #          
            ##       ##  #######   ##           ,######,      #####,      #          
            '#,     ,#'  ##    ##  '#,     ,#' ,#      #,     #,   #      #          
             '#######'   ##     ##  '#######'  #'      '#     '####' #    #          



                #########################################################
                #                        -***-                          #
                #          Department of theory and spectroscopy        #
                #                                                       #
                #                      Frank Neese                      #
                #                                                       #
                #     Directorship, Architecture, Infrastructure        #
                #                    SHARK, DRIVERS                     #
                #        Core code/Algorithms in most modules           #
                #                                                       #
                #        Max Planck Institute fuer Kohlenforschung      #
                #                Kaiser Wilhelm Platz 1                 #
                #                 D-45470 Muelheim/Ruhr                 #
                #                      Germany                          #
                #                                                       #
                #                  All rights reserved                  #
                #                        -***-                          #
                #########################################################


                         Program Version 6.1.0  -  RELEASE   -
                                (GIT: $679e74b$)
                          ($2025-06-10 18:02:51 +0200$)


 With contributions from (in alphabetic order):
[Max-Planck-Institut fuer Kohlenforschung]                               
  Daniel Aravena         : Magnetic Suceptibility                        
  Michael Atanasov       : Ab Initio Ligand Field Theory (pilot matlab implementation)
  Alexander A. Auer      : GIAO ZORA, VPT2 properties, NMR spectrum      
  Ute Becker             : All parallelization in ORCA, NUMFREQ, NUMCALC 
  Giovanni Bistoni       : ED, misc. LED, open-shell LED, HFLD           
  Dmytro Bykov           : pre 5.0 version of the SCF Hessian            
  Marcos Casanova-Páez   : Triplet and SCS-CIS(D). UHF-(DLPNO)-IP/EA/STEOM-CCSD. UHF-CVS-IP/STEOM-CCSD   
  Vijay G. Chilkuri      : MRCI spin determinant printing, contributions to CSF-ICE 
  Pauline Colinet        : FMM embedding                                 
  Dipayan Datta          : RHF DLPNO-CCSD density                        
  Achintya Kumar Dutta   : EOM-CC, STEOM-CC                              
  Nicolas Foglia         : Exact transition moments, OPA infrastructure, MCD improvements    
  Dmitry Ganyushin       : Spin-Orbit,Spin-Spin,Magnetic field MRCI      
  Miquel Garcia-Rates    : C-PCM and meta-GGA Hessian, CCSD/C-PCM, Gaussian charge scheme 
  Tiago L. C. Gouveia    : GS-ROHF, GS-ROCIS                             
  Yang Guo               : DLPNO-NEVPT2, F12-NEVPT2, CIM, IAO-localization        
  Andreas Hansen         : Spin unrestricted coupled pair/coupled cluster methods 
  Ingolf Harden          : AUTO-CI MPn and infrastructure                
  Benjamin Helmich-Paris : MC-RPA, TRAH-(SCF,CASSCF), AVAS, COSX integrals, SCF dyn. polar., MC-PDFT, srDFT 
  Lee Huntington         : MR-EOM, pCC                                   
  Robert Izsak           : Overlap fitted RIJCOSX, COSX-SCS-MP3, EOM     
  Riya Kayal             : Wick's Theorem for AUTO-CI, AUTO-CI UHF-CCSDT 
  Emily Kempfer          : AUTO-CI RHF CISDT and CCSDT, approximate NEVPT4
  Christian Kollmar      : KDIIS, OOCD, Brueckner-CCSD(T), CCSD density, CASPT2, CASPT2-K, improved NEVPT2 
  Axel Koslowski         : Symmetry handling                             
  Simone Kossmann        : meta-GGA functionals, TD-DFT gradient, OOMP2, (MP2 Hessian; deprecated post 5.0) 
  Lucas Lang             : DCDCAS, Hyperfine gauge corrections, ICE-SOC+SSC
  Marvin Lechner         : AUTO-CI (C++ implementation), FIC-MRCC        
  Spencer Leger          : CASSCF response                               
  Dagmar Lenk            : GEPOL surface, SMD, ORCA-2-JSON               
  Dimitrios Liakos       : Extrapolation schemes; Compound Job, Property file
  Dimitrios Manganas     : Further ROCIS development; embedding schemes. LFT, Crystal Embedding 
  Dimitrios Pantazis     : SARC Basis sets                               
  Anastasios Papadopoulos: AUTO-CI, single reference methods and gradients 
  Taras Petrenko         : pre 6.0 DFT Hessian and TD-DFT gradient,  ECA, NRVS 
  Petra Pikulova         : Analytic Raman intensities                    
  Peter Pinski           : DLPNO-MP2, DLPNO-MP2 Gradient                 
  Shashank Vittal Rao    : ES-AILFT, MagRelax                            
  Christoph Reimann      : Effective Core Potentials                     
  Marius Retegan         : Local ZFS, SOC                                
  Christoph Riplinger    : Optimizer, TS searches, QM/MM, DLPNO-CCSD(T), (RO)-DLPNO pert. Triples 
  Michael Roemelt        : Original ROCIS implementation, recursive CI coupling coefficients
  Masaaki Saitow         : Open-shell DLPNO-CCSD energy and density      
  Barbara Sandhoefer     : DKH picture change effects                    
  Yorick L. A. Schmerwitz: GMF and freeze-and-release deltaSCF, NEB S-IDPP initial path                    
  Kantharuban Sivalingam : CASSCF convergence/infrastructure, NEVPT2, NEVPT3, NEVPT4(SD), FIC-MRCI and CEPA variants
  Bernardo de Souza      : ESD, SOC TD-DFT                               
  Georgi L. Stoychev     : AutoAux, RI-MP2 NMR, DLPNO-MP2 response, X2C  
  Van Anh Tran           : RI-MP2 g-tensors                              
  Willem Van den Heuvel  : Paramagnetic NMR                              
  Zikuan Wang            : NOTCH, Electric field optimization            
  Frank Wennmohs         : Technical directorship and infrastructure     
  Hang Xu                : AUTO-CI-Response properties                   
                                                                         
[FACCTs GmbH]                                                            
  Markus Bursch, Nicolas Foglia, Miquel Garcia-Rates, Ingolf Harden, Hagen Neugebauer, Anastasios Papadopoulos, 
  Christoph Riplinger, Bernardo de Souza, Georgi L. Stoychev                                                    
                                                                 
  APM, various basis sets, CI-OPT, improved COSX, DLPNO-Multilevel,           
  DOCKER, DRACO, updates on ESD, Fragmentator, GOAT, IRC, LR-CPCM, L-BFGS, MBIS, meta-GGA TD-DFT gradient, ML-optimized integration grids, 
  MM, NACMEs, nearIR, NEB, NEB-TS, NL-DFT gradient (VV10), 2- and 3-layer-ONIOM, interface openCOSMO-RS, QMMM,   
  Crystal-QMMM, RESP, rigid body optimization, SF, symmetry and pop. for TD-DFT, various functionals, SOLVATOR                                   
                                                                         
[Other institutions]                                                     
  V. Asgeirsson          : NEB                                           
  Christoph Bannwarth    : sTDA-DFT, sTD-DFT, PBEh-3c, B97-3c, D3        
  Giovanni Bistoni       : ETS/NOCV, ADLD/ADEX, COVALED                  
  Martin Brehm           : Molecular dynamics                            
  Ronald Cardenas        : ETS/NOCV                                      
  Martina Colucci        : COVALED                                       
  Sebastian Ehlert       : rSCAN, r2SCAN, r2SCAN-3c, D4, dhf basis sets  
  Marvin Friede          : D4 for Fr, Ra, Ac-Lr                          
  Lars Goerigk           : TD-DFT with DH, B97 family of functionals     
  Stefan Grimme          : VdW corrections, initial TS optimization, DFT functionals, gCP, sTDA/sTD-DF 
  Waldemar Hujo          : DFT-NL                                        
  H. Jonsson             : NEB                                           
  Holger Kruse           : gCP                                           
  Marcel Mueller         : wB97X-3c, vDZP basis set                      
  Hagen Neugebauer       : wr2SCAN, Native XTB                           
  Gianluca Regni         : ADLD/ADEX                                     
  Tobias Risthaus        : pre 6.0 range-separated hybrid DFT and stability analysis
  Lukas Wittmann         : regularized MP2, r2SCAN double-hybrids, wr2SCAN        
                                                                         
We gratefully acknowledge several colleagues who have allowed us to      
interface, adapt or use parts of their codes:                            
  Ed Valeev, F. Pavosevic, A. Kumar             : LibInt (2-el integral package), F12 methods 
  Garnet Chan, S. Sharma, J. Yang, R. Olivares  : DMRG                   
  Ulf Ekstrom                                   : XCFun DFT Library      
  Mihaly Kallay                                 : mrcc  (arbitrary order and MRCC methods)
  Frank Weinhold                                : gennbo (NPA and NBO analysis)           
  Simon Mueller                                 : openCOSMO-RS                            
  Christopher J. Cramer and Donald G. Truhlar   : smd solvation model                     
  S Lehtola, MJT Oliveira, MAL Marques          : LibXC Library                           
  Liviu Ungur et al                             : ANISO software                          


 Your calculation uses the libint2 library for the computation of 2-el integrals
 For citations please refer to: http://libint.valeyev.net

 Your ORCA version has been built with support for libXC version: 7.0.0
 For citations please refer to: https://libxc.gitlab.io

 This ORCA versions uses:
   CBLAS   interface :  Fast vector & matrix operations
   LAPACKE interface :  Fast linear algebra routines
   SCALAPACK package :  Parallel linear algebra routines
   Shared memory     :  Shared parallel matrices
   BLAS/LAPACK       :  OpenBLAS 0.3.29  USE64BITINT DYNAMIC_ARCH NO_AFFINITY Haswell SINGLE_THREADED
        Core in use  :  Haswell
   Copyright (c) 2011-2014, The OpenBLAS Project


  ***********************************
  * Starting time: Thu Aug 14 10:44:18 2025
  * Host name:     CHEMLAB02
  * Process ID:    1609780
  * Working dir.:  /home/vivek/mm-project/vivek/xtb-goat/g
  ***********************************



***************************************
The coordinates will be read from file: g-input-coordinates.xyz
***************************************


Your calculation utilizes the semiempirical GFN2-xTB method
Please cite in your paper:
Bannwarth, C.; Ehlert S.; Grimme, S. J. Chem. Theory Comput. 2019, 15, 1652.
   

================================================================================

================================================================================
                                        WARNINGS
                       Please study these warnings very carefully!
================================================================================


================================================================================
 STARTING AUTOMATIC FRAGMENTATION: 
================================================================================

WARNING: Geometry Optimization
  ===> : Switching off AutoStart
         For restart on a previous wavefunction, please use MOREAD

WARNING: Found dipole moment calculation with XTB calculation
  ===> : Switching off dipole moment calculation


================================================================================
                                       INPUT FILE
================================================================================
NAME = g.inp
|  1> ! xtb goat
|  2> 
|  3> * xyzfile 0 1 g-input-coordinates.xyz
|  4> 
|  5>                          ****END OF INPUT****
================================================================================

                       *****************************
                       * Geometry Optimization Run *
                       *****************************


                       *********************************
                       *              GOAT             *
                       * Global Optimization Algorithm *
                       *********************************

Geometry optimization settings:
Update method            Update   .... BFGS
Choice of coordinates    CoordSys .... (2022) Redundant Internals
Initial Hessian          InHess   .... Almloef's Model
Max. no of cycles        MaxIter  .... 50

Convergence Tolerances:
Energy Change            TolE     ....  5.0000e-06 Eh
Max. Gradient            TolMAXG  ....  3.0000e-04 Eh/bohr
RMS Gradient             TolRMSG  ....  1.0000e-04 Eh/bohr
Max. Displacement        TolMAXD  ....  4.0000e-03 bohr
RMS Displacement         TolRMSD  ....  2.0000e-03 bohr
Strict Convergence                .... True

------------------------------------------------------------------------------
                        ORCA OPTIMIZATION COORDINATE SETUP
------------------------------------------------------------------------------

The optimization will be done in redundant internal coordinates (2022)
Making redundant internal coordinates   ...  (2022 redundants) done
Evaluating the initial hessian          ...  (Almloef) done
Evaluating the coordinates              ...  done
Calculating the B-matrix                .... done
Calculating the G-matrix                .... done
The number of degrees of freedom        ....   36

    -----------------------------------------------------------------
                    Redundant Internal Coordinates


    -----------------------------------------------------------------
         Definition                    Initial Value    Approx d2E/dq
    -----------------------------------------------------------------
      1. B(C   1,C   0)                  1.5273         0.377282   
      2. B(N   4,H   2)                  1.0263         0.407631   
      3. B(N   4,C   0)                  1.4878         0.390759   
      4. B(N   4,H   3)                  1.0244         0.410374   
      5. B(O   5,C   1)                  1.3588         0.627465   
      6. B(H   6,C   0)                  1.0931         0.356017   
      7. B(H   7,C   0)                  1.0934         0.355694   
      8. B(H   8,N   4)                  1.8188         0.022172   
      9. B(H   8,O   5)                  0.9902         0.465399   
     10. B(O   9,C   1)                  1.2200         1.044957   
     11. A(N   4,C   0,H   7)          109.3644         0.324114   
     12. A(C   1,C   0,H   7)          108.2572         0.324189   
     13. A(C   1,C   0,N   4)          109.2995         0.364493   
     14. A(H   6,C   0,H   7)          110.5652         0.289759   
     15. A(C   1,C   0,H   6)          109.6885         0.324237   
     16. A(N   4,C   0,H   6)          109.6389         0.324163   
     17. A(C   0,C   1,O   9)          125.0354         0.433191   
     18. A(C   0,C   1,O   5)          111.2567         0.395664   
     19. A(O   5,C   1,O   9)          123.6908         0.472014   
     20. A(C   0,N   4,H   3)          107.4588         0.329018   
     21. A(C   0,N   4,H   2)          107.6351         0.328654   
     22. A(H   2,N   4,H   3)          103.9434         0.297861   
     23. A(C   1,O   5,H   8)          105.6012         0.363894   
     24. D(O   5,C   1,C   0,H   6)    133.8634         0.010631   
     25. D(O   9,C   1,C   0,N   4)   -167.8300         0.010631   
     26. D(O   5,C   1,C   0,N   4)     13.6303         0.010631   
     27. D(O   9,C   1,C   0,H   6)    -47.5968         0.010631   
     28. D(O   5,C   1,C   0,H   7)   -105.4126         0.010631   
     29. D(H   2,N   4,C   0,H   6)    -38.0616         0.013965   
     30. D(H   2,N   4,C   0,C   1)     82.2019         0.013965   
     31. D(H   3,N   4,C   0,H   6)     73.3481         0.013965   
     32. D(H   3,N   4,C   0,C   1)   -166.3883         0.013965   
     33. D(H   3,N   4,C   0,H   7)    -48.0345         0.013965   
     34. D(H   2,N   4,C   0,H   7)   -159.4442         0.013965   
     35. D(H   8,O   5,C   1,O   9)   -178.8918         0.028937   
     36. D(H   8,O   5,C   1,C   0)     -0.3287         0.028937   
    -----------------------------------------------------------------

Number of atoms                         .... 10
Number of degrees of freedom            .... 36


         *************************************************************
         *                GEOMETRY OPTIMIZATION CYCLE   1            *
         *************************************************************
---------------------------------
CARTESIAN COORDINATES (ANGSTROEM)
---------------------------------
  C    -4.440871   -1.245209    0.311817
  C    -4.391815   -2.403770    1.305805
  H    -6.312914   -0.465176    0.592399
  H    -5.823734   -0.419396   -0.946400
  N    -5.846817   -1.031574   -0.125332
  O    -5.553520   -3.108635    1.298542
  H    -4.061593   -0.336482    0.786411
  H    -3.828344   -1.510623   -0.554083
  H    -6.133229   -2.659714    0.633070
  O    -3.431451   -2.689106    2.001999

----------------------------
CARTESIAN COORDINATES (A.U.)
----------------------------
  NO LB    ZA    FRAG    MASS        X           Y           Z
   0 C   6.0000    1    12.011   -8.392030   -2.353104    0.589249
   1 C   6.0000    1    12.011   -8.299328   -4.542467    2.467614
   2 H   1.0000    1     1.008  -11.929679   -0.879055    1.119472
   3 H   1.0000    1     1.008  -11.005262   -0.792544   -1.788437
   4 N   7.0000    1    14.007  -11.048883   -1.949392   -0.236843
   5 O   8.0000    1    15.999  -10.494632   -5.874469    2.453889
   6 H   1.0000    1     1.008   -7.675298   -0.635859    1.486101
   7 H   1.0000    1     1.008   -7.234522   -2.854664   -1.047065
   8 H   1.0000    1     1.008  -11.590123   -5.026131    1.196329
   9 O   8.0000    1    15.999   -6.484503   -5.081674    3.783230

      -----------------------------------------------------------      
     |                   =====================                   |     
     |                           x T B                           |     
     |                   =====================                   |     
     |                         S. Grimme                         |     
     |          Mulliken Center for Theoretical Chemistry        |     
     |                    University of Bonn                     |     
      -----------------------------------------------------------      

   * xtb version 6.7.1 (edcfbbe) compiled by 'albert@albert-system' on 2024-07-22

   xtb is free software: you can redistribute it and/or modify it under
   the terms of the GNU Lesser General Public License as published by
   the Free Software Foundation, either version 3 of the License, or
   (at your option) any later version.
   
   xtb is distributed in the hope that it will be useful,
   but WITHOUT ANY WARRANTY; without even the implied warranty of
   MERCHANTABILITY or FITNESS FOR A PARTICULAR PURPOSE.  See the
   GNU Lesser General Public License for more details.
   
   Cite this work as:
   * C. Bannwarth, E. Caldeweyher, S. Ehlert, A. Hansen, P. Pracht,
     J. Seibert, S. Spicher, S. Grimme, WIREs Comput. Mol. Sci., 2020, 11,
     e01493. DOI: 10.1002/wcms.1493
   
   for GFN2-xTB:
   * C. Bannwarth, S. Ehlert and S. Grimme., J. Chem. Theory Comput., 2019,
     15, 1652-1671. DOI: 10.1021/acs.jctc.8b01176
   for GFN1-xTB:
   * S. Grimme, C. Bannwarth, P. Shushkov, J. Chem. Theory Comput., 2017,
     13, 1989-2009. DOI: 10.1021/acs.jctc.7b00118
   for GFN0-xTB:
   * P. Pracht, E. Caldeweyher, S. Ehlert, S. Grimme, ChemRxiv, 2019, preprint.
     DOI: 10.26434/chemrxiv.8326202.v1
   for GFN-FF:
   * S. Spicher and S. Grimme, Angew. Chem. Int. Ed., 2020, 59, 15665-15673.
     DOI: 10.1002/anie.202004239
   
   for ALPB and GBSA implicit solvation:
   * S. Ehlert, M. Stahn, S. Spicher, S. Grimme, J. Chem. Theory Comput.,
     2021, 17, 4250-4261. DOI: 10.1021/acs.jctc.1c00471
   
   for ddCOSMO and CPCM-X implicit solvation:
   * M. Stahn, S. Ehlert, S. Grimme, J. Phys. Chem. A,
     2023, XX, XXXX-XXXX. DOI: 10.1021/acs.jpca.3c04382
   
   for DFT-D4:
   * E. Caldeweyher, C. Bannwarth and S. Grimme, J. Chem. Phys., 2017,
     147, 034112. DOI: 10.1063/1.4993215
   * E. Caldeweyher, S. Ehlert, A. Hansen, H. Neugebauer, S. Spicher,
     C. Bannwarth and S. Grimme, J. Chem. Phys., 2019, 150, 154122.
     DOI: 10.1063/1.5090222
   * E. Caldeweyher, J.-M. Mewes, S. Ehlert and S. Grimme, Phys. Chem. Chem. Phys.
     2020, 22, 8499-8512. DOI: 10.1039/D0CP00502A
   
   for sTDA-xTB:
   * S. Grimme and C. Bannwarth, J. Chem. Phys., 2016, 145, 054103.
     DOI: 10.1063/1.4959605
   
   in the mass-spec context:
   * V. Asgeirsson, C. Bauer and S. Grimme, Chem. Sci., 2017, 8, 4879.
     DOI: 10.1039/c7sc00601b
   * J. Koopman and S. Grimme, ACS Omega 2019, 4, 12, 15120-15133.
     DOI: 10.1021/acsomega.9b02011
   
   for metadynamics refer to:
   * S. Grimme, J. Chem. Theory Comput., 2019, 155, 2847-2862
     DOI: 10.1021/acs.jctc.9b00143
   
   for SPH calculations refer to:
   * S. Spicher and S. Grimme, J. Chem. Theory Comput., 2021, 17, 1701-1714
     DOI: 10.1021/acs.jctc.0c01306
   
   for ONIOM refer to:
   * C. Plett, A. Katbashev, S. Ehlert, S. Grimme, M. Bursch,
     Phys. Chem. Chem. Phys., 2023, 25, 17860-17868. DOI: 10.1039/D3CP02178E
   
   for DIPRO refer to:
   * J. Kohn, N. Gildemeister, S. Grimme, D. Fazzi, A. Hansen,
     J. Chem. Phys., 2023, just accepted.
   
   for PTB refer to:
   * S. Grimme, M. Mueller, A. Hansen, J. Chem. Phys., 2023, 158, 124111.
     DOI: 10.1063/5.0137838
   
   with help from (in alphabetical order)
   P. Atkinson, C. Bannwarth, F. Bohle, G. Brandenburg, E. Caldeweyher
   M. Checinski, S. Dohm, S. Ehlert, S. Ehrlich, I. Gerasimov, C. Hölzer
   A. Katbashev, J. Kohn, J. Koopman, C. Lavigne, S. Lehtola, F. März, M. Müller,
   F. Musil, H. Neugebauer, J. Pisarek, C. Plett, P. Pracht, F. Pultar,
   J. Seibert, P. Shushkov, S. Spicher, M. Stahn, M. Steiner, T. Strunk,
   J. Stückrath, T. Rose, and J. Unsleber
   
 * started run on 2025/08/14 at 10:44:18.434     
   ID    Z sym.   atoms
    1    6 C      1, 2
    2    1 H      3, 4, 7-9
    3    7 N      5
    4    8 O      6, 10

           -------------------------------------------------
          |                Calculation Setup                |
           -------------------------------------------------

          program call               : otool_xtb g_XTB.xyz --grad -c 0 -u 0 -P 1 --namespace g --input g_XTB.input.tmp --acc 0.200000
          calculation namespace      : g
          coordinate file            : g_XTB.xyz
          omp threads                :                     1


           -------------------------------------------------
          |                 G F N 2 - x T B                 |
           -------------------------------------------------

        Reference                      10.1021/acs.jctc.8b01176
      * Hamiltonian:
        H0-scaling (s, p, d)           1.850000    2.230000    2.230000
        zeta-weighting                 0.500000
      * Dispersion:
        s8                             2.700000
        a1                             0.520000
        a2                             5.000000
        s9                             5.000000
      * Repulsion:
        kExp                           1.500000    1.000000
        rExp                           1.000000
      * Coulomb:
        alpha                          2.000000
        third order                    shell-resolved
        anisotropic                    true
        a3                             3.000000
        a5                             4.000000
        cn-shift                       1.200000
        cn-exp                         4.000000
        max-rad                        5.000000


          ...................................................
          :                      SETUP                      :
          :.................................................:
          :  # basis functions                  25          :
          :  # atomic orbitals                  25          :
          :  # shells                           15          :
          :  # electrons                        30          :
          :  max. iterations                   250          :
          :  Hamiltonian                  GFN2-xTB          :
          :  restarted?                      false          :
          :  GBSA solvation                  false          :
          :  PC potential                    false          :
          :  electronic temp.          300.0000000     K    :
          :  accuracy                    0.2000000          :
          :  -> integral cutoff          0.3198970E+02      :
          :  -> integral neglect         0.2000000E-08      :
          :  -> SCF convergence          0.2000000E-06 Eh   :
          :  -> wf. convergence          0.2000000E-04 e    :
          :  Broyden damping             0.4000000          :
          :  net charge                          0          :
          :  unpaired electrons                  0          :
          ...................................................

 iter      E             dE          RMSdq      gap      omega  full diag
   1    -17.9662815 -0.179663E+02  0.463E+00    4.29       0.0  T
   2    -18.0082427 -0.419612E-01  0.231E+00    4.42       1.0  T
   3    -18.0108318 -0.258908E-02  0.136E+00    4.88       1.0  T
   4    -18.0131327 -0.230093E-02  0.244E-01    4.65       1.0  T
   5    -18.0133622 -0.229520E-03  0.834E-02    4.68       1.0  T
   6    -18.0133691 -0.689999E-05  0.370E-02    4.67       1.0  T
   7    -18.0133703 -0.117963E-05  0.757E-03    4.67       4.2  T
   8    -18.0133704 -0.720656E-07  0.317E-03    4.67      10.0  T
   9    -18.0133704 -0.199835E-07  0.849E-04    4.67      37.3  T
  10    -18.0133704 -0.616900E-09  0.446E-04    4.67      70.9  T
  11    -18.0133704 -0.147296E-08  0.993E-05    4.67     318.5  T
  12    -18.0133704 -0.166906E-10  0.134E-05    4.67    2352.5  T

   *** convergence criteria satisfied after 12 iterations ***

         #    Occupation            Energy/Eh            Energy/eV
      -------------------------------------------------------------
         1        2.0000           -0.7349454             -19.9989
       ...           ...                  ...                  ...
         9        2.0000           -0.5444504             -14.8153
        10        2.0000           -0.5283648             -14.3775
        11        2.0000           -0.5057625             -13.7625
        12        2.0000           -0.4973532             -13.5337
        13        2.0000           -0.4679346             -12.7331
        14        2.0000           -0.4324338             -11.7671
        15        2.0000           -0.4150504             -11.2941 (HOMO)
        16                         -0.2435083              -6.6262 (LUMO)
        17                         -0.0204667              -0.5569
        18                          0.0494867               1.3466
        19                          0.0684755               1.8633
        20                          0.1036421               2.8202
       ...                                ...                  ...
        25                          0.5744468              15.6315
      -------------------------------------------------------------
                  HL-Gap            0.1715421 Eh            4.6679 eV
             Fermi-level           -0.3292793 Eh           -8.9601 eV

 SCC (total)                   0 d,  0 h,  0 min,  0.012 sec
 SCC setup                      ...        0 min,  0.000 sec (  0.737%)
 Dispersion                     ...        0 min,  0.000 sec (  0.254%)
 classical contributions        ...        0 min,  0.000 sec (  0.077%)
 integral evaluation            ...        0 min,  0.000 sec (  3.540%)
 iterations                     ...        0 min,  0.010 sec ( 87.505%)
 molecular gradient             ...        0 min,  0.001 sec (  7.380%)
 printout                       ...        0 min,  0.000 sec (  0.406%)

         :::::::::::::::::::::::::::::::::::::::::::::::::::::
         ::                     SUMMARY                     ::
         :::::::::::::::::::::::::::::::::::::::::::::::::::::
         :: total energy             -17.867777452701 Eh    ::
         :: gradient norm              0.061134480316 Eh/a0 ::
         :: HOMO-LUMO gap              4.667899009736 eV    ::
         ::.................................................::
         :: SCC energy               -18.013368845136 Eh    ::
         :: -> isotropic ES            0.057593855852 Eh    ::
         :: -> anisotropic ES          0.001166411371 Eh    ::
         :: -> anisotropic XC          0.005287826444 Eh    ::
         :: -> dispersion             -0.004438118557 Eh    ::
         :: repulsion energy           0.145591392435 Eh    ::
         :: add. restraining           0.000000000000 Eh    ::
         :: total charge              -0.000000000000 e     ::
         :::::::::::::::::::::::::::::::::::::::::::::::::::::


Property printout bound to 'properties.out'

           -------------------------------------------------
          | TOTAL ENERGY              -17.867777452701 Eh   |
          | GRADIENT NORM               0.061134480316 Eh/α |
          | HOMO-LUMO GAP               4.667899009736 eV   |
           -------------------------------------------------

------------------------------------------------------------------------
 * finished run on 2025/08/14 at 10:44:18.452     
------------------------------------------------------------------------
 total:
 * wall-time:     0 d,  0 h,  0 min,  0.017 sec
 *  cpu-time:     0 d,  0 h,  0 min,  0.009 sec
 * ratio c/w:     0.542 speedup
 SCF:
 * wall-time:     0 d,  0 h,  0 min,  0.012 sec
 *  cpu-time:     0 d,  0 h,  0 min,  0.004 sec
 * ratio c/w:     0.344 speedup


-------------------------   --------------------
FINAL SINGLE POINT ENERGY       -17.867777452700
-------------------------   --------------------


-------------
DIPOLE MOMENT
-------------
                                X             Y             Z
Total Dipole Moment    :     -0.93800       1.61700      -1.32600
                        -----------------------------------------
Magnitude (a.u.)       :      2.29190
Magnitude (Debye)      :      5.82555


------------------
CARTESIAN GRADIENT
------------------

   1   C   :    0.011873993   -0.005707866   -0.000568140
   2   C   :   -0.007385588    0.022082097   -0.017730122
   3   H   :   -0.000347799    0.006542283    0.002825429
   4   H   :    0.002400854    0.007841145   -0.002051529
   5   N   :   -0.010324268   -0.012642965   -0.000708845
   6   O   :   -0.019049781   -0.012184279    0.000445575
   7   H   :   -0.008346479    0.001821870    0.000062509
   8   H   :    0.000082943   -0.001086471   -0.001990459
   9   H   :   -0.001116139    0.004293651   -0.003488543
  10   O   :    0.032212264   -0.010959465    0.023204126

Difference to translation invariance:
           :    0.0000000000   -0.0000000000    0.0000000000

Difference to rotation invariance:
           :    0.0000000115    0.0000000123   -0.0000000096

Norm of the Cartesian gradient     ...    0.0611344803
RMS gradient                       ...    0.0111615780
MAX gradient                       ...    0.0322122644
------------------------------------------------------------------------------
                         ORCA GEOMETRY RELAXATION STEP
------------------------------------------------------------------------------

Reading the OPT-File                    .... done
Getting information on internals        .... done
Copying old internal coords+grads       .... done
Making the new internal coordinates     .... (2022 redundants) done
Validating the new internal coordinates .... (2022 redundants) done
Calculating the B-matrix                .... done
Calculating the G,G- and P matrices     .... done
Transforming gradient to internals      .... done
Projecting the internal gradient        .... done
Number of atoms                         ....  10
Number of internal coordinates          ....  36
Current Energy                          ....   -17.867777453 Eh
Current gradient norm                   ....     0.061134480 Eh/bohr
Maximum allowed component of the step   ....  0.300
Current trust radius                    ....  0.300
Evaluating the initial hessian          ....  (Almloef) done
Projecting the Hessian                  .... done
Forming the augmented Hessian           .... done
Diagonalizing the augmented Hessian     .... done
Last element of RFO vector              ....  0.987425510
Lowest eigenvalues of augmented Hessian:
 -0.004554755  0.011304767  0.013989851  0.015967488  0.028511623
Length of the computed step             ....  0.160098137
The final length of the internal step   ....  0.160098137
Converting the step to Cartesian space:
 Initial RMS(Int)=    0.0266830228
Transforming coordinates:
 Iter   0:  RMS(Cart)=    0.0273291761 RMS(Int)=    0.0267387663
done
Storing new coordinates                 .... done

                                .--------------------.
          ----------------------|Geometry convergence|-------------------------
          Item                value                   Tolerance       Converged
          ---------------------------------------------------------------------
          RMS gradient        0.0086193526            0.0001000000      NO
          MAX gradient        0.0411616177            0.0003000000      NO
          RMS step            0.0266830228            0.0020000000      NO
          MAX step            0.0732818636            0.0040000000      NO
          -------------------------------------------------------------------------
          ........................................................
          Max(Bonds)      0.0290      Max(Angles)    2.19
          Max(Dihed)        4.20      Max(Improp)    0.00
          ---------------------------------------------------------------------

    ---------------------------------------------------------------------------
                         Redundant Internal Coordinates
                            (Angstroem and degrees)

        Definition                    Value    dE/dq     Step     New-Value
    ----------------------------------------------------------------------------
     1. B(C   1,C   0)                1.5273  0.001170 -0.0009    1.5264   
     2. B(N   4,H   2)                1.0263  0.005745 -0.0074    1.0189   
     3. B(N   4,C   0)                1.4878  0.008252 -0.0110    1.4768   
     4. B(N   4,H   3)                1.0244  0.006384 -0.0081    1.0163   
     5. B(O   5,C   1)                1.3588  0.022543 -0.0186    1.3402   
     6. B(H   6,C   0)                1.0931 -0.001354  0.0020    1.0951   
     7. B(H   7,C   0)                1.0934  0.001887 -0.0028    1.0906   
     8. B(H   8,N   4)                1.8188 -0.001999  0.0290    1.8478   
     9. B(H   8,O   5)                0.9902  0.003757 -0.0046    0.9856   
    10. B(O   9,C   1)                1.2200  0.041162 -0.0208    1.1992   
    11. A(N   4,C   0,H   7)          109.36 -0.000315   -0.28    109.08   
    12. A(C   1,C   0,H   7)          108.26 -0.000458   -0.56    107.69   
    13. A(C   1,C   0,N   4)          109.30  0.004630   -0.40    108.90   
    14. A(H   6,C   0,H   7)          110.57  0.003042   -0.94    109.63   
    15. A(C   1,C   0,H   6)          109.69  0.001106   -0.05    109.64   
    16. A(N   4,C   0,H   6)          109.64 -0.007847    2.19    111.83   
    17. A(C   0,C   1,O   9)          125.04  0.004917   -0.76    124.28   
    18. A(C   0,C   1,O   5)          111.26 -0.007534    1.22    112.47   
    19. A(O   5,C   1,O   9)          123.69  0.002608   -0.42    123.27   
    20. A(C   0,N   4,H   3)          107.46 -0.005358    1.40    108.86   
    21. A(C   0,N   4,H   2)          107.64 -0.003024    1.00    108.64   
    22. A(H   2,N   4,H   3)          103.94 -0.000925    1.49    105.43   
    23. A(C   1,O   5,H   8)          105.60 -0.002082    0.45    106.05   
    24. D(O   5,C   1,C   0,H   6)    133.86 -0.003557    2.60    136.46   
    25. D(O   9,C   1,C   0,N   4)   -167.83  0.002155    1.78   -166.05   
    26. D(O   5,C   1,C   0,N   4)     13.63  0.002528    0.19     13.82   
    27. D(O   9,C   1,C   0,H   6)    -47.60 -0.003929    4.20    -43.40   
    28. D(O   5,C   1,C   0,H   7)   -105.41  0.000528    1.09   -104.33   
    29. D(H   2,N   4,C   0,H   6)    -38.06  0.001937   -0.89    -38.95   
    30. D(H   2,N   4,C   0,C   1)     82.20  0.001337    0.15     82.35   
    31. D(H   3,N   4,C   0,H   6)     73.35 -0.003013    1.94     75.28   
    32. D(H   3,N   4,C   0,C   1)   -166.39 -0.003612    2.98   -163.41   
    33. D(H   3,N   4,C   0,H   7)    -48.03 -0.001629    1.89    -46.14   
    34. D(H   2,N   4,C   0,H   7)   -159.44  0.003320   -0.93   -160.38   
    35. D(H   8,O   5,C   1,O   9)   -178.89  0.000070   -0.48   -179.37   
    36. D(H   8,O   5,C   1,C   0)     -0.33 -0.000253    1.08      0.75   
    ----------------------------------------------------------------------------

Geometry step timings:
Preparation and reading OPT file:      0.000 s ( 3.162 %)
Internal coordinates            :      0.000 s ( 3.162 %)
B/P matrices and projection     :      0.000 s (29.644 %)
Hessian update/contruction      :      0.000 s (10.870 %)
Making the step                 :      0.000 s (22.332 %)
Converting the step to Cartesian:      0.000 s ( 5.336 %)
Storing new data                :      0.000 s ( 1.976 %)
Checking convergence            :      0.000 s ( 2.569 %)
Final printing                  :      0.000 s (20.949 %)
Total time                      :      0.001 s

Time for energy+gradient        :      0.020 s
Time for complete geometry iter :      0.021 s

         *************************************************************
         *                GEOMETRY OPTIMIZATION CYCLE   2            *
         *************************************************************
---------------------------------
CARTESIAN COORDINATES (ANGSTROEM)
---------------------------------
  C    -4.441805   -1.234045    0.316787
  C    -4.402848   -2.404007    1.296379
  H    -6.312951   -0.459260    0.596623
  H    -5.837581   -0.441240   -0.950707
  N    -5.837888   -1.015768   -0.112406
  O    -5.540954   -3.111800    1.294575
  H    -4.017543   -0.342829    0.791089
  H    -3.840903   -1.508340   -0.550994
  H    -6.126581   -2.684418    0.626937
  O    -3.465233   -2.667978    1.995944

----------------------------
CARTESIAN COORDINATES (A.U.)
----------------------------
  NO LB    ZA    FRAG    MASS        X           Y           Z
   0 C   6.0000    1    12.011   -8.393794   -2.332007    0.598640
   1 C   6.0000    1    12.011   -8.320177   -4.542915    2.449802
   2 H   1.0000    1     1.008  -11.929749   -0.867876    1.127455
   3 H   1.0000    1     1.008  -11.031430   -0.833822   -1.796576
   4 N   7.0000    1    14.007  -11.032010   -1.919523   -0.212416
   5 O   8.0000    1    15.999  -10.470885   -5.880449    2.446393
   6 H   1.0000    1     1.008   -7.592057   -0.647854    1.494942
   7 H   1.0000    1     1.008   -7.258254   -2.850350   -1.041228
   8 H   1.0000    1     1.008  -11.577561   -5.072816    1.184739
   9 O   8.0000    1    15.999   -6.548342   -5.041747    3.771787

      -----------------------------------------------------------      
     |                   =====================                   |     
     |                           x T B                           |     
     |                   =====================                   |     
     |                         S. Grimme                         |     
     |          Mulliken Center for Theoretical Chemistry        |     
     |                    University of Bonn                     |     
      -----------------------------------------------------------      

   * xtb version 6.7.1 (edcfbbe) compiled by 'albert@albert-system' on 2024-07-22

   xtb is free software: you can redistribute it and/or modify it under
   the terms of the GNU Lesser General Public License as published by
   the Free Software Foundation, either version 3 of the License, or
   (at your option) any later version.
   
   xtb is distributed in the hope that it will be useful,
   but WITHOUT ANY WARRANTY; without even the implied warranty of
   MERCHANTABILITY or FITNESS FOR A PARTICULAR PURPOSE.  See the
   GNU Lesser General Public License for more details.
   
   Cite this work as:
   * C. Bannwarth, E. Caldeweyher, S. Ehlert, A. Hansen, P. Pracht,
     J. Seibert, S. Spicher, S. Grimme, WIREs Comput. Mol. Sci., 2020, 11,
     e01493. DOI: 10.1002/wcms.1493
   
   for GFN2-xTB:
   * C. Bannwarth, S. Ehlert and S. Grimme., J. Chem. Theory Comput., 2019,
     15, 1652-1671. DOI: 10.1021/acs.jctc.8b01176
   for GFN1-xTB:
   * S. Grimme, C. Bannwarth, P. Shushkov, J. Chem. Theory Comput., 2017,
     13, 1989-2009. DOI: 10.1021/acs.jctc.7b00118
   for GFN0-xTB:
   * P. Pracht, E. Caldeweyher, S. Ehlert, S. Grimme, ChemRxiv, 2019, preprint.
     DOI: 10.26434/chemrxiv.8326202.v1
   for GFN-FF:
   * S. Spicher and S. Grimme, Angew. Chem. Int. Ed., 2020, 59, 15665-15673.
     DOI: 10.1002/anie.202004239
   
   for ALPB and GBSA implicit solvation:
   * S. Ehlert, M. Stahn, S. Spicher, S. Grimme, J. Chem. Theory Comput.,
     2021, 17, 4250-4261. DOI: 10.1021/acs.jctc.1c00471
   
   for ddCOSMO and CPCM-X implicit solvation:
   * M. Stahn, S. Ehlert, S. Grimme, J. Phys. Chem. A,
     2023, XX, XXXX-XXXX. DOI: 10.1021/acs.jpca.3c04382
   
   for DFT-D4:
   * E. Caldeweyher, C. Bannwarth and S. Grimme, J. Chem. Phys., 2017,
     147, 034112. DOI: 10.1063/1.4993215
   * E. Caldeweyher, S. Ehlert, A. Hansen, H. Neugebauer, S. Spicher,
     C. Bannwarth and S. Grimme, J. Chem. Phys., 2019, 150, 154122.
     DOI: 10.1063/1.5090222
   * E. Caldeweyher, J.-M. Mewes, S. Ehlert and S. Grimme, Phys. Chem. Chem. Phys.
     2020, 22, 8499-8512. DOI: 10.1039/D0CP00502A
   
   for sTDA-xTB:
   * S. Grimme and C. Bannwarth, J. Chem. Phys., 2016, 145, 054103.
     DOI: 10.1063/1.4959605
   
   in the mass-spec context:
   * V. Asgeirsson, C. Bauer and S. Grimme, Chem. Sci., 2017, 8, 4879.
     DOI: 10.1039/c7sc00601b
   * J. Koopman and S. Grimme, ACS Omega 2019, 4, 12, 15120-15133.
     DOI: 10.1021/acsomega.9b02011
   
   for metadynamics refer to:
   * S. Grimme, J. Chem. Theory Comput., 2019, 155, 2847-2862
     DOI: 10.1021/acs.jctc.9b00143
   
   for SPH calculations refer to:
   * S. Spicher and S. Grimme, J. Chem. Theory Comput., 2021, 17, 1701-1714
     DOI: 10.1021/acs.jctc.0c01306
   
   for ONIOM refer to:
   * C. Plett, A. Katbashev, S. Ehlert, S. Grimme, M. Bursch,
     Phys. Chem. Chem. Phys., 2023, 25, 17860-17868. DOI: 10.1039/D3CP02178E
   
   for DIPRO refer to:
   * J. Kohn, N. Gildemeister, S. Grimme, D. Fazzi, A. Hansen,
     J. Chem. Phys., 2023, just accepted.
   
   for PTB refer to:
   * S. Grimme, M. Mueller, A. Hansen, J. Chem. Phys., 2023, 158, 124111.
     DOI: 10.1063/5.0137838
   
   with help from (in alphabetical order)
   P. Atkinson, C. Bannwarth, F. Bohle, G. Brandenburg, E. Caldeweyher
   M. Checinski, S. Dohm, S. Ehlert, S. Ehrlich, I. Gerasimov, C. Hölzer
   A. Katbashev, J. Kohn, J. Koopman, C. Lavigne, S. Lehtola, F. März, M. Müller,
   F. Musil, H. Neugebauer, J. Pisarek, C. Plett, P. Pracht, F. Pultar,
   J. Seibert, P. Shushkov, S. Spicher, M. Stahn, M. Steiner, T. Strunk,
   J. Stückrath, T. Rose, and J. Unsleber
   
 * started run on 2025/08/14 at 10:44:18.455     
   ID    Z sym.   atoms
    1    6 C      1, 2
    2    1 H      3, 4, 7-9
    3    7 N      5
    4    8 O      6, 10

           -------------------------------------------------
          |                Calculation Setup                |
           -------------------------------------------------

          program call               : otool_xtb g_XTB.xyz --grad -c 0 -u 0 -P 1 --namespace g --input g_XTB.input.tmp --acc 0.200000
          calculation namespace      : g
          coordinate file            : g_XTB.xyz
          omp threads                :                     1


           -------------------------------------------------
          |                 G F N 2 - x T B                 |
           -------------------------------------------------

        Reference                      10.1021/acs.jctc.8b01176
      * Hamiltonian:
        H0-scaling (s, p, d)           1.850000    2.230000    2.230000
        zeta-weighting                 0.500000
      * Dispersion:
        s8                             2.700000
        a1                             0.520000
        a2                             5.000000
        s9                             5.000000
      * Repulsion:
        kExp                           1.500000    1.000000
        rExp                           1.000000
      * Coulomb:
        alpha                          2.000000
        third order                    shell-resolved
        anisotropic                    true
        a3                             3.000000
        a5                             4.000000
        cn-shift                       1.200000
        cn-exp                         4.000000
        max-rad                        5.000000

q/qsh data taken from xtbrestart
CAMM data taken from xtbrestart

          ...................................................
          :                      SETUP                      :
          :.................................................:
          :  # basis functions                  25          :
          :  # atomic orbitals                  25          :
          :  # shells                           15          :
          :  # electrons                        30          :
          :  max. iterations                   250          :
          :  Hamiltonian                  GFN2-xTB          :
          :  restarted?                       true          :
          :  GBSA solvation                  false          :
          :  PC potential                    false          :
          :  electronic temp.          300.0000000     K    :
          :  accuracy                    0.2000000          :
          :  -> integral cutoff          0.3198970E+02      :
          :  -> integral neglect         0.2000000E-08      :
          :  -> SCF convergence          0.2000000E-06 Eh   :
          :  -> wf. convergence          0.2000000E-04 e    :
          :  Broyden damping             0.4000000          :
          :  net charge                          0          :
          :  unpaired electrons                  0          :
          ...................................................

 iter      E             dE          RMSdq      gap      omega  full diag
   1    -18.0278820 -0.180279E+02  0.210E-01    4.89       0.0  T
   2    -18.0279461 -0.640792E-04  0.129E-01    4.84       1.0  T
   3    -18.0279516 -0.549359E-05  0.639E-02    4.85       1.0  T
   4    -18.0279589 -0.734319E-05  0.851E-03    4.84       3.7  T
   5    -18.0279590 -0.833176E-07  0.382E-03    4.84       8.3  T
   6    -18.0279590 -0.150144E-07  0.167E-03    4.84      19.0  T
   7    -18.0279590 -0.215284E-08  0.541E-04    4.84      58.5  T
   8    -18.0279590 -0.240135E-09  0.794E-05    4.84     398.2  T
   9    -18.0279590 -0.605027E-11  0.186E-05    4.84    1698.7  T

   *** convergence criteria satisfied after 9 iterations ***

         #    Occupation            Energy/Eh            Energy/eV
      -------------------------------------------------------------
         1        2.0000           -0.7387936             -20.1036
       ...           ...                  ...                  ...
         9        2.0000           -0.5460186             -14.8579
        10        2.0000           -0.5285350             -14.3822
        11        2.0000           -0.5052126             -13.7475
        12        2.0000           -0.4955432             -13.4844
        13        2.0000           -0.4693408             -12.7714
        14        2.0000           -0.4307104             -11.7202
        15        2.0000           -0.4115772             -11.1996 (HOMO)
        16                         -0.2336402              -6.3577 (LUMO)
        17                         -0.0084586              -0.2302
        18                          0.0617377               1.6800
        19                          0.0817651               2.2249
        20                          0.1164981               3.1701
       ...                                ...                  ...
        25                          0.6417065              17.4617
      -------------------------------------------------------------
                  HL-Gap            0.1779370 Eh            4.8419 eV
             Fermi-level           -0.3226087 Eh           -8.7786 eV

 SCC (total)                   0 d,  0 h,  0 min,  0.007 sec
 SCC setup                      ...        0 min,  0.000 sec (  1.271%)
 Dispersion                     ...        0 min,  0.000 sec (  0.505%)
 classical contributions        ...        0 min,  0.000 sec (  0.121%)
 integral evaluation            ...        0 min,  0.001 sec (  6.900%)
 iterations                     ...        0 min,  0.005 sec ( 69.105%)
 molecular gradient             ...        0 min,  0.001 sec ( 20.483%)
 printout                       ...        0 min,  0.000 sec (  1.381%)

         :::::::::::::::::::::::::::::::::::::::::::::::::::::
         ::                     SUMMARY                     ::
         :::::::::::::::::::::::::::::::::::::::::::::::::::::
         :: total energy             -17.870848649103 Eh    ::
         :: gradient norm              0.022766085246 Eh/a0 ::
         :: HOMO-LUMO gap              4.841912199143 eV    ::
         ::.................................................::
         :: SCC energy               -18.027957435455 Eh    ::
         :: -> isotropic ES            0.057198618139 Eh    ::
         :: -> anisotropic ES          0.000951975499 Eh    ::
         :: -> anisotropic XC          0.004703018915 Eh    ::
         :: -> dispersion             -0.004455735296 Eh    ::
         :: repulsion energy           0.157108786352 Eh    ::
         :: add. restraining           0.000000000000 Eh    ::
         :: total charge               0.000000000000 e     ::
         :::::::::::::::::::::::::::::::::::::::::::::::::::::


Property printout bound to 'properties.out'

           -------------------------------------------------
          | TOTAL ENERGY              -17.870848649103 Eh   |
          | GRADIENT NORM               0.022766085246 Eh/α |
          | HOMO-LUMO GAP               4.841912199143 eV   |
           -------------------------------------------------

------------------------------------------------------------------------
 * finished run on 2025/08/14 at 10:44:18.468     
------------------------------------------------------------------------
 total:
 * wall-time:     0 d,  0 h,  0 min,  0.014 sec
 *  cpu-time:     0 d,  0 h,  0 min,  0.011 sec
 * ratio c/w:     0.840 speedup
 SCF:
 * wall-time:     0 d,  0 h,  0 min,  0.007 sec
 *  cpu-time:     0 d,  0 h,  0 min,  0.006 sec
 * ratio c/w:     0.842 speedup


-------------------------   --------------------
FINAL SINGLE POINT ENERGY       -17.870848649100
-------------------------   --------------------


-------------
DIPOLE MOMENT
-------------
                                X             Y             Z
Total Dipole Moment    :     -0.95100       1.53600      -1.33700
                        -----------------------------------------
Magnitude (a.u.)       :      2.24750
Magnitude (Debye)      :      5.71270


------------------
CARTESIAN GRADIENT
------------------

   1   C   :    0.009591644   -0.004808688    0.001127232
   2   C   :    0.003931555    0.008300010   -0.006720807
   3   H   :    0.000975531    0.002801607    0.000059316
   4   H   :    0.001694115    0.003285903    0.000949008
   5   N   :   -0.007542021   -0.005988121   -0.000557085
   6   O   :   -0.007215966   -0.005090383    0.002399794
   7   H   :   -0.004838402    0.001885862    0.000131950
   8   H   :   -0.001282615   -0.000493208    0.000122415
   9   H   :    0.001218548    0.002387932   -0.001568767
  10   O   :    0.003467611   -0.002280914    0.004056945

Difference to translation invariance:
           :    0.0000000000    0.0000000000   -0.0000000000

Difference to rotation invariance:
           :   -0.0000000659    0.0000000483    0.0000000995

Norm of the Cartesian gradient     ...    0.0227660852
RMS gradient                       ...    0.0041564995
MAX gradient                       ...    0.0095916437
------------------------------------------------------------------------------
                         ORCA GEOMETRY RELAXATION STEP
------------------------------------------------------------------------------

Reading the OPT-File                    .... done
Getting information on internals        .... done
Copying old internal coords+grads       .... done
Making the new internal coordinates     .... (2022 redundants) done
Validating the new internal coordinates .... (2022 redundants) done
Calculating the B-matrix                .... done
Calculating the G,G- and P matrices     .... done
Transforming gradient to internals      .... done
Projecting the internal gradient        .... done
Number of atoms                         ....  10
Number of internal coordinates          ....  36
Current Energy                          ....   -17.870848649 Eh
Current gradient norm                   ....     0.022766085 Eh/bohr
Maximum allowed component of the step   ....  0.300
Current trust radius                    ....  0.300
Updating the Hessian (BFGS)             .... done
Forming the augmented Hessian           .... done
Diagonalizing the augmented Hessian     .... done
Last element of RFO vector              ....  0.983363259
Lowest eigenvalues of augmented Hessian:
 -0.001620786  0.011117605  0.013916863  0.016596613  0.028609816
Length of the computed step             ....  0.184723133
The final length of the internal step   ....  0.184723133
Converting the step to Cartesian space:
 Initial RMS(Int)=    0.0307871889
Transforming coordinates:
 Iter   0:  RMS(Cart)=    0.0282263050 RMS(Int)=    0.0309197222
 Iter   5:  RMS(Cart)=    0.0000000072 RMS(Int)=    0.0000000068
done
Storing new coordinates                 .... done
The predicted energy change is          ....    -0.000838046
Previously predicted energy change      ....    -0.002335750
Actually observed energy change         ....    -0.003071196
Ratio of predicted to observed change   ....     1.314865341
New trust radius                        ....     0.300000000

                                .--------------------.
          ----------------------|Geometry convergence|-------------------------
          Item                value                   Tolerance       Converged
          ---------------------------------------------------------------------
          Energy change      -0.0030711964            0.0000050000      NO
          RMS gradient        0.0024619283            0.0001000000      NO
          MAX gradient        0.0074004224            0.0003000000      NO
          RMS step            0.0307871889            0.0020000000      NO
          MAX step            0.0867979833            0.0040000000      NO
          -------------------------------------------------------------------------
          ........................................................
          Max(Bonds)      0.0366      Max(Angles)    2.30
          Max(Dihed)        4.97      Max(Improp)    0.00
          ---------------------------------------------------------------------

    ---------------------------------------------------------------------------
                         Redundant Internal Coordinates
                            (Angstroem and degrees)

        Definition                    Value    dE/dq     Step     New-Value
    ----------------------------------------------------------------------------
     1. B(C   1,C   0)                1.5264 -0.002315  0.0055    1.5319   
     2. B(N   4,H   2)                1.0189  0.001117 -0.0035    1.0154   
     3. B(N   4,C   0)                1.4768  0.004637 -0.0112    1.4655   
     4. B(N   4,H   3)                1.0163  0.001075 -0.0035    1.0128   
     5. B(O   5,C   1)                1.3402  0.007400 -0.0124    1.3279   
     6. B(H   6,C   0)                1.0951 -0.000283  0.0010    1.0961   
     7. B(H   7,C   0)                1.0906 -0.000680  0.0010    1.0916   
     8. B(H   8,N   4)                1.8478 -0.001447  0.0366    1.8844   
     9. B(H   8,O   5)                0.9856  0.000549 -0.0022    0.9834   
    10. B(O   9,C   1)                1.1992  0.005580 -0.0080    1.1913   
    11. A(N   4,C   0,H   7)          109.07 -0.000388   -0.16    108.91   
    12. A(C   1,C   0,H   7)          107.69 -0.000074   -0.56    107.12   
    13. A(C   1,C   0,N   4)          108.90  0.001665   -0.06    108.84   
    14. A(H   6,C   0,H   7)          109.62  0.002100   -1.21    108.41   
    15. A(C   1,C   0,H   6)          109.63  0.001431   -0.35    109.28   
    16. A(N   4,C   0,H   6)          111.83 -0.004586    2.30    114.13   
    17. A(C   0,C   1,O   9)          124.27  0.002478   -0.77    123.49   
    18. A(C   0,C   1,O   5)          112.47 -0.001397    0.68    113.15   
    19. A(O   5,C   1,O   9)          123.26 -0.001084   -0.01    123.25   
    20. A(C   0,N   4,H   3)          108.84 -0.003670    1.68    110.53   
    21. A(C   0,N   4,H   2)          108.62 -0.001934    1.16    109.78   
    22. A(H   2,N   4,H   3)          105.39 -0.000318    1.67    107.06   
    23. A(C   1,O   5,H   8)          106.05 -0.003031    0.94    106.99   
    24. D(O   5,C   1,C   0,H   6)    136.46 -0.002822    4.97    141.44   
    25. D(O   9,C   1,C   0,N   4)   -166.04  0.002024   -1.70   -167.74   
    26. D(O   5,C   1,C   0,N   4)     13.82  0.000873    2.40     16.22   
    27. D(O   9,C   1,C   0,H   6)    -43.40 -0.001671    0.88    -42.53   
    28. D(O   5,C   1,C   0,H   7)   -104.33  0.000468    2.95   -101.38   
    29. D(H   2,N   4,C   0,H   6)    -38.97  0.001293   -1.05    -40.01   
    30. D(H   2,N   4,C   0,C   1)     82.34  0.001261   -0.09     82.25   
    31. D(H   3,N   4,C   0,H   6)     75.29 -0.002019    2.25     77.54   
    32. D(H   3,N   4,C   0,C   1)   -163.40 -0.002051    3.21   -160.19   
    33. D(H   3,N   4,C   0,H   7)    -46.13 -0.001417    2.40    -43.73   
    34. D(H   2,N   4,C   0,H   7)   -160.39  0.001896   -0.90   -161.28   
    35. D(H   8,O   5,C   1,O   9)   -179.38 -0.000185    1.16   -178.21   
    36. D(H   8,O   5,C   1,C   0)      0.76  0.000948   -2.88     -2.12   
    ----------------------------------------------------------------------------

Geometry step timings:
Preparation and reading OPT file:      0.000 s ( 1.644 %)
Internal coordinates            :      0.000 s ( 2.466 %)
B/P matrices and projection     :      0.000 s (27.580 %)
Hessian update/contruction      :      0.000 s (13.151 %)
Making the step                 :      0.000 s (21.826 %)
Converting the step to Cartesian:      0.000 s ( 4.749 %)
Storing new data                :      0.000 s ( 1.644 %)
Checking convergence            :      0.000 s ( 4.475 %)
Final printing                  :      0.000 s (22.466 %)
Total time                      :      0.001 s

Time for energy+gradient        :      0.017 s
Time for complete geometry iter :      0.019 s

         *************************************************************
         *                GEOMETRY OPTIMIZATION CYCLE   3            *
         *************************************************************
---------------------------------
CARTESIAN COORDINATES (ANGSTROEM)
---------------------------------
  C    -4.447320   -1.218224    0.327558
  C    -4.418571   -2.393543    1.309731
  H    -6.320452   -0.441091    0.592987
  H    -5.851663   -0.468312   -0.967428
  N    -5.830405   -0.995086   -0.102701
  O    -5.524261   -3.128182    1.277171
  H    -3.977208   -0.345315    0.794883
  H    -3.849950   -1.508765   -0.538658
  H    -6.131499   -2.704956    0.629723
  O    -3.472958   -2.666210    1.980963

----------------------------
CARTESIAN COORDINATES (A.U.)
----------------------------
  NO LB    ZA    FRAG    MASS        X           Y           Z
   0 C   6.0000    1    12.011   -8.404217   -2.302110    0.618994
   1 C   6.0000    1    12.011   -8.349889   -4.523142    2.475034
   2 H   1.0000    1     1.008  -11.943924   -0.833541    1.120583
   3 H   1.0000    1     1.008  -11.058041   -0.884981   -1.828175
   4 N   7.0000    1    14.007  -11.017868   -1.880440   -0.194078
   5 O   8.0000    1    15.999  -10.439340   -5.911407    2.413503
   6 H   1.0000    1     1.008   -7.515834   -0.652551    1.502111
   7 H   1.0000    1     1.008   -7.275351   -2.851154   -1.017916
   8 H   1.0000    1     1.008  -11.586855   -5.111626    1.190004
   9 O   8.0000    1    15.999   -6.562940   -5.038407    3.743477

      -----------------------------------------------------------      
     |                   =====================                   |     
     |                           x T B                           |     
     |                   =====================                   |     
     |                         S. Grimme                         |     
     |          Mulliken Center for Theoretical Chemistry        |     
     |                    University of Bonn                     |     
      -----------------------------------------------------------      

   * xtb version 6.7.1 (edcfbbe) compiled by 'albert@albert-system' on 2024-07-22

   xtb is free software: you can redistribute it and/or modify it under
   the terms of the GNU Lesser General Public License as published by
   the Free Software Foundation, either version 3 of the License, or
   (at your option) any later version.
   
   xtb is distributed in the hope that it will be useful,
   but WITHOUT ANY WARRANTY; without even the implied warranty of
   MERCHANTABILITY or FITNESS FOR A PARTICULAR PURPOSE.  See the
   GNU Lesser General Public License for more details.
   
   Cite this work as:
   * C. Bannwarth, E. Caldeweyher, S. Ehlert, A. Hansen, P. Pracht,
     J. Seibert, S. Spicher, S. Grimme, WIREs Comput. Mol. Sci., 2020, 11,
     e01493. DOI: 10.1002/wcms.1493
   
   for GFN2-xTB:
   * C. Bannwarth, S. Ehlert and S. Grimme., J. Chem. Theory Comput., 2019,
     15, 1652-1671. DOI: 10.1021/acs.jctc.8b01176
   for GFN1-xTB:
   * S. Grimme, C. Bannwarth, P. Shushkov, J. Chem. Theory Comput., 2017,
     13, 1989-2009. DOI: 10.1021/acs.jctc.7b00118
   for GFN0-xTB:
   * P. Pracht, E. Caldeweyher, S. Ehlert, S. Grimme, ChemRxiv, 2019, preprint.
     DOI: 10.26434/chemrxiv.8326202.v1
   for GFN-FF:
   * S. Spicher and S. Grimme, Angew. Chem. Int. Ed., 2020, 59, 15665-15673.
     DOI: 10.1002/anie.202004239
   
   for ALPB and GBSA implicit solvation:
   * S. Ehlert, M. Stahn, S. Spicher, S. Grimme, J. Chem. Theory Comput.,
     2021, 17, 4250-4261. DOI: 10.1021/acs.jctc.1c00471
   
   for ddCOSMO and CPCM-X implicit solvation:
   * M. Stahn, S. Ehlert, S. Grimme, J. Phys. Chem. A,
     2023, XX, XXXX-XXXX. DOI: 10.1021/acs.jpca.3c04382
   
   for DFT-D4:
   * E. Caldeweyher, C. Bannwarth and S. Grimme, J. Chem. Phys., 2017,
     147, 034112. DOI: 10.1063/1.4993215
   * E. Caldeweyher, S. Ehlert, A. Hansen, H. Neugebauer, S. Spicher,
     C. Bannwarth and S. Grimme, J. Chem. Phys., 2019, 150, 154122.
     DOI: 10.1063/1.5090222
   * E. Caldeweyher, J.-M. Mewes, S. Ehlert and S. Grimme, Phys. Chem. Chem. Phys.
     2020, 22, 8499-8512. DOI: 10.1039/D0CP00502A
   
   for sTDA-xTB:
   * S. Grimme and C. Bannwarth, J. Chem. Phys., 2016, 145, 054103.
     DOI: 10.1063/1.4959605
   
   in the mass-spec context:
   * V. Asgeirsson, C. Bauer and S. Grimme, Chem. Sci., 2017, 8, 4879.
     DOI: 10.1039/c7sc00601b
   * J. Koopman and S. Grimme, ACS Omega 2019, 4, 12, 15120-15133.
     DOI: 10.1021/acsomega.9b02011
   
   for metadynamics refer to:
   * S. Grimme, J. Chem. Theory Comput., 2019, 155, 2847-2862
     DOI: 10.1021/acs.jctc.9b00143
   
   for SPH calculations refer to:
   * S. Spicher and S. Grimme, J. Chem. Theory Comput., 2021, 17, 1701-1714
     DOI: 10.1021/acs.jctc.0c01306
   
   for ONIOM refer to:
   * C. Plett, A. Katbashev, S. Ehlert, S. Grimme, M. Bursch,
     Phys. Chem. Chem. Phys., 2023, 25, 17860-17868. DOI: 10.1039/D3CP02178E
   
   for DIPRO refer to:
   * J. Kohn, N. Gildemeister, S. Grimme, D. Fazzi, A. Hansen,
     J. Chem. Phys., 2023, just accepted.
   
   for PTB refer to:
   * S. Grimme, M. Mueller, A. Hansen, J. Chem. Phys., 2023, 158, 124111.
     DOI: 10.1063/5.0137838
   
   with help from (in alphabetical order)
   P. Atkinson, C. Bannwarth, F. Bohle, G. Brandenburg, E. Caldeweyher
   M. Checinski, S. Dohm, S. Ehlert, S. Ehrlich, I. Gerasimov, C. Hölzer
   A. Katbashev, J. Kohn, J. Koopman, C. Lavigne, S. Lehtola, F. März, M. Müller,
   F. Musil, H. Neugebauer, J. Pisarek, C. Plett, P. Pracht, F. Pultar,
   J. Seibert, P. Shushkov, S. Spicher, M. Stahn, M. Steiner, T. Strunk,
   J. Stückrath, T. Rose, and J. Unsleber
   
 * started run on 2025/08/14 at 10:44:18.475     
   ID    Z sym.   atoms
    1    6 C      1, 2
    2    1 H      3, 4, 7-9
    3    7 N      5
    4    8 O      6, 10

           -------------------------------------------------
          |                Calculation Setup                |
           -------------------------------------------------

          program call               : otool_xtb g_XTB.xyz --grad -c 0 -u 0 -P 1 --namespace g --input g_XTB.input.tmp --acc 0.200000
          calculation namespace      : g
          coordinate file            : g_XTB.xyz
          omp threads                :                     1


           -------------------------------------------------
          |                 G F N 2 - x T B                 |
           -------------------------------------------------

        Reference                      10.1021/acs.jctc.8b01176
      * Hamiltonian:
        H0-scaling (s, p, d)           1.850000    2.230000    2.230000
        zeta-weighting                 0.500000
      * Dispersion:
        s8                             2.700000
        a1                             0.520000
        a2                             5.000000
        s9                             5.000000
      * Repulsion:
        kExp                           1.500000    1.000000
        rExp                           1.000000
      * Coulomb:
        alpha                          2.000000
        third order                    shell-resolved
        anisotropic                    true
        a3                             3.000000
        a5                             4.000000
        cn-shift                       1.200000
        cn-exp                         4.000000
        max-rad                        5.000000

q/qsh data taken from xtbrestart
CAMM data taken from xtbrestart

          ...................................................
          :                      SETUP                      :
          :.................................................:
          :  # basis functions                  25          :
          :  # atomic orbitals                  25          :
          :  # shells                           15          :
          :  # electrons                        30          :
          :  max. iterations                   250          :
          :  Hamiltonian                  GFN2-xTB          :
          :  restarted?                       true          :
          :  GBSA solvation                  false          :
          :  PC potential                    false          :
          :  electronic temp.          300.0000000     K    :
          :  accuracy                    0.2000000          :
          :  -> integral cutoff          0.3198970E+02      :
          :  -> integral neglect         0.2000000E-08      :
          :  -> SCF convergence          0.2000000E-06 Eh   :
          :  -> wf. convergence          0.2000000E-04 e    :
          :  Broyden damping             0.4000000          :
          :  net charge                          0          :
          :  unpaired electrons                  0          :
          ...................................................

 iter      E             dE          RMSdq      gap      omega  full diag
   1    -18.0339920 -0.180340E+02  0.200E-01    4.90       0.0  T
   2    -18.0340204 -0.284213E-04  0.117E-01    4.87       1.0  T
   3    -18.0340189  0.150781E-05  0.441E-02    4.88       1.0  T
   4    -18.0340248 -0.585384E-05  0.721E-03    4.87       4.4  T
   5    -18.0340248 -0.782962E-07  0.292E-03    4.87      10.8  T
   6    -18.0340248 -0.701387E-08  0.806E-04    4.87      39.2  T
   7    -18.0340248 -0.271335E-09  0.299E-04    4.87     105.7  T
   8    -18.0340248 -0.582254E-10  0.612E-05    4.87     516.8  T
   9    -18.0340248 -0.587619E-11  0.306E-05    4.87    1034.5  T

   *** convergence criteria satisfied after 9 iterations ***

         #    Occupation            Energy/Eh            Energy/eV
      -------------------------------------------------------------
         1        2.0000           -0.7411768             -20.1684
       ...           ...                  ...                  ...
         9        2.0000           -0.5475124             -14.8986
        10        2.0000           -0.5288053             -14.3895
        11        2.0000           -0.5038767             -13.7112
        12        2.0000           -0.4935569             -13.4304
        13        2.0000           -0.4698654             -12.7857
        14        2.0000           -0.4294093             -11.6848
        15        2.0000           -0.4077701             -11.0960 (HOMO)
        16                         -0.2287847              -6.2255 (LUMO)
        17                         -0.0017786              -0.0484
        18                          0.0704077               1.9159
        19                          0.0855108               2.3269
        20                          0.1220293               3.3206
       ...                                ...                  ...
        25                          0.6699331              18.2298
      -------------------------------------------------------------
                  HL-Gap            0.1789854 Eh            4.8704 eV
             Fermi-level           -0.3182774 Eh           -8.6608 eV

 SCC (total)                   0 d,  0 h,  0 min,  0.018 sec
 SCC setup                      ...        0 min,  0.000 sec (  0.976%)
 Dispersion                     ...        0 min,  0.000 sec (  0.350%)
 classical contributions        ...        0 min,  0.000 sec (  0.098%)
 integral evaluation            ...        0 min,  0.001 sec (  5.400%)
 iterations                     ...        0 min,  0.016 sec ( 86.306%)
 molecular gradient             ...        0 min,  0.001 sec (  6.419%)
 printout                       ...        0 min,  0.000 sec (  0.340%)

         :::::::::::::::::::::::::::::::::::::::::::::::::::::
         ::                     SUMMARY                     ::
         :::::::::::::::::::::::::::::::::::::::::::::::::::::
         :: total energy             -17.871606832383 Eh    ::
         :: gradient norm              0.016209466778 Eh/a0 ::
         :: HOMO-LUMO gap              4.870441945432 eV    ::
         ::.................................................::
         :: SCC energy               -18.034023257880 Eh    ::
         :: -> isotropic ES            0.056897586558 Eh    ::
         :: -> anisotropic ES          0.000903591639 Eh    ::
         :: -> anisotropic XC          0.004339358857 Eh    ::
         :: -> dispersion             -0.004462535199 Eh    ::
         :: repulsion energy           0.162416425496 Eh    ::
         :: add. restraining           0.000000000000 Eh    ::
         :: total charge               0.000000000000 e     ::
         :::::::::::::::::::::::::::::::::::::::::::::::::::::


Property printout bound to 'properties.out'

           -------------------------------------------------
          | TOTAL ENERGY              -17.871606832383 Eh   |
          | GRADIENT NORM               0.016209466778 Eh/α |
          | HOMO-LUMO GAP               4.870441945432 eV   |
           -------------------------------------------------

------------------------------------------------------------------------
 * finished run on 2025/08/14 at 10:44:18.504     
------------------------------------------------------------------------
 total:
 * wall-time:     0 d,  0 h,  0 min,  0.029 sec
 *  cpu-time:     0 d,  0 h,  0 min,  0.016 sec
 * ratio c/w:     0.553 speedup
 SCF:
 * wall-time:     0 d,  0 h,  0 min,  0.018 sec
 *  cpu-time:     0 d,  0 h,  0 min,  0.006 sec
 * ratio c/w:     0.301 speedup


-------------------------   --------------------
FINAL SINGLE POINT ENERGY       -17.871606832380
-------------------------   --------------------


-------------
DIPOLE MOMENT
-------------
                                X             Y             Z
Total Dipole Moment    :     -1.01300       1.49900      -1.30800
                        -----------------------------------------
Magnitude (a.u.)       :      2.23250
Magnitude (Debye)      :      5.67455


------------------
CARTESIAN GRADIENT
------------------

   1   C   :    0.005649024   -0.002962571   -0.000241132
   2   C   :    0.002665966    0.003928569    0.007438015
   3   H   :    0.000945768    0.000314685   -0.000503888
   4   H   :    0.000784973    0.000716806    0.001078563
   5   N   :   -0.003385216   -0.001753512   -0.000693454
   6   O   :    0.002256179   -0.001849885    0.000440408
   7   H   :   -0.001445251    0.000567915    0.000017380
   8   H   :   -0.001004455    0.000415280    0.000017227
   9   H   :    0.001117789    0.000970163   -0.000247074
  10   O   :   -0.007584776   -0.000347449   -0.007306046

Difference to translation invariance:
           :    0.0000000000    0.0000000000    0.0000000000

Difference to rotation invariance:
           :   -0.0000001918    0.0000000336    0.0000002721

Norm of the Cartesian gradient     ...    0.0162094668
RMS gradient                       ...    0.0029594302
MAX gradient                       ...    0.0075847760
------------------------------------------------------------------------------
                         ORCA GEOMETRY RELAXATION STEP
------------------------------------------------------------------------------

Reading the OPT-File                    .... done
Getting information on internals        .... done
Copying old internal coords+grads       .... done
Making the new internal coordinates     .... (2022 redundants) done
Validating the new internal coordinates .... (2022 redundants) done
Calculating the B-matrix                .... done
Calculating the G,G- and P matrices     .... done
Transforming gradient to internals      .... done
Projecting the internal gradient        .... done
Number of atoms                         ....  10
Number of internal coordinates          ....  36
Current Energy                          ....   -17.871606832 Eh
Current gradient norm                   ....     0.016209467 Eh/bohr
Maximum allowed component of the step   ....  0.300
Current trust radius                    ....  0.300
Updating the Hessian (BFGS)             .... done
Forming the augmented Hessian           .... done
Diagonalizing the augmented Hessian     .... done
Last element of RFO vector              ....  0.980282769
Lowest eigenvalues of augmented Hessian:
 -0.000905025  0.010108545  0.013696765  0.024007024  0.028645282
Length of the computed step             ....  0.201574320
The final length of the internal step   ....  0.201574320
Converting the step to Cartesian space:
 Initial RMS(Int)=    0.0335957199
Transforming coordinates:
 Iter   0:  RMS(Cart)=    0.0266915444 RMS(Int)=    1.0361883469
 Iter   5:  RMS(Cart)=    0.0000000141 RMS(Int)=    0.0000000141
done
Storing new coordinates                 .... done
The predicted energy change is          ....    -0.000470899
Previously predicted energy change      ....    -0.000838046
Actually observed energy change         ....    -0.000758183
Ratio of predicted to observed change   ....     0.904704067
New trust radius                        ....     0.450000000

                                .--------------------.
          ----------------------|Geometry convergence|-------------------------
          Item                value                   Tolerance       Converged
          ---------------------------------------------------------------------
          Energy change      -0.0007581833            0.0000050000      NO
          RMS gradient        0.0020078577            0.0001000000      NO
          MAX gradient        0.0100579660            0.0003000000      NO
          RMS step            0.0335957199            0.0020000000      NO
          MAX step            0.1231661699            0.0040000000      NO
[...]
     DOI: 10.1002/anie.202004239
   
   for ALPB and GBSA implicit solvation:
   * S. Ehlert, M. Stahn, S. Spicher, S. Grimme, J. Chem. Theory Comput.,
     2021, 17, 4250-4261. DOI: 10.1021/acs.jctc.1c00471
   
   for ddCOSMO and CPCM-X implicit solvation:
   * M. Stahn, S. Ehlert, S. Grimme, J. Phys. Chem. A,
     2023, XX, XXXX-XXXX. DOI: 10.1021/acs.jpca.3c04382
   
   for DFT-D4:
   * E. Caldeweyher, C. Bannwarth and S. Grimme, J. Chem. Phys., 2017,
     147, 034112. DOI: 10.1063/1.4993215
   * E. Caldeweyher, S. Ehlert, A. Hansen, H. Neugebauer, S. Spicher,
     C. Bannwarth and S. Grimme, J. Chem. Phys., 2019, 150, 154122.
     DOI: 10.1063/1.5090222
   * E. Caldeweyher, J.-M. Mewes, S. Ehlert and S. Grimme, Phys. Chem. Chem. Phys.
     2020, 22, 8499-8512. DOI: 10.1039/D0CP00502A
   
   for sTDA-xTB:
   * S. Grimme and C. Bannwarth, J. Chem. Phys., 2016, 145, 054103.
     DOI: 10.1063/1.4959605
   
   in the mass-spec context:
   * V. Asgeirsson, C. Bauer and S. Grimme, Chem. Sci., 2017, 8, 4879.
     DOI: 10.1039/c7sc00601b
   * J. Koopman and S. Grimme, ACS Omega 2019, 4, 12, 15120-15133.
     DOI: 10.1021/acsomega.9b02011
   
   for metadynamics refer to:
   * S. Grimme, J. Chem. Theory Comput., 2019, 155, 2847-2862
     DOI: 10.1021/acs.jctc.9b00143
   
   for SPH calculations refer to:
   * S. Spicher and S. Grimme, J. Chem. Theory Comput., 2021, 17, 1701-1714
     DOI: 10.1021/acs.jctc.0c01306
   
   for ONIOM refer to:
   * C. Plett, A. Katbashev, S. Ehlert, S. Grimme, M. Bursch,
     Phys. Chem. Chem. Phys., 2023, 25, 17860-17868. DOI: 10.1039/D3CP02178E
   
   for DIPRO refer to:
   * J. Kohn, N. Gildemeister, S. Grimme, D. Fazzi, A. Hansen,
     J. Chem. Phys., 2023, just accepted.
   
   for PTB refer to:
   * S. Grimme, M. Mueller, A. Hansen, J. Chem. Phys., 2023, 158, 124111.
     DOI: 10.1063/5.0137838
   
   with help from (in alphabetical order)
   P. Atkinson, C. Bannwarth, F. Bohle, G. Brandenburg, E. Caldeweyher
   M. Checinski, S. Dohm, S. Ehlert, S. Ehrlich, I. Gerasimov, C. Hölzer
   A. Katbashev, J. Kohn, J. Koopman, C. Lavigne, S. Lehtola, F. März, M. Müller,
   F. Musil, H. Neugebauer, J. Pisarek, C. Plett, P. Pracht, F. Pultar,
   J. Seibert, P. Shushkov, S. Spicher, M. Stahn, M. Steiner, T. Strunk,
   J. Stückrath, T. Rose, and J. Unsleber
   
 * started run on 2025/08/14 at 10:44:18.622     
   ID    Z sym.   atoms
    1    6 C      1, 2
    2    1 H      3, 4, 7-9
    3    7 N      5
    4    8 O      6, 10

           -------------------------------------------------
          |                Calculation Setup                |
           -------------------------------------------------

          program call               : otool_xtb g_XTB.xyz --grad -c 0 -u 0 -P 1 --namespace g --input g_XTB.input.tmp --acc 0.200000
          calculation namespace      : g
          coordinate file            : g_XTB.xyz
          omp threads                :                     1


           -------------------------------------------------
          |                 G F N 2 - x T B                 |
           -------------------------------------------------

        Reference                      10.1021/acs.jctc.8b01176
      * Hamiltonian:
        H0-scaling (s, p, d)           1.850000    2.230000    2.230000
        zeta-weighting                 0.500000
      * Dispersion:
        s8                             2.700000
        a1                             0.520000
        a2                             5.000000
        s9                             5.000000
      * Repulsion:
        kExp                           1.500000    1.000000
        rExp                           1.000000
      * Coulomb:
        alpha                          2.000000
        third order                    shell-resolved
        anisotropic                    true
        a3                             3.000000
        a5                             4.000000
        cn-shift                       1.200000
        cn-exp                         4.000000
        max-rad                        5.000000

q/qsh data taken from xtbrestart
CAMM data taken from xtbrestart

          ...................................................
          :                      SETUP                      :
          :.................................................:
          :  # basis functions                  25          :
          :  # atomic orbitals                  25          :
          :  # shells                           15          :
          :  # electrons                        30          :
          :  max. iterations                   250          :
          :  Hamiltonian                  GFN2-xTB          :
          :  restarted?                       true          :
          :  GBSA solvation                  false          :
          :  PC potential                    false          :
          :  electronic temp.          300.0000000     K    :
          :  accuracy                    0.2000000          :
          :  -> integral cutoff          0.3198970E+02      :
          :  -> integral neglect         0.2000000E-08      :
          :  -> SCF convergence          0.2000000E-06 Eh   :
          :  -> wf. convergence          0.2000000E-04 e    :
          :  Broyden damping             0.4000000          :
          :  net charge                          0          :
          :  unpaired electrons                  0          :
          ...................................................

 iter      E             dE          RMSdq      gap      omega  full diag
   1    -18.0325690 -0.180326E+02  0.320E-03    4.79       0.0  T
   2    -18.0325690 -0.127706E-07  0.183E-03    4.79      17.2  T
   3    -18.0325690 -0.788631E-10  0.750E-04    4.79      42.2  T
   4    -18.0325690 -0.538236E-09  0.149E-04    4.79     211.7  T
   5    -18.0325690 -0.117705E-09  0.519E-05    4.79     609.5  T

   *** convergence criteria satisfied after 5 iterations ***

         #    Occupation            Energy/Eh            Energy/eV
      -------------------------------------------------------------
         1        2.0000           -0.7409166             -20.1614
       ...           ...                  ...                  ...
         9        2.0000           -0.5477414             -14.9048
        10        2.0000           -0.5289262             -14.3928
        11        2.0000           -0.5034168             -13.6987
        12        2.0000           -0.4926180             -13.4048
        13        2.0000           -0.4693532             -12.7717
        14        2.0000           -0.4286522             -11.6642
        15        2.0000           -0.4060145             -11.0482 (HOMO)
        16                         -0.2301537              -6.2628 (LUMO)
        17                         -0.0006631              -0.0180
        18                          0.0737574               2.0070
        19                          0.0856751               2.3313
        20                          0.1199485               3.2640
       ...                                ...                  ...
        25                          0.6526845              17.7604
      -------------------------------------------------------------
                  HL-Gap            0.1758608 Eh            4.7854 eV
             Fermi-level           -0.3180841 Eh           -8.6555 eV

 SCC (total)                   0 d,  0 h,  0 min,  0.019 sec
 SCC setup                      ...        0 min,  0.000 sec (  0.316%)
 Dispersion                     ...        0 min,  0.000 sec (  0.118%)
 classical contributions        ...        0 min,  0.000 sec (  0.038%)
 integral evaluation            ...        0 min,  0.000 sec (  2.658%)
 iterations                     ...        0 min,  0.015 sec ( 78.914%)
 molecular gradient             ...        0 min,  0.003 sec ( 16.372%)
 printout                       ...        0 min,  0.000 sec (  1.414%)

         :::::::::::::::::::::::::::::::::::::::::::::::::::::
         ::                     SUMMARY                     ::
         :::::::::::::::::::::::::::::::::::::::::::::::::::::
         :: total energy             -17.871957440453 Eh    ::
         :: gradient norm              0.000197473620 Eh/a0 ::
         :: HOMO-LUMO gap              4.785414651031 eV    ::
         ::.................................................::
         :: SCC energy               -18.032567343965 Eh    ::
         :: -> isotropic ES            0.056875308343 Eh    ::
         :: -> anisotropic ES          0.000939221739 Eh    ::
         :: -> anisotropic XC          0.004328010452 Eh    ::
         :: -> dispersion             -0.004462208424 Eh    ::
         :: repulsion energy           0.160609903513 Eh    ::
         :: add. restraining           0.000000000000 Eh    ::
         :: total charge               0.000000000000 e     ::
         :::::::::::::::::::::::::::::::::::::::::::::::::::::


Property printout bound to 'properties.out'

           -------------------------------------------------
          | TOTAL ENERGY              -17.871957440453 Eh   |
          | GRADIENT NORM               0.000197473620 Eh/α |
          | HOMO-LUMO GAP               4.785414651031 eV   |
           -------------------------------------------------

------------------------------------------------------------------------
 * finished run on 2025/08/14 at 10:44:18.657     
------------------------------------------------------------------------
 total:
 * wall-time:     0 d,  0 h,  0 min,  0.035 sec
 *  cpu-time:     0 d,  0 h,  0 min,  0.018 sec
 * ratio c/w:     0.511 speedup
 SCF:
 * wall-time:     0 d,  0 h,  0 min,  0.019 sec
 *  cpu-time:     0 d,  0 h,  0 min,  0.010 sec
 * ratio c/w:     0.540 speedup


-------------------------   --------------------
FINAL SINGLE POINT ENERGY       -17.871957440450
-------------------------   --------------------


-------------
DIPOLE MOMENT
-------------
                                X             Y             Z
Total Dipole Moment    :     -1.02600       1.44000      -1.35900
                        -----------------------------------------
Magnitude (a.u.)       :      2.23006
Magnitude (Debye)      :      5.66836

                                *** OPTIMIZATION RUN DONE ***

		     ------------------------------
			                   _   
			                  | |  
			  __ _  ___   __ _| |_ 
			 / _` |/ _ \ / _` | __|
			| (_| | (_) | (_| | |_ 
			 \__, |\___/ \__,_|\__|
			 __/ |                
			|___/                 

		      A Global Optimizer Algorithm
		     ------------------------------

Global parameters
-----------------
  GOAT version                               ... default
  Minimum global steps                       ... 3
  Number of base workers                     ... 4
  Split workers by                           ... 2
  Final number of workers                    ... 8
  Number of available CPUs                   ... 1
  Parameter list (worker : temperature)      ...  0 : 2903.97,  1 : 1451.98, 
                                                  2 :  725.99,  3 :  363.00, 
                                                  4 : 2903.97,  5 : 1451.98, 
                                                  6 :  725.99,  7 :  363.00 
  GradComp (mean : sigma)                    ... 1.00 : 0.50
  Number of fragments                        ... 1
  Number of atoms                            ... 10
  Flexibility parameter                      ... 0.67
  Optimizations per global step              ... 120
  Optimizations per worker                   ... 15
  *Reached the min. opt. per worker: max(flex * NAtoms, 15) = 15

Filtering criteria
------------------
  RMSD                                       ... 0.125 Angs (atom. pos.)
  EnDiff                                     ... 0.100 kcal/mol
  RotConst                                   ... 1.00-2.50 %
  Maximum Conf. Energy                       ... 6.000 kcal/mol

Thermodynamics
--------------
  Ensemble temperature                       ... 298.15 K
  Degeneracy of conformers                   ... 1
  *No rotamers will be included in Gconf

------------------------------------------------------------------------------
   Iter  MinTemp     MaxEn       GradComp    NOpt   NProcs    Output
------------------------------------------------------------------------------
   0     2903.97     30.00    1.00 : 0.50      15        1    g.goat.0.0.out
   1     1451.98     30.00    1.00 : 0.50      15        1    g.goat.0.1.out
   2      725.99     30.00    1.00 : 0.50      15        1    g.goat.0.2.out
   3      363.00     30.00    1.00 : 0.50      15        1    g.goat.0.3.out
   4     2903.97     30.00    1.00 : 0.50      15        1    g.goat.0.4.out
   5     1451.98     30.00    1.00 : 0.50      15        1    g.goat.0.5.out
   6      725.99     30.00    1.00 : 0.50      15        1    g.goat.0.6.out
   7      363.00     30.00    1.00 : 0.50      15        1    g.goat.0.7.out

			     GOAT Global Iter 1
		Iter    Min En       Sconf       Gconf   
		        Hartree      cal/(molK)  kcal/mol
		=========================================

		   1    -17.877543   0.104       -0.005

   0     2903.97     30.00    1.00 : 0.50      15        1    g.goat.1.0.out
   1     1451.98     30.00    1.00 : 0.50      15        1    g.goat.1.1.out
   2      725.99     30.00    1.00 : 0.50      15        1    g.goat.1.2.out
   3      363.00     30.00    1.00 : 0.50      15        1    g.goat.1.3.out
   4     2903.97     30.00    1.00 : 0.50      15        1    g.goat.1.4.out
   5     1451.98     30.00    1.00 : 0.50      15        1    g.goat.1.5.out
   6      725.99     30.00    1.00 : 0.50      15        1    g.goat.1.6.out
   7      363.00     30.00    1.00 : 0.50      15        1    g.goat.1.7.out

			     GOAT Global Iter 2
		Iter    Min En       Sconf       Gconf   
		        Hartree      cal/(molK)  kcal/mol
		=========================================

		   1    -17.877543   0.104       -0.005
		   2    -17.877543   1.036       -0.095

   0     2903.97     30.00    1.00 : 0.50      15        1    g.goat.2.0.out
   1     1451.98     30.00    1.00 : 0.50      15        1    g.goat.2.1.out
   2      725.99     30.00    1.00 : 0.50      15        1    g.goat.2.2.out
   3      363.00     30.00    1.00 : 0.50      15        1    g.goat.2.3.out
   4     2903.97     30.00    1.00 : 0.50      15        1    g.goat.2.4.out
   5     1451.98     30.00    1.00 : 0.50      15        1    g.goat.2.5.out
   6      725.99     30.00    1.00 : 0.50      15        1    g.goat.2.6.out
   7      363.00     30.00    1.00 : 0.50      15        1    g.goat.2.7.out

			     GOAT Global Iter 3
		Iter    Min En       Sconf       Gconf   
		        Hartree      cal/(molK)  kcal/mol
		=========================================

		   1    -17.877543   0.104       -0.005
		   2    -17.877543   1.036       -0.095
		   3    -17.877543   1.185       -0.104

		Global minimum found!
		Writing structure to g.globalminimum.xyz

		# Final ensemble info #
		Conformer     Energy     Degen.   % total   % cumul.  
		              (kcal/mol)
		------------------------------------------------------
		        0     0.000	     1      83.84      83.84
		        1     1.194	     1      11.18      95.02
		        2     2.035	     1       2.70      97.72
		        3     2.332	     1       1.64      99.36
		        4     3.303	     1       0.32      99.68
		        5     3.505	     1       0.23      99.90
		        6     4.002	     1       0.10     100.00

		Conformers below 3 kcal/mol: 4
		Lowest energy conformer    : -17.877543 Eh
		Sconf at 298.15 K          :  1.19 cal/(molK)
		Gconf at 298.15 K          : -0.10 kcal/mol

		Writing final ensemble to g.finalensemble.xyz

--------------------------------
SUGGESTED CITATIONS FOR THIS RUN
--------------------------------

Below you find a list of papers that are relevant to this ORCA run
We neither can nor want to force you to cite these papers, but we appreciate if you do
You receive ORCA, which is the product of decades of hard work by many enthusiastic individuals, for free
The only thing we kindly ask in return is that you cite our papers,
We deeply appreciate it, if you show your appreciation for ORCA by not just citing the generic ORCA reference.

Please note that relegating all ORCA citations to the supporting information does *not* help us.
SI sections are not indexed - citations you put there will not count into any citation statistics
But we need these citations in order to attract the funding resources that allow us to do what we are doing

Therefore, if you are a happy ORCA user, please consider citing a few of the papers listed below in the main body of your paper

In addition to the list printed below, the program has created the file g.bibtex that contains the list in bibtex format
You can import this file easily into all common literature databanks and citation aid programs


List of essential papers. We consider these as the minimum necessary citations

  1. Bannwarth, C.; Ehlert, S.; Grimme, S.
     GFN2-xTB—An Accurate and Broadly Parametrized Self-Consistent Tight-Binding Quantum Chemical Method with Multipole Electrostatics and Density-Dependent Dispersion Contributions
     J. Chem. Theory Comput. 2019 15(3), 1652-1671
     doi.org/10.1021/acs.jctc.8b01176
  2. Neese, F.
     Software update: the ORCA program system, version 6.0
     WIRES Comput. Molec. Sci. 2025 15(1), e70019
     doi.org/10.1002/wcms.7019
  3. de Souza, B.
     GOAT: A Global Optimization Algorithm for Molecules and Atomic Clusters
     Angewandte Chemie 2025 64(18), e202500393
     doi.org/10.1002/anie.202500393

List of papers to cite with high priority. The work reported in these papers was absolutely
necessary for this run to complete.
Our perspective: the developers of density functionals and basis sets usually get cited in chemistry papers
Good! But without the algorithms to do something with them, the functionals or basis sets would not do anything.
Hence, in our opinion, the algorithm design and method developments papers are equally worthy of getting cited

  1. Bannwarth, C.; Caldeweyher, E.; Ehlert, S.; Hansen, A.; Pracht, P.; Seibert, J.; Spicher, S.; Grimme, S.
     Extended tight-binding quantum chemistry methods
     WIRES Comput. Molec. Sci. 2020 11(2), e1493
     doi.org/10.1002/wcms.1493

List of suggested additional citations. These are papers that are important in the 'surrounding' of 
of this run, or papers that preceded the highly important papers. If you like your results we are grateful for a citation.

  1. Neese, F.
     The ORCA program system
     WIRES Comput. Molec. Sci. 2012 2(1), 73-78
     doi.org/10.1002/wcms.81
  2. Neese, F.
     Software update: the ORCA program system, version 4.0
     WIRES Comput. Molec. Sci. 2018 8(1), 1-6
     doi.org/10.1002/wcms.1327
  3. Neese, F.; Wennmohs, F.; Becker, U.; Riplinger, C.
     The ORCA quantum chemistry program package
     J. Chem. Phys. 2020 152(22), 224108
     doi.org/10.1063/5.0004608
  4. Neese, F.
     Software update: The ORCA program system—Version 5.0
     WIRES Comput. Molec. Sci. 2022 12(1), e1606
     doi.org/10.1002/wcms.1606

List of optional additional citations

  1. Neese, F.
     Approximate second-order SCF convergence for spin unrestricted wavefunctions
     Chem. Phys. Lett. 2000 325(1-3), 93-98
     doi.org/10.1016/s0009-2614(00)00662-x

Timings for individual modules:

Sum of individual times          ...      341.144 sec (=   5.686 min)
Geometry relaxation              ...        0.009 sec (=   0.000 min)   0.0 %
GOAT                             ...      340.923 sec (=   5.682 min)  99.9 %
XTB module                       ...        0.212 sec (=   0.004 min)   0.1 %
                             ****ORCA TERMINATED NORMALLY****
TOTAL RUN TIME: 0 days 0 hours 5 minutes 41 seconds 187 msec
