
                                 *****************
                                 * O   R   C   A *
                                 *****************

                                            #,                                       
                                            ###                                      
                                            ####                                     
                                            #####                                    
                                            ######                                   
                                           ########,                                 
                                     ,,################,,,,,                         
                               ,,#################################,,                 
                          ,,##########################################,,             
                       ,#########################################, ''#####,          
                    ,#############################################,,   '####,        
                  ,##################################################,,,,####,       
                ,###########''''           ''''###############################       
              ,#####''   ,,,,##########,,,,          '''####'''          '####       
            ,##' ,,,,###########################,,,                        '##       
           ' ,,###''''                  '''############,,,                           
         ,,##''                                '''############,,,,        ,,,,,,###''
      ,#''                                            '''#######################'''  
     '                                                          ''''####''''         
             ,#######,   #######,   ,#######,      ##                                
            ,#'     '#,  ##    ##  ,#'     '#,    #''#        ,####,    ,#,          
            ##       ##  ##   ,#'  ##            #'  '#       #'       ,# #          
            ##       ##  #######   ##           ,######,      #####,      #          
            '#,     ,#'  ##    ##  '#,     ,#' ,#      #,     #,   #      #          
             '#######'   ##     ##  '#######'  #'      '#     '####' #    #          



                #########################################################
                #                        -***-                          #
                #          Department of theory and spectroscopy        #
                #                                                       #
                #                      Frank Neese                      #
                #                                                       #
                #     Directorship, Architecture, Infrastructure        #
                #                    SHARK, DRIVERS                     #
                #        Core code/Algorithms in most modules           #
                #                                                       #
                #        Max Planck Institute fuer Kohlenforschung      #
                #                Kaiser Wilhelm Platz 1                 #
                #                 D-45470 Muelheim/Ruhr                 #
                #                      Germany                          #
                #                                                       #
                #                  All rights reserved                  #
                #                        -***-                          #
                #########################################################


                         Program Version 6.1.0  -  RELEASE   -
                                (GIT: $679e74b$)
                          ($2025-06-10 18:02:51 +0200$)


 With contributions from (in alphabetic order):
[Max-Planck-Institut fuer Kohlenforschung]                               
  Daniel Aravena         : Magnetic Suceptibility                        
  Michael Atanasov       : Ab Initio Ligand Field Theory (pilot matlab implementation)
  Alexander A. Auer      : GIAO ZORA, VPT2 properties, NMR spectrum      
  Ute Becker             : All parallelization in ORCA, NUMFREQ, NUMCALC 
  Giovanni Bistoni       : ED, misc. LED, open-shell LED, HFLD           
  Dmytro Bykov           : pre 5.0 version of the SCF Hessian            
  Marcos Casanova-Páez   : Triplet and SCS-CIS(D). UHF-(DLPNO)-IP/EA/STEOM-CCSD. UHF-CVS-IP/STEOM-CCSD   
  Vijay G. Chilkuri      : MRCI spin determinant printing, contributions to CSF-ICE 
  Pauline Colinet        : FMM embedding                                 
  Dipayan Datta          : RHF DLPNO-CCSD density                        
  Achintya Kumar Dutta   : EOM-CC, STEOM-CC                              
  Nicolas Foglia         : Exact transition moments, OPA infrastructure, MCD improvements    
  Dmitry Ganyushin       : Spin-Orbit,Spin-Spin,Magnetic field MRCI      
  Miquel Garcia-Rates    : C-PCM and meta-GGA Hessian, CCSD/C-PCM, Gaussian charge scheme 
  Tiago L. C. Gouveia    : GS-ROHF, GS-ROCIS                             
  Yang Guo               : DLPNO-NEVPT2, F12-NEVPT2, CIM, IAO-localization        
  Andreas Hansen         : Spin unrestricted coupled pair/coupled cluster methods 
  Ingolf Harden          : AUTO-CI MPn and infrastructure                
  Benjamin Helmich-Paris : MC-RPA, TRAH-(SCF,CASSCF), AVAS, COSX integrals, SCF dyn. polar., MC-PDFT, srDFT 
  Lee Huntington         : MR-EOM, pCC                                   
  Robert Izsak           : Overlap fitted RIJCOSX, COSX-SCS-MP3, EOM     
  Riya Kayal             : Wick's Theorem for AUTO-CI, AUTO-CI UHF-CCSDT 
  Emily Kempfer          : AUTO-CI RHF CISDT and CCSDT, approximate NEVPT4
  Christian Kollmar      : KDIIS, OOCD, Brueckner-CCSD(T), CCSD density, CASPT2, CASPT2-K, improved NEVPT2 
  Axel Koslowski         : Symmetry handling                             
  Simone Kossmann        : meta-GGA functionals, TD-DFT gradient, OOMP2, (MP2 Hessian; deprecated post 5.0) 
  Lucas Lang             : DCDCAS, Hyperfine gauge corrections, ICE-SOC+SSC
  Marvin Lechner         : AUTO-CI (C++ implementation), FIC-MRCC        
  Spencer Leger          : CASSCF response                               
  Dagmar Lenk            : GEPOL surface, SMD, ORCA-2-JSON               
  Dimitrios Liakos       : Extrapolation schemes; Compound Job, Property file
  Dimitrios Manganas     : Further ROCIS development; embedding schemes. LFT, Crystal Embedding 
  Dimitrios Pantazis     : SARC Basis sets                               
  Anastasios Papadopoulos: AUTO-CI, single reference methods and gradients 
  Taras Petrenko         : pre 6.0 DFT Hessian and TD-DFT gradient,  ECA, NRVS 
  Petra Pikulova         : Analytic Raman intensities                    
  Peter Pinski           : DLPNO-MP2, DLPNO-MP2 Gradient                 
  Shashank Vittal Rao    : ES-AILFT, MagRelax                            
  Christoph Reimann      : Effective Core Potentials                     
  Marius Retegan         : Local ZFS, SOC                                
  Christoph Riplinger    : Optimizer, TS searches, QM/MM, DLPNO-CCSD(T), (RO)-DLPNO pert. Triples 
  Michael Roemelt        : Original ROCIS implementation, recursive CI coupling coefficients
  Masaaki Saitow         : Open-shell DLPNO-CCSD energy and density      
  Barbara Sandhoefer     : DKH picture change effects                    
  Yorick L. A. Schmerwitz: GMF and freeze-and-release deltaSCF, NEB S-IDPP initial path                    
  Kantharuban Sivalingam : CASSCF convergence/infrastructure, NEVPT2, NEVPT3, NEVPT4(SD), FIC-MRCI and CEPA variants
  Bernardo de Souza      : ESD, SOC TD-DFT                               
  Georgi L. Stoychev     : AutoAux, RI-MP2 NMR, DLPNO-MP2 response, X2C  
  Van Anh Tran           : RI-MP2 g-tensors                              
  Willem Van den Heuvel  : Paramagnetic NMR                              
  Zikuan Wang            : NOTCH, Electric field optimization            
  Frank Wennmohs         : Technical directorship and infrastructure     
  Hang Xu                : AUTO-CI-Response properties                   
                                                                         
[FACCTs GmbH]                                                            
  Markus Bursch, Nicolas Foglia, Miquel Garcia-Rates, Ingolf Harden, Hagen Neugebauer, Anastasios Papadopoulos, 
  Christoph Riplinger, Bernardo de Souza, Georgi L. Stoychev                                                    
                                                                 
  APM, various basis sets, CI-OPT, improved COSX, DLPNO-Multilevel,           
  DOCKER, DRACO, updates on ESD, Fragmentator, GOAT, IRC, LR-CPCM, L-BFGS, MBIS, meta-GGA TD-DFT gradient, ML-optimized integration grids, 
  MM, NACMEs, nearIR, NEB, NEB-TS, NL-DFT gradient (VV10), 2- and 3-layer-ONIOM, interface openCOSMO-RS, QMMM,   
  Crystal-QMMM, RESP, rigid body optimization, SF, symmetry and pop. for TD-DFT, various functionals, SOLVATOR                                   
                                                                         
[Other institutions]                                                     
  V. Asgeirsson          : NEB                                           
  Christoph Bannwarth    : sTDA-DFT, sTD-DFT, PBEh-3c, B97-3c, D3        
  Giovanni Bistoni       : ETS/NOCV, ADLD/ADEX, COVALED                  
  Martin Brehm           : Molecular dynamics                            
  Ronald Cardenas        : ETS/NOCV                                      
  Martina Colucci        : COVALED                                       
  Sebastian Ehlert       : rSCAN, r2SCAN, r2SCAN-3c, D4, dhf basis sets  
  Marvin Friede          : D4 for Fr, Ra, Ac-Lr                          
  Lars Goerigk           : TD-DFT with DH, B97 family of functionals     
  Stefan Grimme          : VdW corrections, initial TS optimization, DFT functionals, gCP, sTDA/sTD-DF 
  Waldemar Hujo          : DFT-NL                                        
  H. Jonsson             : NEB                                           
  Holger Kruse           : gCP                                           
  Marcel Mueller         : wB97X-3c, vDZP basis set                      
  Hagen Neugebauer       : wr2SCAN, Native XTB                           
  Gianluca Regni         : ADLD/ADEX                                     
  Tobias Risthaus        : pre 6.0 range-separated hybrid DFT and stability analysis
  Lukas Wittmann         : regularized MP2, r2SCAN double-hybrids, wr2SCAN        
                                                                         
We gratefully acknowledge several colleagues who have allowed us to      
interface, adapt or use parts of their codes:                            
  Ed Valeev, F. Pavosevic, A. Kumar             : LibInt (2-el integral package), F12 methods 
  Garnet Chan, S. Sharma, J. Yang, R. Olivares  : DMRG                   
  Ulf Ekstrom                                   : XCFun DFT Library      
  Mihaly Kallay                                 : mrcc  (arbitrary order and MRCC methods)
  Frank Weinhold                                : gennbo (NPA and NBO analysis)           
  Simon Mueller                                 : openCOSMO-RS                            
  Christopher J. Cramer and Donald G. Truhlar   : smd solvation model                     
  S Lehtola, MJT Oliveira, MAL Marques          : LibXC Library                           
  Liviu Ungur et al                             : ANISO software                          


 Your calculation uses the libint2 library for the computation of 2-el integrals
 For citations please refer to: http://libint.valeyev.net

 Your ORCA version has been built with support for libXC version: 7.0.0
 For citations please refer to: https://libxc.gitlab.io

 This ORCA versions uses:
   CBLAS   interface :  Fast vector & matrix operations
   LAPACKE interface :  Fast linear algebra routines
   SCALAPACK package :  Parallel linear algebra routines
   Shared memory     :  Shared parallel matrices
   BLAS/LAPACK       :  OpenBLAS 0.3.29  USE64BITINT DYNAMIC_ARCH NO_AFFINITY Haswell SINGLE_THREADED
        Core in use  :  Haswell
   Copyright (c) 2011-2014, The OpenBLAS Project


  ***********************************
  * Starting time: Mon Sep  1 01:03:18 2025
  * Host name:     chemlab03
  * Process ID:    96153
  * Working dir.:  /home/vivek/mm-project/vivek/xtb-goat/MP2-opt/f/3
  ***********************************



***************************************
The coordinates will be read from file: /home/vivek/mm-project/vivek/xtb-goat/xtb-goat/f/F_CONF/3.xyz
***************************************


================================================================================

----- Orbital basis set information -----
Your calculation utilizes the basis: 6-31G**
   H-He, Li-Ne : W. J. Hehre, R. Ditchfield and J.A. Pople, J. Chem. Phys. 56, 2257 (1972).
                 Note: He and Ne are unpublished basis sets taken from the Gaussian program.
                 Note: Li and B from J. D. Dill and J. A. Pople, J. Chem. Phys. 62, 2921 (1975).
   Na - Ar     : M. M. Francl, W. J. Pietro, W. J. Hehre, J. S. Binkley, M. S. Gordon, 
                 D. J. DeFrees and J. A. Pople, J. Chem. Phys. 77, 3654 (1982).
   K - Zn      : V. A. Rassolov, J. A. Pople, M. A. Ratner, and T. L. Windus, J. Chem. Phys. 109, 1223 (1998).

================================================================================
                                        WARNINGS
                       Please study these warnings very carefully!
================================================================================


WARNING: The frozen-core approximation for MP2-gradient calculations is turned on by default.

WARNING: Geometry Optimization
  ===> : Switching off AutoStart
         For restart on a previous wavefunction, please use MOREAD

WARNING: Post HF methods need fully converged wavefunctions
  ===> : Setting SCFConvForced true
         You can overwrite this default with %scf ConvForced false 


================================================================================
                                       INPUT FILE
================================================================================
NAME = 3.inp
|  1> ! MP2 6-31G** opt
|  2> 
|  3> * xyzfile 0 1 /home/vivek/mm-project/vivek/xtb-goat/xtb-goat/f/F_CONF/3.xyz
|  4> 
|  5>                          ****END OF INPUT****
================================================================================

                       *****************************
                       * Geometry Optimization Run *
                       *****************************

Geometry optimization settings:
Update method            Update   .... BFGS
Choice of coordinates    CoordSys .... (2022) Redundant Internals
Initial Hessian          InHess   .... Almloef's Model
Max. no of cycles        MaxIter  .... 69

Convergence Tolerances:
Energy Change            TolE     ....  5.0000e-06 Eh
Max. Gradient            TolMAXG  ....  3.0000e-04 Eh/bohr
RMS Gradient             TolRMSG  ....  1.0000e-04 Eh/bohr
Max. Displacement        TolMAXD  ....  4.0000e-03 bohr
RMS Displacement         TolRMSD  ....  2.0000e-03 bohr
Strict Convergence                .... False

------------------------------------------------------------------------------
                        ORCA OPTIMIZATION COORDINATE SETUP
------------------------------------------------------------------------------

The optimization will be done in redundant internal coordinates (2022)
Making redundant internal coordinates   ...  (2022 redundants) done
Evaluating the initial hessian          ...  (Almloef) done
Evaluating the coordinates              ...  done
Calculating the B-matrix                .... done
Calculating the G-matrix                .... done
The number of degrees of freedom        ....  107

    -----------------------------------------------------------------
                    Redundant Internal Coordinates


    -----------------------------------------------------------------
         Definition                    Initial Value    Approx d2E/dq
    -----------------------------------------------------------------
      1. B(C   1,C   0)                  1.3843         0.638053   
      2. B(H   4,C   2)                  1.0812         0.371910   
      3. B(C   5,C   1)                  1.3835         0.639797   
      4. B(H   7,C   1)                  1.0803         0.373174   
      5. B(C   8,C   5)                  1.3879         0.629540   
      6. B(C   8,C   6)                  1.5013         0.415057   
      7. B(C   8,C   2)                  1.3889         0.627239   
      8. B(H   9,C   0)                  1.0802         0.373331   
      9. B(C  10,H   3)                  1.0805         0.372934   
     10. B(C  10,C   2)                  1.3834         0.640077   
     11. B(C  10,C   0)                  1.3844         0.637800   
     12. B(H  11,C   5)                  1.0791         0.374854   
     13. B(C  12,C   6)                  1.5462         0.351961   
     14. B(H  13,C   6)                  1.0911         0.358698   
     15. B(H  14,C   6)                  1.0916         0.357989   
     16. B(C  15,C  12)                  1.5240         0.381936   
     17. B(N  17,C  12)                  1.4462         0.455129   
     18. B(O  18,H  16)                  0.9710         0.499443   
     19. B(O  18,C  15)                  1.3374         0.678847   
     20. B(H  19,N  17)                  1.0139         0.426506   
     21. B(O  20,C  15)                  1.2029         1.112638   
     22. B(H  21,C  12)                  1.0952         0.353341   
     23. B(H  22,N  17)                  1.0160         0.423244   
     24. A(C   1,C   0,C  10)          119.6904         0.438547   
     25. A(C   1,C   0,H   9)          120.2104         0.356807   
     26. A(H   9,C   0,C  10)          120.0991         0.356783   
     27. A(C   0,C   1,C   5)          120.1926         0.438795   
     28. A(C   0,C   1,H   7)          119.9712         0.356782   
     29. A(C   5,C   1,H   7)          119.8362         0.356947   
     30. A(C   8,C   2,C  10)          120.6060         0.437478   
     31. A(H   4,C   2,C   8)          119.5662         0.355543   
     32. A(H   4,C   2,C  10)          119.8274         0.356768   
     33. A(C   1,C   5,C   8)          120.4837         0.437733   
     34. A(C   8,C   5,H  11)          119.4709         0.356241   
     35. A(C   1,C   5,H  11)          120.0445         0.357220   
     36. A(C  12,C   6,H  14)          108.4015         0.320857   
     37. A(H  13,C   6,H  14)          109.0874         0.290393   
     38. A(C   8,C   6,H  14)          110.3567         0.329674   
     39. A(C  12,C   6,H  13)          108.5580         0.320961   
     40. A(C   8,C   6,H  13)          110.2165         0.329782   
     41. A(C   8,C   6,C  12)          110.1726         0.366204   
     42. A(C   5,C   8,C   6)          120.7558         0.405196   
     43. A(C   2,C   8,C   6)          120.2426         0.404934   
     44. A(C   2,C   8,C   5)          118.9772         0.436172   
     45. A(C   0,C  10,H   3)          120.0637         0.356719   
     46. A(C   0,C  10,C   2)          120.0490         0.438798   
     47. A(C   2,C  10,H   3)          119.8872         0.356935   
     48. A(C  15,C  12,N  17)          112.4720         0.374960   
     49. A(C   6,C  12,N  17)          110.0271         0.369718   
     50. A(C   6,C  12,C  15)          108.1392         0.361035   
     51. A(N  17,C  12,H  21)          109.1579         0.332005   
     52. A(C  15,C  12,H  21)          108.4632         0.324489   
     53. A(C   6,C  12,H  21)          108.4908         0.320172   
     54. A(C  12,C  15,O  20)          124.3575         0.439085   
     55. A(C  12,C  15,O  18)          112.7427         0.402044   
     56. A(O  18,C  15,O  20)          122.8968         0.484476   
     57. A(C  12,N  17,H  19)          110.6242         0.339625   
     58. A(H  19,N  17,H  22)          107.1442         0.301492   
     59. A(C  12,N  17,H  22)          109.3244         0.339190   
     60. A(C  15,O  18,H  16)          110.5502         0.373343   
     61. D(C   5,C   1,C   0,C  10)      0.1273         0.028274   
     62. D(C   5,C   1,C   0,H   9)   -179.8855         0.028274   
     63. D(H   7,C   1,C   0,H   9)      0.1108         0.028274   
     64. D(H   7,C   1,C   0,C  10)   -179.8763         0.028274   
     65. D(H  11,C   5,C   1,H   7)      0.3725         0.028439   
     66. D(H  11,C   5,C   1,C   0)   -179.6311         0.028439   
     67. D(C   8,C   5,C   1,C   0)      0.0089         0.028439   
     68. D(C   8,C   5,C   1,H   7)   -179.9874         0.028439   
     69. D(C   6,C   8,C   5,C   1)   -178.4720         0.027477   
     70. D(C   6,C   8,C   2,C  10)    178.6051         0.027263   
     71. D(C   2,C   8,C   5,C   1)     -0.2642         0.027477   
     72. D(C   2,C   8,C   5,H  11)    179.3778         0.027477   
     73. D(C   5,C   8,C   6,C  12)     87.7445         0.012748   
     74. D(C   5,C   8,C   2,C  10)      0.3879         0.027263   
     75. D(C   5,C   8,C   2,H   4)   -179.8442         0.027263   
     76. D(C   2,C   8,C   6,H  13)     29.3357         0.012748   
     77. D(C   2,C   8,C   6,C  12)    -90.4407         0.012748   
     78. D(C   2,C   8,C   6,H  14)    149.8882         0.012748   
     79. D(C   6,C   8,C   5,H  11)      1.1700         0.027477   
     80. D(C   6,C   8,C   2,H   4)     -1.6270         0.027263   
     81. D(C   5,C   8,C   6,H  13)   -152.4792         0.012748   
     82. D(H   3,C  10,C   2,C   8)    179.7412         0.028466   
     83. D(H   3,C  10,C   2,H   4)     -0.0261         0.028466   
     84. D(C   0,C  10,C   2,C   8)     -0.2559         0.028466   
     85. D(C   0,C  10,C   2,H   4)    179.9768         0.028466   
     86. D(H   3,C  10,C   0,H   9)      0.0111         0.028250   
     87. D(H   3,C  10,C   0,C   1)    179.9983         0.028250   
     88. D(C   2,C  10,C   0,H   9)   -179.9918         0.028250   
     89. D(C   2,C  10,C   0,C   1)     -0.0046         0.028250   
     90. D(C  15,C  12,C   6,H  13)     49.8878         0.010000   
     91. D(C  15,C  12,C   6,C   8)    170.6639         0.010000   
     92. D(N  17,C  12,C   6,H  14)     54.7111         0.010000   
     93. D(N  17,C  12,C   6,H  13)    173.0850         0.010000   
     94. D(N  17,C  12,C   6,C   8)    -66.1389         0.010000   
     95. D(C  15,C  12,C   6,H  14)    -68.4862         0.010000   
     96. D(O  20,C  15,C  12,N  17)    -14.5482         0.010879   
     97. D(O  20,C  15,C  12,C   6)    107.1536         0.010879   
     98. D(O  18,C  15,C  12,H  21)     45.2401         0.010879   
     99. D(O  18,C  15,C  12,N  17)    166.0717         0.010879   
    100. D(O  18,C  15,C  12,C   6)    -72.2265         0.010879   
    101. D(H  22,N  17,C  12,C  15)     49.7596         0.017676   
    102. D(H  22,N  17,C  12,C   6)    -70.8621         0.017676   
    103. D(H  19,N  17,C  12,H  21)     52.4331         0.017676   
    104. D(H  19,N  17,C  12,C  15)    -67.9989         0.017676   
    105. D(H  19,N  17,C  12,C   6)    171.3794         0.017676   
    106. D(H  16,O  18,C  15,O  20)     -0.6958         0.034314   
    107. D(H  16,O  18,C  15,C  12)    178.6947         0.034314   
    -----------------------------------------------------------------

Number of atoms                         .... 23
Number of degrees of freedom            .... 107


         *************************************************************
         *                GEOMETRY OPTIMIZATION CYCLE   1            *
         *************************************************************
---------------------------------
CARTESIAN COORDINATES (ANGSTROEM)
---------------------------------
  C     -6.578871    1.045268   -1.328721
  C     -5.405362    0.858466   -2.038811
  C     -5.319806    1.118969    0.710338
  H     -7.445733    1.321641    0.609007
  H     -5.288472    1.221553    1.786220
  C     -4.192617    0.799519   -1.375515
  C     -2.822941    0.897514    0.728284
  H     -5.435321    0.758233   -3.114026
  C     -4.138554    0.926424    0.005555
  H     -7.526046    1.089487   -1.846107
  C     -6.533473    1.175592    0.048776
  H     -3.278714    0.659782   -1.931973
  C     -2.221875    2.320386    0.798711
  H     -2.959650    0.527563    1.745566
  H     -2.116402    0.250483    0.205078
  C     -1.018518    2.281392    1.733006
  H     -0.576168    2.108623    3.581677
  N     -1.876367    2.778368   -0.528885
  O     -1.365607    2.150518    3.017950
  H     -1.614625    3.757786   -0.511959
  O      0.126047    2.348042    1.368948
  H     -2.971996    2.993494    1.227215
  H     -1.070432    2.258737   -0.864664

----------------------------
CARTESIAN COORDINATES (A.U.)
----------------------------
  NO LB      ZA    FRAG     MASS         X           Y           Z
   0 C     6.0000    0    12.011  -12.432264    1.975270   -2.510919
   1 C     6.0000    0    12.011  -10.214654    1.622266   -3.852795
   2 C     6.0000    0    12.011  -10.052976    2.114545    1.342345
   3 H     1.0000    0     1.008  -14.070397    2.497540    1.150857
   4 H     1.0000    0     1.008   -9.993763    2.308401    3.375467
   5 C     6.0000    0    12.011   -7.922898    1.510871   -2.599346
   6 C     6.0000    0    12.011   -5.334586    1.696056    1.376258
   7 H     1.0000    0     1.008  -10.271269    1.432853   -5.884657
   8 C     6.0000    0    12.011   -7.820735    1.750687    0.010497
   9 H     1.0000    0     1.008  -14.222165    2.058832   -3.488636
  10 C     6.0000    0    12.011  -12.346474    2.221547    0.092173
  11 H     1.0000    0     1.008   -6.195872    1.246807   -3.650900
  12 C     6.0000    0    12.011   -4.198736    4.384895    1.509344
  13 H     1.0000    0     1.008   -5.592928    0.996950    3.298643
  14 H     1.0000    0     1.008   -3.999420    0.473345    0.387540
  15 C     6.0000    0    12.011   -1.924720    4.311207    3.274907
  16 H     1.0000    0     1.008   -1.088800    3.984719    6.768389
  17 N     7.0000    0    14.007   -3.545820    5.250355   -0.999449
  18 O     8.0000    0    15.999   -2.580623    4.063889    5.703098
  19 H     1.0000    0     1.008   -3.051199    7.101186   -0.967461
  20 O     8.0000    0    15.999    0.238195    4.437157    2.586937
  21 H     1.0000    0     1.008   -5.616259    5.656884    2.319099
  22 H     1.0000    0     1.008   -2.022823    4.268395   -1.633979

--------------------------------
INTERNAL COORDINATES (ANGSTROEM)
--------------------------------
 C      0   0   0     0.000000000000     0.00000000     0.00000000
 C      1   0   0     1.384284945262     0.00000000     0.00000000
 C      1   2   0     2.397590527485    89.72654269     0.00000000
 H      3   1   2     2.137969319341    55.97363414   179.99753158
 H      3   1   2     1.081215911896   149.81445782   179.95601820
 C      2   1   3     1.383541887220   120.19260436     0.12503230
 C      3   1   2     2.506730364370   121.76549138     0.70237538
 H      2   1   3     1.080292331848   119.97123309   180.12137357
 C      6   2   1     1.387940948750   120.48367877     0.00000000
 H      1   2   3     1.080177458847   120.21044408   179.98947382
 C      4   3   1     1.080467288726    34.12619773     0.00000000
 H      6   2   1     1.079069311292   120.04446015   180.36888533
 C      7   3   1     1.546223029605   107.83225420    97.80745766
 H      7   3   1     1.091061693336    84.94135147   205.69552242
 H      7   3   1     1.091600586469   133.91866762   317.44256732
 C     13   7   3     1.523974272861   108.13921881   140.47743037
 H     16  13   7     1.908692311818   141.17831977   288.76527356
 N     13   7   3     1.446248365624   110.02705183   263.67466462
 O     17  16  13     0.970956656487    41.00370810   358.07957081
 H     18  13   7     1.013930084904   110.62415765   171.37935287
 O     16  13   7     1.202917303469   124.35751121   107.15360874
 H     13   7   3     1.095157706372   108.49077897    23.02866700
 H     18  13   7     1.016019546469   109.32443746   289.13789090

---------------------------
INTERNAL COORDINATES (A.U.)
---------------------------
 C      0   0   0     0.000000000000     0.00000000     0.00000000
 C      1   0   0     2.615919437855     0.00000000     0.00000000
 C      1   2   0     4.530789478231    89.72654269     0.00000000
 H      3   1   2     4.040176496280    55.97363414   179.99753158
 H      3   1   2     2.043201965121   149.81445782   179.95601820
 C      2   1   3     2.614515261655   120.19260436     0.12503230
 C      3   1   2     4.737033880243   121.76549138     0.70237538
 H      2   1   3     2.041456651769   119.97123309   180.12137357
 C      6   2   1     2.622828283192   120.48367877     0.00000000
 H      1   2   3     2.041239573256   120.21044408   179.98947382
 C      4   3   1     2.041787272353    34.12619773     0.00000000
 H      6   2   1     2.039145477860   120.04446015   180.36888533
 C      7   3   1     2.921938067915   107.83225420    97.80745766
 H      7   3   1     2.061807795617    84.94135147   205.69552242
 H      7   3   1     2.062826156053   133.91866762   317.44256732
 C     13   7   3     2.879894010849   108.13921881   140.47743037
 H     16  13   7     3.606905743256   141.17831977   288.76527356
 N     13   7   3     2.733013332661   110.02705183   263.67466462
 O     17  16  13     1.834842168669    41.00370810   358.07957081
 H     18  13   7     1.916050179412   110.62415765   171.37935287
 O     16  13   7     2.273184265311   124.35751121   107.15360874
 H     13   7   3     2.069548138496   108.49077897    23.02866700
 H     18  13   7     1.919998689537   109.32443746   289.13789090

---------------------
BASIS SET INFORMATION
---------------------
There are 4 groups of distinct atoms

 Group   1 Type C   : 10s4p1d contracted to 3s2p1d pattern {631/31/1}
 Group   2 Type H   : 4s1p contracted to 2s1p pattern {31/1}
 Group   3 Type N   : 10s4p1d contracted to 3s2p1d pattern {631/31/1}
 Group   4 Type O   : 10s4p1d contracted to 3s2p1d pattern {631/31/1}

Atom   0C    basis set group =>   1
Atom   1C    basis set group =>   1
Atom   2C    basis set group =>   1
Atom   3H    basis set group =>   2
Atom   4H    basis set group =>   2
Atom   5C    basis set group =>   1
Atom   6C    basis set group =>   1
Atom   7H    basis set group =>   2
Atom   8C    basis set group =>   1
Atom   9H    basis set group =>   2
Atom  10C    basis set group =>   1
Atom  11H    basis set group =>   2
Atom  12C    basis set group =>   1
Atom  13H    basis set group =>   2
Atom  14H    basis set group =>   2
Atom  15C    basis set group =>   1
Atom  16H    basis set group =>   2
Atom  17N    basis set group =>   3
Atom  18O    basis set group =>   4
Atom  19H    basis set group =>   2
Atom  20O    basis set group =>   4
Atom  21H    basis set group =>   2
Atom  22H    basis set group =>   2
------------------------------------------------------------------------------
                             ORCA STARTUP CALCULATIONS
------------------------------------------------------------------------------
------------------------------------------------------------------------------
                   ___                                                        
                  /   \      - P O W E R E D   B Y -                         
                 /     \                                                     
                 |  |  |   _    _      __       _____    __    __             
                 |  |  |  | |  | |    /  \     |  _  \  |  |  /  |          
                  \  \/   | |  | |   /    \    | | | |  |  | /  /          
                 / \  \   | |__| |  /  /\  \   | |_| |  |  |/  /          
                |  |  |   |  __  | /  /__\  \  |    /   |      \           
                |  |  |   | |  | | |   __   |  |    \   |  |\   \          
                \     /   | |  | | |  |  |  |  | |\  \  |  | \   \       
                 \___/    |_|  |_| |__|  |__|  |_| \__\ |__|  \__/        
                                                                              
                      - O R C A' S   B I G   F R I E N D -                    
                                      &                                       
                       - I N T E G R A L  F E E D E R -                       
                                                                              
 v1 FN, 2020, v2 2021, v3 2022-2024                                           
------------------------------------------------------------------------------


----------------------
SHARK INTEGRAL PACKAGE
----------------------

Number of atoms                             ...     23
Number of basis functions                   ...    223
Number of shells                            ...    105
Maximum angular momentum                    ...      2
Integral batch strategy                     ... SHARK/LIBINT Hybrid
RI-J (if used) integral strategy            ... SPLIT-RIJ (Revised 2003 algorithm where possible)
Printlevel                                  ...      1
Contraction scheme used                     ... SEGMENTED contraction
Prescreening option                         ... SCHWARTZ
   Thresh                                   ... 2.500e-11
   Tcut                                     ... 2.500e-12
   Tpresel                                  ... 2.500e-12 
Coulomb Range Separation                    ... NOT USED
Exchange Range Separation                   ... NOT USED
Multipole approximations                    ... NOT USED
Finite Nucleus Model                        ... NOT USED
CABS basis                                  ... NOT available
Auxiliary Coulomb fitting basis             ... NOT available
Auxiliary J/K fitting basis                 ... NOT available
Auxiliary Correlation fitting basis         ... NOT available
Auxiliary 'external' fitting basis          ... NOT available

Checking pre-screening integrals            ... done (  0.0 sec) Dimension = 105
   => SHARK Basis and OBASIS are compatible. Storing Pre-screening
Shell pair information
Shell pair cut-off parameter TPreSel        ...   2.5e-12
Total number of shell pairs                 ...      5565
Shell pairs after pre-screening             ...      4645
Total number of primitive shell pairs       ...     28015
Primitive shell pairs kept                  ...     14879
          la=0 lb=0:   1427 shell pairs
          la=1 lb=0:   1702 shell pairs
          la=1 lb=1:    539 shell pairs
          la=2 lb=0:    570 shell pairs
          la=2 lb=1:    344 shell pairs
          la=2 lb=2:     63 shell pairs

Checking whether 4 symmetric matrices of dimension 223 fit in memory
:Max Core in MB      =   4096.00
 MB in use           =      7.50
 MB left             =   4088.50
 MB needed           =      0.76
 Data fit in memory  = YES
Calculating Nuclear repulsion               ... done (  0.0 sec) ENN=    672.485355895184 Eh

Diagonalization of the overlap matrix:
Smallest eigenvalue                        ... 4.359e-04
Time for diagonalization                   ...    0.003 sec
Threshold for overlap eigenvalues          ... 1.000e-07
Number of eigenvalues below threshold      ... 0
Time for construction of square roots      ...    0.001 sec
Total time needed                          ...    0.004 sec

-------------------
DFT GRID GENERATION
-------------------

General Integration Accuracy     IntAcc      ... 4.388
Radial Grid Type                 RadialGrid  ... OptM3 with GC (2021)
Angular Grid (max. ang.)         AngularGrid ... 4 (Lebedev-302)
Angular grid pruning method      GridPruning ... 4 (adaptive)
Weight generation scheme         WeightScheme... mBecke (2022)
Basis function cutoff            BFCut       ... 1.0000e-11
Integration weight cutoff        WCut        ... 1.0000e-14
Partially contracted basis set               ... off
Rotationally invariant grid construction     ... off
Angular grids for H and He will be reduced by one unit

Total number of grid points                  ...   107229
Total number of batches                      ...     1687
Average number of points per batch           ...       63
Average number of grid points per atom       ...     4662
Grids setup in   0.5 sec
Initializing property integral containers    ... done (  0.0 sec)

SHARK setup successfully completed in   0.6 seconds

Maximum memory used throughout the entire STARTUP-calculation: 43.2 MB
-------------------------------------------------------------------------------
                                 ORCA GUESS
                   Start orbitals & Density for SCF / CASSCF
-------------------------------------------------------------------------------

------------
SCF SETTINGS
------------
Hamiltonian:
 Ab initio Hamiltonian  Method          .... Hartree-Fock(GTOs)


General Settings:
 Integral files         IntName         .... 3
 Hartree-Fock type      HFTyp           .... RHF
 Total Charge           Charge          ....    0
 Multiplicity           Mult            ....    1
 Number of Electrons    NEL             ....   88
 Basis Dimension        Dim             ....  223
 Nuclear Repulsion      ENuc            ....    672.4853558952 Eh

Convergence Acceleration:
 AO-DIIS                CNVDIIS         .... on
   Start iteration      DIISMaxIt       ....    12
   Startup error        DIISStart       ....  0.200000
   # of expansion vecs  DIISMaxEq       ....     5
   Bias factor          DIISBfac        ....   1.050
   Max. coefficient     DIISMaxC        ....  10.000
 MO-DIIS                CNVKDIIS        .... off
 Trust-Rad. Augm. Hess. CNVTRAH         .... auto
   Auto Start mean grad. ratio tolernc. ....  1.125000
   Auto Start start iteration           ....    50
   Auto Start num. interpolation iter.  ....    10
   Max. Number of Micro iterations      ....    24
   Max. Number of Macro iterations      .... Maxiter - #DIIS iter
   Number of Davidson start vectors     ....     2
   Converg. threshold    (grad. norm)   ....   1.000e-05
   Grad. Scal. Fac. for Micro threshold ....   0.100
   Minimum threshold for Micro iter.    ....   1.000e-02
   NR start threshold (gradient norm)   ....   1.000e-04
   Initial trust radius                 ....   0.400
   Minimum AH scaling param. (alpha)    ....   1.000
   Maximum AH scaling param. (alpha)    .... 1000.000
   Quad. conv. algorithm                .... NR
   White noise on init. David. guess    .... on
   Maximum white noise                  ....   0.010
   Pseudo random numbers                .... off
   Inactive MOs                         .... canonical
   Orbital update algorithm             .... Taylor
   Preconditioner                       .... Diag
   Full preconditioner red. dimension   ....   250
 SOSCF                 CNVSOSCF           .... on
   Start iteration     SOSCFMaxIt         ....   150
   Startup grad/error  SOSCFStart         ....  0.003300
   Hessian update      SOSCFHessUp        .... L-BFGS
   Autom. constraints  SOSCFAutoConstrain .... off
 Level Shifting         CNVShift        .... on
   Level shift para.    LevelShift      ....    0.2500
   Turn off err/grad.   ShiftErr        ....    0.0010
 Zerner damping         CNVZerner       .... off
 Static damping         CNVDamp         .... on
   Fraction old density DampFac         ....    0.7000
   Max. Damping (<1)    DampMax         ....    0.9800
   Min. Damping (>=0)   DampMin         ....    0.0000
   Turn off err/grad.   DampErr         ....    0.1000

SCF Procedure:
 Maximum # iterations   MaxIter         ....   125
 SCF integral mode      SCFMode         .... Direct
   Integral package                     .... SHARK and LIBINT hybrid scheme
 Reset frequency        DirectResetFreq ....    20
 Integral Threshold     Thresh          ....  2.500e-11 Eh
 Primitive CutOff       TCut            ....  2.500e-12 Eh

Convergence Tolerance:
 Convergence Check Mode ConvCheckMode   .... Total+1el-Energy
 Convergence forced     ConvForced      .... 1
 Energy Change          TolE            ....  1.000e-08 Eh
 1-El. energy change                    ....  1.000e-05 Eh
 Orbital Gradient       TolG            ....  1.000e-05
 Orbital Rotation angle TolX            ....  1.000e-05
 DIIS Error             TolErr          ....  5.000e-07

------------------------------
INITIAL GUESS: MODEL POTENTIAL
------------------------------
Loading Hartree-Fock densities                     ... done
Calculating cut-offs                               ... done
Initializing the effective Hamiltonian             ... done
Setting up the integral package (SHARK)            ... done
Starting the Coulomb interaction                   ... done (   0.1 sec)
Making the grid                                    ... done (   0.1 sec)
Mapping shells                                     ... done
Starting the XC term evaluation                    ... done (   0.1 sec)
Transforming the Hamiltonian                       ... done (   0.0 sec)
Diagonalizing the Hamiltonian                      ... done (   0.0 sec)
Back transforming the eigenvectors                 ... done (   0.0 sec)
Now organizing SCF variables                       ... done
                      ------------------
                      INITIAL GUESS DONE (   0.3 sec)
                      ------------------
             **** ENERGY FILE WAS UPDATED (3.en.tmp) ****
Finished Guess after   0.3 sec
Maximum memory used throughout the entire GUESS-calculation: 13.8 MB

-------------------------------------------------------------------------------------------
                                      ORCA LEAN-SCF
                              memory conserving SCF solver
-------------------------------------------------------------------------------------------

----------------------------------------D-I-I-S--------------------------------------------
Iteration    Energy (Eh)           Delta-E    RMSDP     MaxDP     DIISErr   Damp  Time(sec)
-------------------------------------------------------------------------------------------
               ***  Starting incremental Fock matrix formation  ***
    1    -550.9482021192404773     0.00e+00  2.48e-03  6.37e-02  2.58e-01  0.700   3.1
    2    -551.1197572054174998    -1.72e-01  1.90e-03  4.60e-02  1.60e-01  0.700   2.9
                               ***Turning on AO-DIIS***
    3    -551.2226023616426573    -1.03e-01  1.17e-03  2.07e-02  9.18e-02  0.700   2.8
    4    -551.2880769458915893    -6.55e-02  2.80e-03  4.98e-02  6.62e-02  0.000   2.8
    5    -551.4342627340254239    -1.46e-01  2.87e-04  7.79e-03  7.66e-03  0.000   2.9
    6    -551.4347962054030177    -5.33e-04  1.30e-04  3.46e-03  3.90e-03  0.000   2.7
                              *** Initializing SOSCF ***
---------------------------------------S-O-S-C-F--------------------------------------
Iteration    Energy (Eh)           Delta-E    RMSDP     MaxDP     MaxGrad    Time(sec)
--------------------------------------------------------------------------------------
    7    -551.4349091116937416    -1.13e-04  6.68e-05  2.71e-03  2.72e-03     2.6
               *** Restarting incremental Fock matrix formation ***
    8    -551.4349419310351550    -3.28e-05  3.27e-05  9.69e-04  6.61e-04     3.0
    9    -551.4349498177514306    -7.89e-06  3.48e-05  1.59e-03  4.11e-04     2.3
   10    -551.4349526983892247    -2.88e-06  6.24e-06  2.82e-04  1.22e-04     2.3
   11    -551.4349529251767308    -2.27e-07  2.37e-06  8.71e-05  3.77e-05     2.1
   12    -551.4349529706507838    -4.55e-08  8.70e-07  3.59e-05  9.35e-06     2.0
   13    -551.4349529763892406    -5.74e-09  4.48e-07  1.16e-05  4.60e-06     1.8
                 **** Energy Check signals convergence ****

               *****************************************************
               *                     SUCCESS                       *
               *           SCF CONVERGED AFTER  13 CYCLES          *
               *****************************************************

             **** ENERGY FILE WAS UPDATED (3.en.tmp) ****

----------------
TOTAL SCF ENERGY
----------------

Total Energy       :       -551.43495297720847 Eh          -15005.30793 eV

Components:
Nuclear Repulsion  :        672.48535589518383 Eh           18299.25685 eV
Electronic Energy  :      -1223.92030887239230 Eh          -33304.56478 eV
One Electron Energy:      -2085.86225562505069 Eh          -56759.19756 eV
Two Electron Energy:        861.94194675265840 Eh           23454.63278 eV

Virial components:
Potential Energy   :      -1102.44381934445119 Eh          -29999.02145 eV
Kinetic Energy     :        551.00886636724272 Eh           14993.71352 eV
Virial Ratio       :          2.00077328448955

---------------
SCF CONVERGENCE
---------------

  Last Energy change         ...    5.7385e-09  Tolerance :   1.0000e-08
  Last MAX-Density change    ...    1.1595e-05  Tolerance :   1.0000e-07
  Last RMS-Density change    ...    4.4839e-07  Tolerance :   5.0000e-09
  Last DIIS Error            ...    2.7171e-03  Tolerance :   5.0000e-07
  Last Orbital Gradient      ...    4.6012e-06  Tolerance :   1.0000e-05
  Last Orbital Rotation      ...    1.5855e-05  Tolerance :   1.0000e-05


----------------
ORBITAL ENERGIES
----------------

  NO   OCC          E(Eh)            E(eV) 
   0   2.0000     -20.620879      -561.1226 
   1   2.0000     -20.556555      -559.3723 
   2   2.0000     -15.547819      -423.0777 
   3   2.0000     -11.384204      -309.7799 
   4   2.0000     -11.276961      -306.8617 
   5   2.0000     -11.237211      -305.7801 
   6   2.0000     -11.230656      -305.6017 
   7   2.0000     -11.225006      -305.4479 
   8   2.0000     -11.223584      -305.4093 
   9   2.0000     -11.223128      -305.3968 
  10   2.0000     -11.222065      -305.3679 
  11   2.0000     -11.220222      -305.3178 
  12   2.0000      -1.471295       -40.0360 
  13   2.0000      -1.365192       -37.1488 
  14   2.0000      -1.201452       -32.6932 
  15   2.0000      -1.149728       -31.2857 
  16   2.0000      -1.055208       -28.7137 
  17   2.0000      -1.008133       -27.4327 
  18   2.0000      -0.986621       -26.8473 
  19   2.0000      -0.904063       -24.6008 
  20   2.0000      -0.821318       -22.3492 
  21   2.0000      -0.809807       -22.0360 
  22   2.0000      -0.787404       -21.4263 
  23   2.0000      -0.714281       -19.4366 
  24   2.0000      -0.703018       -19.1301 
  25   2.0000      -0.687086       -18.6966 
  26   2.0000      -0.671612       -18.2755 
  27   2.0000      -0.639440       -17.4001 
  28   2.0000      -0.626141       -17.0382 
  29   2.0000      -0.621739       -16.9184 
  30   2.0000      -0.594873       -16.1873 
  31   2.0000      -0.586345       -15.9553 
  32   2.0000      -0.577770       -15.7219 
  33   2.0000      -0.556925       -15.1547 
  34   2.0000      -0.534518       -14.5450 
  35   2.0000      -0.515864       -14.0374 
  36   2.0000      -0.490149       -13.3376 
  37   2.0000      -0.484114       -13.1734 
  38   2.0000      -0.480148       -13.0655 
  39   2.0000      -0.476466       -12.9653 
  40   2.0000      -0.452594       -12.3157 
  41   2.0000      -0.401714       -10.9312 
  42   2.0000      -0.327014        -8.8985 
  43   2.0000      -0.318858        -8.6766 
  44   0.0000       0.146302         3.9811 
  45   0.0000       0.151985         4.1357 
  46   0.0000       0.187224         5.0946 
  47   0.0000       0.217943         5.9305 
  48   0.0000       0.230850         6.2817 
  49   0.0000       0.248180         6.7533 
  50   0.0000       0.261257         7.1092 
  51   0.0000       0.281914         7.6713 
  52   0.0000       0.303980         8.2717 
  53   0.0000       0.321115         8.7380 
  54   0.0000       0.325414         8.8550 
*Only the first 10 virtual orbitals were printed.

                    ********************************
                    * MULLIKEN POPULATION ANALYSIS *
                    ********************************

-----------------------
MULLIKEN ATOMIC CHARGES
-----------------------
   0 C :   -0.153775
   1 C :   -0.150501
   2 C :   -0.157435
   3 H :    0.145787
   4 H :    0.142867
   5 C :   -0.113128
   6 C :   -0.255937
   7 H :    0.146668
   8 C :    0.001940
   9 H :    0.145436
  10 C :   -0.144762
  11 H :    0.146217
  12 C :   -0.022075
  13 H :    0.153818
  14 H :    0.135970
  15 C :    0.777237
  16 H :    0.373003
  17 N :   -0.673858
  18 O :   -0.637081
  19 H :    0.277449
  20 O :   -0.584621
  21 H :    0.166047
  22 H :    0.280734
Sum of atomic charges:    0.0000000

--------------------------------
MULLIKEN REDUCED ORBITAL CHARGES
--------------------------------
  0 C s       :     3.145047  s :     3.145047
      pz      :     0.946964  p :     2.964038
      px      :     1.022420
      py      :     0.994654
      dz2     :     0.012043  d :     0.044691
      dxz     :     0.015384
      dyz     :     0.006450
      dx2y2   :     0.006638
      dxy     :     0.004176

  1 C s       :     3.145943  s :     3.145943
      pz      :     1.055160  p :     2.959590
      px      :     0.918279
      py      :     0.986150
      dz2     :     0.012840  d :     0.044969
      dxz     :     0.013831
      dyz     :     0.003326
      dx2y2   :     0.007320
      dxy     :     0.007653

  2 C s       :     3.136233  s :     3.136233
      pz      :     1.057970  p :     2.976676
      px      :     0.911528
      py      :     1.007178
      dz2     :     0.012842  d :     0.044526
      dxz     :     0.013624
      dyz     :     0.003184
      dx2y2   :     0.007311
      dxy     :     0.007565

  3 H s       :     0.840464  s :     0.840464
      pz      :     0.003734  p :     0.013749
      px      :     0.007473
      py      :     0.002542

  4 H s       :     0.843360  s :     0.843360
      pz      :     0.009752  p :     0.013773
      px      :     0.001489
      py      :     0.002532

  5 C s       :     3.129828  s :     3.129828
      pz      :     0.942940  p :     2.938681
      px      :     1.015339
      py      :     0.980401
      dz2     :     0.012061  d :     0.044619
      dxz     :     0.015295
      dyz     :     0.006180
      dx2y2   :     0.006430
      dxy     :     0.004654

  6 C s       :     3.234562  s :     3.234562
      pz      :     1.076724  p :     2.972966
      px      :     0.969875
      py      :     0.926367
      dz2     :     0.010699  d :     0.048409
      dxz     :     0.009757
      dyz     :     0.007064
      dx2y2   :     0.009264
      dxy     :     0.011626

  7 H s       :     0.839600  s :     0.839600
      pz      :     0.009808  p :     0.013732
      px      :     0.001494
      py      :     0.002430

  8 C s       :     3.118963  s :     3.118963
      pz      :     0.933773  p :     2.827411
      px      :     0.931356
      py      :     0.962282
      dz2     :     0.013661  d :     0.051686
      dxz     :     0.016870
      dyz     :     0.007129
      dx2y2   :     0.007547
      dxy     :     0.006479

  9 H s       :     0.840799  s :     0.840799
      pz      :     0.003404  p :     0.013765
      px      :     0.007924
      py      :     0.002437

 10 C s       :     3.143987  s :     3.143987
      pz      :     0.953403  p :     2.955792
      px      :     1.014445
      py      :     0.987944
      dz2     :     0.011785  d :     0.044983
      dxz     :     0.015667
      dyz     :     0.006546
      dx2y2   :     0.006384
      dxy     :     0.004601

 11 H s       :     0.839909  s :     0.839909
      pz      :     0.003749  p :     0.013873
      px      :     0.007638
      py      :     0.002487

 12 C s       :     3.204702  s :     3.204702
      pz      :     0.802357  p :     2.746608
      px      :     0.939022
      py      :     1.005229
      dz2     :     0.016418  d :     0.070765
      dxz     :     0.022427
      dyz     :     0.011325
      dx2y2   :     0.009320
      dxy     :     0.011275

 13 H s       :     0.833572  s :     0.833572
      pz      :     0.008347  p :     0.012610
      px      :     0.001695
      py      :     0.002569

 14 H s       :     0.851556  s :     0.851556
      pz      :     0.003354  p :     0.012474
      px      :     0.004699
      py      :     0.004421

 15 C s       :     2.952203  s :     2.952203
      pz      :     0.669156  p :     2.124617
      px      :     0.830592
      py      :     0.624869
      dz2     :     0.037776  d :     0.145944
      dxz     :     0.049567
      dyz     :     0.016819
      dx2y2   :     0.018028
      dxy     :     0.023754

 16 H s       :     0.585489  s :     0.585489
      pz      :     0.013131  p :     0.041507
      px      :     0.019529
      py      :     0.008847

 17 N s       :     3.598847  s :     3.598847
      pz      :     1.326677  p :     4.040564
      px      :     1.530386
      py      :     1.183500
      dz2     :     0.012461  d :     0.034447
      dxz     :     0.003005
      dyz     :     0.004090
      dx2y2   :     0.006283
      dxy     :     0.008608

 18 O s       :     3.836364  s :     3.836364
      pz      :     1.311024  p :     4.775433
      px      :     1.618223
      py      :     1.846185
      dz2     :     0.006252  d :     0.025284
      dxz     :     0.009660
      dyz     :     0.003082
      dx2y2   :     0.004306
      dxy     :     0.001984

 19 H s       :     0.696307  s :     0.696307
      pz      :     0.004802  p :     0.026243
      px      :     0.006395
      py      :     0.015047

 20 O s       :     3.871814  s :     3.871814
      pz      :     1.795845  p :     4.680092
      px      :     1.408869
      py      :     1.475378
      dz2     :     0.003661  d :     0.032715
      dxz     :     0.008068
      dyz     :     0.001270
      dx2y2   :     0.007564
      dxy     :     0.012152

 21 H s       :     0.821765  s :     0.821765
      pz      :     0.002294  p :     0.012188
      px      :     0.005541
      py      :     0.004353

 22 H s       :     0.693100  s :     0.693100
      pz      :     0.006646  p :     0.026166
      px      :     0.012492
      py      :     0.007028



                     *******************************
                     * LOEWDIN POPULATION ANALYSIS *
                     *******************************

----------------------
LOEWDIN ATOMIC CHARGES
----------------------
   0 C :   -0.080507
   1 C :   -0.072335
   2 C :   -0.083829
   3 H :    0.074097
   4 H :    0.071353
   5 C :   -0.061623
   6 C :   -0.095491
   7 H :    0.074633
   8 C :   -0.016678
   9 H :    0.073871
  10 C :   -0.074134
  11 H :    0.075036
  12 C :   -0.021437
  13 H :    0.077310
  14 H :    0.071644
  15 C :    0.226313
  16 H :    0.201820
  17 N :   -0.269031
  18 O :   -0.210702
  19 H :    0.132476
  20 O :   -0.310259
  21 H :    0.083988
  22 H :    0.133485

-------------------------------
LOEWDIN REDUCED ORBITAL CHARGES
-------------------------------
  0 C s       :     2.886047  s :     2.886047
      pz      :     1.060000  p :     3.100440
      px      :     1.057546
      py      :     0.982894
      dz2     :     0.027512  d :     0.094020
      dxz     :     0.034510
      dyz     :     0.012797
      dx2y2   :     0.012014
      dxy     :     0.007186

  1 C s       :     2.886129  s :     2.886129
      pz      :     1.056721  p :     3.091835
      px      :     1.063062
      py      :     0.972052
      dz2     :     0.026379  d :     0.094370
      dxz     :     0.031276
      dyz     :     0.004965
      dx2y2   :     0.016207
      dxy     :     0.015544

  2 C s       :     2.883934  s :     2.883934
      pz      :     1.053573  p :     3.105635
      px      :     1.055996
      py      :     0.996066
      dz2     :     0.026671  d :     0.094259
      dxz     :     0.030928
      dyz     :     0.004855
      dx2y2   :     0.016430
      dxy     :     0.015374

  3 H s       :     0.884727  s :     0.884727
      pz      :     0.011571  p :     0.041176
      px      :     0.021553
      py      :     0.008052

  4 H s       :     0.887363  s :     0.887363
      pz      :     0.027615  p :     0.041284
      px      :     0.005537
      py      :     0.008132

  5 C s       :     2.883709  s :     2.883709
      pz      :     1.051332  p :     3.083703
      px      :     1.058586
      py      :     0.973785
      dz2     :     0.027300  d :     0.094211
      dxz     :     0.034877
      dyz     :     0.012098
      dx2y2   :     0.011919
      dxy     :     0.008018

  6 C s       :     2.884652  s :     2.884652
      pz      :     1.070100  p :     3.118786
      px      :     1.033067
      py      :     1.015619
      dz2     :     0.019348  d :     0.092053
      dxz     :     0.018386
      dyz     :     0.012576
      dx2y2   :     0.018699
      dxy     :     0.023044

  7 H s       :     0.884159  s :     0.884159
      pz      :     0.027832  p :     0.041208
      px      :     0.005575
      py      :     0.007800

  8 C s       :     2.863023  s :     2.863023
      pz      :     1.063203  p :     3.042211
      px      :     1.031439
      py      :     0.947569
      dz2     :     0.030747  d :     0.111444
      dxz     :     0.039211
      dyz     :     0.014133
      dx2y2   :     0.014935
      dxy     :     0.012418

  9 H s       :     0.884807  s :     0.884807
      pz      :     0.010704  p :     0.041322
      px      :     0.022799
      py      :     0.007820

 10 C s       :     2.885919  s :     2.885919
      pz      :     1.061699  p :     3.093573
      px      :     1.057704
      py      :     0.974170
      dz2     :     0.026757  d :     0.094642
      dxz     :     0.035140
      dyz     :     0.012828
      dx2y2   :     0.011778
      dxy     :     0.008139

 11 H s       :     0.883380  s :     0.883380
      pz      :     0.011620  p :     0.041584
      px      :     0.022080
      py      :     0.007885

 12 C s       :     2.872096  s :     2.872096
      pz      :     0.950293  p :     3.007781
      px      :     1.012234
      py      :     1.045254
      dz2     :     0.033543  d :     0.141560
      dxz     :     0.046145
      dyz     :     0.021686
      dx2y2   :     0.018727
      dxy     :     0.021459

 13 H s       :     0.882285  s :     0.882285
      pz      :     0.024682  p :     0.040405
      px      :     0.006611
      py      :     0.009112

 14 H s       :     0.888446  s :     0.888446
      pz      :     0.011131  p :     0.039910
      px      :     0.014553
      py      :     0.014225

 15 C s       :     2.849436  s :     2.849436
      pz      :     0.892737  p :     2.607502
      px      :     1.053256
      py      :     0.661509
      dz2     :     0.083664  d :     0.316748
      dxz     :     0.113071
      dyz     :     0.035477
      dx2y2   :     0.039894
      dxy     :     0.044643

 16 H s       :     0.677839  s :     0.677839
      pz      :     0.036211  p :     0.120341
      px      :     0.056716
      py      :     0.027415

 17 N s       :     3.184314  s :     3.184314
      pz      :     1.351196  p :     4.023485
      px      :     1.495913
      py      :     1.176376
      dz2     :     0.021633  d :     0.061232
      dxz     :     0.006963
      dyz     :     0.010014
      dx2y2   :     0.010362
      dxy     :     0.012259

 18 O s       :     3.457512  s :     3.457512
      pz      :     1.319415  p :     4.705173
      px      :     1.590798
      py      :     1.794961
      dz2     :     0.016364  d :     0.048016
      dxz     :     0.019419
      dyz     :     0.005441
      dx2y2   :     0.005212
      dxy     :     0.001581

 19 H s       :     0.785708  s :     0.785708
      pz      :     0.016108  p :     0.081817
      px      :     0.020851
      py      :     0.044858

 20 O s       :     3.548054  s :     3.548054
      pz      :     1.762530  p :     4.704920
      px      :     1.494693
      py      :     1.447698
      dz2     :     0.008129  d :     0.057285
      dxz     :     0.015787
      dyz     :     0.001546
      dx2y2   :     0.018545
      dxy     :     0.013279

 21 H s       :     0.876019  s :     0.876019
      pz      :     0.007855  p :     0.039993
      px      :     0.017554
      py      :     0.014584

 22 H s       :     0.784457  s :     0.784457
      pz      :     0.021165  p :     0.082058
      px      :     0.039673
      py      :     0.021220



                      *****************************
                      * MAYER POPULATION ANALYSIS *
                      *****************************

  NA   - Mulliken gross atomic population
  ZA   - Total nuclear charge
  QA   - Mulliken gross atomic charge
  VA   - Mayer's total valence
  BVA  - Mayer's bonded valence
  FA   - Mayer's free valence

  ATOM       NA         ZA         QA         VA         BVA        FA
  0 C      6.1538     6.0000    -0.1538     3.9264     3.9264    -0.0000
  1 C      6.1505     6.0000    -0.1505     3.9258     3.9258     0.0000
  2 C      6.1574     6.0000    -0.1574     3.9287     3.9287    -0.0000
  3 H      0.8542     1.0000     0.1458     0.9542     0.9542    -0.0000
  4 H      0.8571     1.0000     0.1429     0.9553     0.9553     0.0000
  5 C      6.1131     6.0000    -0.1131     3.9366     3.9366     0.0000
  6 C      6.2559     6.0000    -0.2559     3.8115     3.8115    -0.0000
  7 H      0.8533     1.0000     0.1467     0.9540     0.9540    -0.0000
  8 C      5.9981     6.0000     0.0019     3.8928     3.8928     0.0000
  9 H      0.8546     1.0000     0.1454     0.9545     0.9545     0.0000
 10 C      6.1448     6.0000    -0.1448     3.9266     3.9266    -0.0000
 11 H      0.8538     1.0000     0.1462     0.9592     0.9592     0.0000
 12 C      6.0221     6.0000    -0.0221     3.7273     3.7273    -0.0000
 13 H      0.8462     1.0000     0.1538     0.9484     0.9484     0.0000
 14 H      0.8640     1.0000     0.1360     0.9511     0.9511     0.0000
 15 C      5.2228     6.0000     0.7772     3.6962     3.6962     0.0000
 16 H      0.6270     1.0000     0.3730     0.8712     0.8712     0.0000
 17 N      7.6739     7.0000    -0.6739     2.7779     2.7779    -0.0000
 18 O      8.6371     8.0000    -0.6371     1.8184     1.8184     0.0000
 19 H      0.7226     1.0000     0.2774     0.9038     0.9038     0.0000
 20 O      8.5846     8.0000    -0.5846     1.9022     1.9022     0.0000
 21 H      0.8340     1.0000     0.1660     0.9428     0.9428    -0.0000
 22 H      0.7193     1.0000     0.2807     0.9078     0.9078     0.0000

  Mayer bond orders larger than 0.100000
B(  0-C ,  1-C ) :   1.4454 B(  0-C ,  9-H ) :   0.9629 B(  0-C , 10-C ) :   1.4533 
B(  1-C ,  5-C ) :   1.4520 B(  1-C ,  7-H ) :   0.9621 B(  2-C ,  4-H ) :   0.9603 
B(  2-C ,  8-C ) :   1.4477 B(  2-C , 10-C ) :   1.4464 B(  3-H , 10-C ) :   0.9623 
B(  5-C ,  8-C ) :   1.4481 B(  5-C , 11-H ) :   0.9571 B(  6-C ,  8-C ) :   0.9850 
B(  6-C , 12-C ) :   0.9359 B(  6-C , 13-H ) :   0.9699 B(  6-C , 14-H ) :   0.9702 
B( 12-C , 15-C ) :   0.9151 B( 12-C , 17-N ) :   0.9947 B( 12-C , 21-H ) :   0.9535 
B( 15-C , 18-O ) :   0.9672 B( 15-C , 20-O ) :   1.8366 B( 16-H , 18-O ) :   0.8395 
B( 17-N , 19-H ) :   0.9088 B( 17-N , 22-H ) :   0.8982 

-------
TIMINGS
-------

Total SCF time: 0 days 0 hours 0 min 35 sec 

Total time                  ....      35.027 sec
Sum of individual times     ....      33.327 sec  ( 95.1%)

SCF preparation             ....       0.019 sec  (  0.1%)
Fock matrix formation       ....      33.222 sec  ( 94.8%)
  Startup                   ....       0.001 sec  (  0.0% of F)
  Coulomb+Exchange Fock     ....      34.906 sec  (105.1% of F)
Diagonalization             ....       0.000 sec  (  0.0%)
Density matrix formation    ....       0.006 sec  (  0.0%)
Total Energy calculation    ....       0.001 sec  (  0.0%)
Population analysis         ....       0.003 sec  (  0.0%)
Orbital Transformation      ....       0.009 sec  (  0.0%)
Orbital Orthonormalization  ....       0.000 sec  (  0.0%)
DIIS solution               ....       0.044 sec  (  0.1%)
SOSCF solution              ....       0.021 sec  (  0.1%)
Finished LeanSCF after  35.0 sec

Maximum memory used throughout the entire LEANSCF-calculation: 17.4 MB

------------------------------------------------------------------------------
                                ORCA  MP2 
------------------------------------------------------------------------------

Freezing NCore=24 chemical core electrons
MP2 will be done in the AO integral direct mode
The Q1-step will be done using symmetric double matrices
Dimension of the basis                    ...  223
Memory devoted for MP2                    ... 4096 MB   
Memory needed for all in one shot         ... 1361 MB
Number of MOs that can be treated together...   95      
MP2 density construction                  ... relaxed
The MP2 gradient is requested => amplitudes will be stored on disk
Total number of MOs              ...   32
Number of MOs treated per batch  ...   32 
Number of batches necessary      ...    1 
OPERATORS   0/  0 PASS   0
-----------------------------------------------
 MP2 CORRELATION ENERGY   :     -1.706566279 Eh
-----------------------------------------------


---------------------
MP2 DENSITY FORMATION
---------------------

Completing the external part of the density      ... done
Storing the unrelaxed density                    ... done

Calculating G(D)                                 ... done
Completing the Lagrangian                        ... done
Solving the Z-vector equations                   ... 
-------------------
SHARK CP-SCF DRIVER
-------------------

Dimension of the orbital basis          ...    223
Dimension of the CPSCF-problem          ...   7876
Number of operators                     ...      1
Max. number of iterations               ...    128
Convergence Tolerance                   ... 1.0e-04
Number of perturbations                 ...      1
Perturbation type                       ... REAL

----------------------------
POPLE LINEAR EQUATION SOLVER
----------------------------

  ITERATION   0:   ||err||_max =   1.4239e-01 (   3.9 sec)
  ITERATION   1:   ||err||_max =   3.8754e-02 (   3.9 sec)
  ITERATION   2:   ||err||_max =   1.4809e-02 (   4.0 sec)
  ITERATION   3:   ||err||_max =   4.2892e-03 (   4.0 sec)
  ITERATION   4:   ||err||_max =   1.5995e-03 (   4.0 sec)
  ITERATION   5:   ||err||_max =   5.8147e-04 (   4.0 sec)
  ITERATION   6:   ||err||_max =   2.4123e-04 (   4.0 sec)
  ITERATION   7:   ||err||_max =   1.1239e-04 (   4.0 sec)
  ITERATION   8:   ||err||_max =   4.0328e-05 (   4.0 sec)
                                                 ... done
Finalizing the relaxed density                   ... done
Transforming P to the AO basis                   ... done
Storing the relaxed density                      ... done

------------------------------------
ENERGY WEIGHTED DENSITY FINALIZATION
------------------------------------

Gathering the parts of the W-matrix              ...                                                      done
Forming the Z-density                            ... done
Transforming Z to the AO basis                   ... done
Calculating G(Z)                                 ... done
Finalizing the W-matrix                          ...                                                      done
Transforming W to the AO basis and storing       ... done

                *********************************************
                * UNRELAXED MP2 DENSITY POPULATION ANALYSIS *
                *********************************************

------------------------------------------------------------------------------
                           ORCA POPULATION ANALYSIS
------------------------------------------------------------------------------
Input electron density              ... 3.pmp2ur
BaseName (.gbw .S,...)              ... 3

                    ********************************
                    * MULLIKEN POPULATION ANALYSIS *
                    ********************************

-----------------------
MULLIKEN ATOMIC CHARGES
-----------------------
   0 C :   -0.154470
   1 C :   -0.151862
   2 C :   -0.157981
   3 H :    0.147083
   4 H :    0.144221
   5 C :   -0.114355
   6 C :   -0.256337
   7 H :    0.147962
   8 C :   -0.000552
   9 H :    0.146754
  10 C :   -0.146301
  11 H :    0.147495
  12 C :   -0.027774
  13 H :    0.154422
  14 H :    0.136834
  15 C :    0.744228
  16 H :    0.369782
  17 N :   -0.665811
  18 O :   -0.623510
  19 H :    0.276204
  20 O :   -0.561718
  21 H :    0.166618
  22 H :    0.279068
Sum of atomic charges:    0.0000000

--------------------------------
MULLIKEN REDUCED ORBITAL CHARGES
--------------------------------
  0 C s       :     3.144157  s :     3.144157
      pz      :     0.942065  p :     2.948809
      px      :     1.016878
      py      :     0.989865
      dz2     :     0.015240  d :     0.061504
      dxz     :     0.018943
      dyz     :     0.010180
      dx2y2   :     0.009621
      dxy     :     0.007521
  1 C s       :     3.144968  s :     3.144968
      pz      :     1.049557  p :     2.945163
      px      :     0.913420
      py      :     0.982186
      dz2     :     0.016342  d :     0.061731
      dxz     :     0.017034
      dyz     :     0.006505
      dx2y2   :     0.010335
      dxy     :     0.011515
  2 C s       :     3.135728  s :     3.135728
      pz      :     1.051735  p :     2.960737
      px      :     0.906858
      py      :     1.002144
      dz2     :     0.016339  d :     0.061515
      dxz     :     0.016854
      dyz     :     0.006407
      dx2y2   :     0.010401
      dxy     :     0.011515
  3 H s       :     0.836571  s :     0.836571
      pz      :     0.004610  p :     0.016347
      px      :     0.008172
      py      :     0.003564
  4 H s       :     0.839372  s :     0.839372
      pz      :     0.010355  p :     0.016407
      px      :     0.002485
      py      :     0.003567
  5 C s       :     3.129266  s :     3.129266
      pz      :     0.938089  p :     2.923575
      px      :     1.009429
      py      :     0.976058
      dz2     :     0.015232  d :     0.061513
      dxz     :     0.018900
      dyz     :     0.009890
      dx2y2   :     0.009399
      dxy     :     0.008093
  6 C s       :     3.231135  s :     3.231135
      pz      :     1.071375  p :     2.960354
      px      :     0.965648
      py      :     0.923331
      dz2     :     0.013889  d :     0.064848
      dxz     :     0.012936
      dyz     :     0.010532
      dx2y2   :     0.012463
      dxy     :     0.015027
  7 H s       :     0.835711  s :     0.835711
      pz      :     0.010395  p :     0.016328
      px      :     0.002476
      py      :     0.003456
  8 C s       :     3.118171  s :     3.118171
      pz      :     0.929088  p :     2.813147
      px      :     0.926229
      py      :     0.957830
      dz2     :     0.017027  d :     0.069233
      dxz     :     0.020466
      dyz     :     0.011037
      dx2y2   :     0.010630
      dxy     :     0.010072
  9 H s       :     0.836885  s :     0.836885
      pz      :     0.004294  p :     0.016361
      px      :     0.008602
      py      :     0.003464
 10 C s       :     3.143035  s :     3.143035
      pz      :     0.948405  p :     2.941516
      px      :     1.009078
      py      :     0.984034
      dz2     :     0.014966  d :     0.061750
      dxz     :     0.019257
      dyz     :     0.010230
      dx2y2   :     0.009311
      dxy     :     0.007987
 11 H s       :     0.836025  s :     0.836025
      pz      :     0.004632  p :     0.016480
      px      :     0.008327
      py      :     0.003521
 12 C s       :     3.201523  s :     3.201523
      pz      :     0.803085  p :     2.739920
      px      :     0.936707
      py      :     1.000128
      dz2     :     0.019365  d :     0.086331
      dxz     :     0.025038
      dyz     :     0.014678
      dx2y2   :     0.012564
      dxy     :     0.014687
 13 H s       :     0.830199  s :     0.830199
      pz      :     0.009040  p :     0.015380
      px      :     0.002753
      py      :     0.003586
 14 H s       :     0.847893  s :     0.847893
      pz      :     0.004311  p :     0.015273
      px      :     0.005615
      py      :     0.005347
 15 C s       :     2.953774  s :     2.953774
      pz      :     0.674608  p :     2.145512
      px      :     0.829346
      py      :     0.641557
      dz2     :     0.039820  d :     0.156486
      dxz     :     0.051742
      dyz     :     0.019079
      dx2y2   :     0.020040
      dxy     :     0.025805
 16 H s       :     0.587563  s :     0.587563
      pz      :     0.013427  p :     0.042654
      px      :     0.019742
      py      :     0.009485
 17 N s       :     3.594225  s :     3.594225
      pz      :     1.317587  p :     4.015041
      px      :     1.519650
      py      :     1.177804
      dz2     :     0.016665  d :     0.056545
      dxz     :     0.007738
      dyz     :     0.008460
      dx2y2   :     0.010704
      dxy     :     0.012976
 18 O s       :     3.832190  s :     3.832190
      pz      :     1.302725  p :     4.743048
      px      :     1.607892
      py      :     1.832431
      dz2     :     0.010729  d :     0.048272
      dxz     :     0.014252
      dyz     :     0.007990
      dx2y2   :     0.008788
      dxy     :     0.006514
 19 H s       :     0.695538  s :     0.695538
      pz      :     0.005675  p :     0.028258
      px      :     0.007251
      py      :     0.015332
 20 O s       :     3.867241  s :     3.867241
      pz      :     1.781493  p :     4.640167
      px      :     1.399582
      py      :     1.459092
      dz2     :     0.008134  d :     0.054311
      dxz     :     0.012627
      dyz     :     0.005670
      dx2y2   :     0.011561
      dxy     :     0.016318
 21 H s       :     0.818498  s :     0.818498
      pz      :     0.003279  p :     0.014884
      px      :     0.006363
      py      :     0.005243
 22 H s       :     0.692738  s :     0.692738
      pz      :     0.007446  p :     0.028194
      px      :     0.013048
      py      :     0.007700


                     *******************************
                     * LOEWDIN POPULATION ANALYSIS *
                     *******************************

----------------------
LOEWDIN ATOMIC CHARGES
----------------------
   0 C :   -0.080568
   1 C :   -0.073017
   2 C :   -0.083532
   3 H :    0.074545
   4 H :    0.071811
   5 C :   -0.061628
   6 C :   -0.095457
   7 H :    0.075085
   8 C :   -0.018370
   9 H :    0.074340
  10 C :   -0.074852
  11 H :    0.075434
  12 C :   -0.025044
  13 H :    0.077430
  14 H :    0.071916
  15 C :    0.202172
  16 H :    0.199445
  17 N :   -0.264190
  18 O :   -0.202141
  19 H :    0.131796
  20 O :   -0.291809
  21 H :    0.084102
  22 H :    0.132532

-------------------------------
LOEWDIN REDUCED ORBITAL CHARGES
-------------------------------
  0 C s       :     2.885908  s :     2.885908
      pz      :     1.052464  p :     3.080705
      px      :     1.050484
      py      :     0.977756
      dz2     :     0.031876  d :     0.113955
      dxz     :     0.038767
      dyz     :     0.016733
      dx2y2   :     0.015915
      dxy     :     0.010663
  1 C s       :     2.885966  s :     2.885966
      pz      :     1.049838  p :     3.072784
      px      :     1.055226
      py      :     0.967721
      dz2     :     0.030260  d :     0.114267
      dxz     :     0.035578
      dyz     :     0.008224
      dx2y2   :     0.020563
      dxy     :     0.019642
  2 C s       :     2.883801  s :     2.883801
      pz      :     1.046560  p :     3.085092
      px      :     1.048034
      py      :     0.990497
      dz2     :     0.030629  d :     0.114640
      dxz     :     0.035281
      dyz     :     0.008209
      dx2y2   :     0.020922
      dxy     :     0.019598
  3 H s       :     0.879615  s :     0.879615
      pz      :     0.013148  p :     0.045840
      px      :     0.023424
      py      :     0.009268
  4 H s       :     0.882131  s :     0.882131
      pz      :     0.029707  p :     0.046058
      px      :     0.006989
      py      :     0.009362
  5 C s       :     2.883530  s :     2.883530
      pz      :     1.043637  p :     3.063605
      px      :     1.051303
      py      :     0.968665
      dz2     :     0.031688  d :     0.114494
      dxz     :     0.039272
      dyz     :     0.016077
      dx2y2   :     0.015887
      dxy     :     0.011570
  6 C s       :     2.884400  s :     2.884400
      pz      :     1.063526  p :     3.099720
      px      :     1.026393
      py      :     1.009800
      dz2     :     0.023180  d :     0.111337
      dxz     :     0.022263
      dyz     :     0.016437
      dx2y2   :     0.022506
      dxy     :     0.026949
  7 H s       :     0.879049  s :     0.879049
      pz      :     0.029881  p :     0.045867
      px      :     0.006977
      py      :     0.009009
  8 C s       :     2.863338  s :     2.863338
      pz      :     1.055331  p :     3.022352
      px      :     1.023818
      py      :     0.943203
      dz2     :     0.035375  d :     0.132680
      dxz     :     0.043654
      dyz     :     0.018270
      dx2y2   :     0.019165
      dxy     :     0.016216
  9 H s       :     0.879691  s :     0.879691
      pz      :     0.012251  p :     0.045969
      px      :     0.024704
      py      :     0.009013
 10 C s       :     2.885767  s :     2.885767
      pz      :     1.054157  p :     3.074553
      px      :     1.050552
      py      :     0.969844
      dz2     :     0.031118  d :     0.114531
      dxz     :     0.039406
      dyz     :     0.016689
      dx2y2   :     0.015686
      dxy     :     0.011633
 11 H s       :     0.878231  s :     0.878231
      pz      :     0.013230  p :     0.046335
      px      :     0.023975
      py      :     0.009129
 12 C s       :     2.872365  s :     2.872365
      pz      :     0.947050  p :     2.993110
      px      :     1.007439
      py      :     1.038621
      dz2     :     0.037096  d :     0.159570
      dxz     :     0.049143
      dyz     :     0.025368
      dx2y2   :     0.022451
      dxy     :     0.025511
 13 H s       :     0.877348  s :     0.877348
      pz      :     0.026702  p :     0.045222
      px      :     0.007988
      py      :     0.010531
 14 H s       :     0.883314  s :     0.883314
      pz      :     0.012630  p :     0.044769
      px      :     0.016301
      py      :     0.015838
 15 C s       :     2.850159  s :     2.850159
      pz      :     0.893654  p :     2.619440
      px      :     1.049337
      py      :     0.676448
      dz2     :     0.085976  d :     0.328230
      dxz     :     0.114890
      dyz     :     0.037633
      dx2y2   :     0.043286
      dxy     :     0.046445
 16 H s       :     0.677754  s :     0.677754
      pz      :     0.036953  p :     0.122801
      px      :     0.057811
      py      :     0.028037
 17 N s       :     3.182437  s :     3.182437
      pz      :     1.341463  p :     3.996404
      px      :     1.485038
      py      :     1.169903
      dz2     :     0.026578  d :     0.085349
      dxz     :     0.012044
      dyz     :     0.014584
      dx2y2   :     0.015138
      dxy     :     0.017005
 18 O s       :     3.455600  s :     3.455600
      pz      :     1.311464  p :     4.674036
      px      :     1.580852
      py      :     1.781721
[...]
      pz      :     1.048039  p :     3.072036
      px      :     1.052101
      py      :     0.971895
      dz2     :     0.028870  d :     0.106470
      dxz     :     0.033041
      dyz     :     0.007192
      dx2y2   :     0.019195
      dxy     :     0.018172
  2 C s       :     2.895844  s :     2.895844
      pz      :     1.045010  p :     3.077049
      px      :     1.045699
      py      :     0.986340
      dz2     :     0.029158  d :     0.106750
      dxz     :     0.032683
      dyz     :     0.007122
      dx2y2   :     0.019494
      dxy     :     0.018294
  3 H s       :     0.881936  s :     0.881936
      pz      :     0.013507  p :     0.045018
      px      :     0.022475
      py      :     0.009036
  4 H s       :     0.883846  s :     0.883846
      pz      :     0.028772  p :     0.045161
      px      :     0.007276
      py      :     0.009113
  5 C s       :     2.895716  s :     2.895716
      pz      :     1.042946  p :     3.058726
      px      :     1.051414
      py      :     0.964366
      dz2     :     0.029258  d :     0.106333
      dxz     :     0.037085
      dyz     :     0.014574
      dx2y2   :     0.014847
      dxy     :     0.010569
  6 C s       :     2.889451  s :     2.889451
      pz      :     1.068113  p :     3.116013
      px      :     1.030582
      py      :     1.017318
      dz2     :     0.022325  d :     0.104761
      dxz     :     0.019757
      dyz     :     0.015304
      dx2y2   :     0.020283
      dxy     :     0.027092
  7 H s       :     0.881509  s :     0.881509
      pz      :     0.028801  p :     0.045012
      px      :     0.007302
      py      :     0.008909
  8 C s       :     2.873410  s :     2.873410
      pz      :     1.050741  p :     3.020929
      px      :     1.017637
      py      :     0.952551
      dz2     :     0.033299  d :     0.124167
      dxz     :     0.041452
      dyz     :     0.017052
      dx2y2   :     0.017491
      dxy     :     0.014873
  9 H s       :     0.881955  s :     0.881955
      pz      :     0.011930  p :     0.045081
      px      :     0.024196
      py      :     0.008955
 10 C s       :     2.895832  s :     2.895832
      pz      :     1.051350  p :     3.074053
      px      :     1.048467
      py      :     0.974237
      dz2     :     0.028813  d :     0.106650
      dxz     :     0.037435
      dyz     :     0.015186
      dx2y2   :     0.014668
      dxy     :     0.010548
 11 H s       :     0.876527  s :     0.876527
      pz      :     0.013473  p :     0.045945
      px      :     0.023626
      py      :     0.008846
 12 C s       :     2.876317  s :     2.876317
      pz      :     0.951906  p :     3.015571
      px      :     1.019773
      py      :     1.043891
      dz2     :     0.038279  d :     0.151464
      dxz     :     0.044738
      dyz     :     0.022207
      dx2y2   :     0.019251
      dxy     :     0.026989
 13 H s       :     0.876805  s :     0.876805
      pz      :     0.026202  p :     0.044924
      px      :     0.008264
      py      :     0.010458
 14 H s       :     0.879480  s :     0.879480
      pz      :     0.012157  p :     0.044444
      px      :     0.015940
      py      :     0.016348
 15 C s       :     2.861995  s :     2.861995
      pz      :     0.901566  p :     2.689970
      px      :     1.025081
      py      :     0.763322
      dz2     :     0.072477  d :     0.304998
      dxz     :     0.117546
      dyz     :     0.031300
      dx2y2   :     0.041363
      dxy     :     0.042312
 16 H s       :     0.690839  s :     0.690839
      pz      :     0.035922  p :     0.120452
      px      :     0.056503
      py      :     0.028027
 17 N s       :     3.198062  s :     3.198062
      pz      :     1.381033  p :     3.974008
      px      :     1.400957
      py      :     1.192018
      dz2     :     0.026841  d :     0.083116
      dxz     :     0.011312
      dyz     :     0.011949
      dx2y2   :     0.018200
      dxy     :     0.014814
 18 O s       :     3.481214  s :     3.481214
      pz      :     1.305406  p :     4.623972
      px      :     1.564518
      py      :     1.754048
      dz2     :     0.019437  d :     0.072157
      dxz     :     0.025435
      dyz     :     0.010361
      dx2y2   :     0.010375
      dxy     :     0.006549
 19 H s       :     0.785100  s :     0.785100
      pz      :     0.018670  p :     0.083950
      px      :     0.019520
      py      :     0.045759
 20 O s       :     3.561556  s :     3.561556
      pz      :     1.735207  p :     4.587917
      px      :     1.468229
      py      :     1.384481
      dz2     :     0.012404  d :     0.078759
      dxz     :     0.019335
      dyz     :     0.005379
      dx2y2   :     0.023543
      dxy     :     0.018099
 21 H s       :     0.869807  s :     0.869807
      pz      :     0.008745  p :     0.044887
      px      :     0.018982
      py      :     0.017160
 22 H s       :     0.784889  s :     0.784889
      pz      :     0.019935  p :     0.084688
      px      :     0.043734
      py      :     0.021020


                      *****************************
                      * MAYER POPULATION ANALYSIS *
                      *****************************

  NA   - Mulliken gross atomic population
  ZA   - Total nuclear charge
  QA   - Mulliken gross atomic charge
  VA   - Mayer's total valence
  BVA  - Mayer's bonded valence
  FA   - Mayer's free valence

  ATOM       NA         ZA         QA         VA         BVA        FA
  0 C      6.1209     6.0000    -0.1209     4.0216     3.6965     0.3252
  1 C      6.1270     6.0000    -0.1270     4.0191     3.6941     0.3250
  2 C      6.1347     6.0000    -0.1347     4.0240     3.6928     0.3312
  3 H      0.8823     1.0000     0.1177     0.9659     0.9192     0.0467
  4 H      0.8856     1.0000     0.1144     0.9673     0.9197     0.0476
  5 C      6.0965     6.0000    -0.0965     4.0191     3.6896     0.3295
  6 C      6.2589     6.0000    -0.2589     3.9317     3.6590     0.2727
  7 H      0.8815     1.0000     0.1185     0.9658     0.9191     0.0466
  8 C      5.9589     6.0000     0.0411     4.0239     3.6831     0.3409
  9 H      0.8823     1.0000     0.1177     0.9660     0.9194     0.0466
 10 C      6.1219     6.0000    -0.1219     4.0236     3.6988     0.3247
 11 H      0.8746     1.0000     0.1254     0.9736     0.9267     0.0468
 12 C      6.0467     6.0000    -0.0467     3.8805     3.6030     0.2775
 13 H      0.8635     1.0000     0.1365     0.9624     0.9134     0.0490
 14 H      0.8741     1.0000     0.1259     0.9616     0.9120     0.0496
 15 C      5.4405     6.0000     0.5595     3.9495     3.6701     0.2794
 16 H      0.6568     1.0000     0.3432     0.9011     0.8574     0.0437
 17 N      7.6039     7.0000    -0.6039     3.0434     2.7197     0.3236
 18 O      8.5245     8.0000    -0.5245     2.1977     1.8457     0.3520
 19 H      0.7398     1.0000     0.2602     0.9164     0.8703     0.0461
 20 O      8.4394     8.0000    -0.4394     2.3227     1.9331     0.3896
 21 H      0.8492     1.0000     0.1508     0.9563     0.9081     0.0482
 22 H      0.7364     1.0000     0.2636     0.9280     0.8820     0.0460

  Mayer bond orders larger than 0.100000
B(  0-C ,  1-C ) :   1.3496 B(  0-C ,  9-H ) :   0.9182 B(  0-C , 10-C ) :   1.3562 
B(  1-C ,  5-C ) :   1.3501 B(  1-C ,  7-H ) :   0.9170 B(  2-C ,  4-H ) :   0.9126 
B(  2-C ,  8-C ) :   1.3433 B(  2-C , 10-C ) :   1.3493 B(  3-H , 10-C ) :   0.9169 
B(  5-C ,  8-C ) :   1.3439 B(  5-C , 11-H ) :   0.9077 B(  6-C ,  8-C ) :   0.9398 
B(  6-C , 12-C ) :   0.8917 B(  6-C , 13-H ) :   0.9180 B(  6-C , 14-H ) :   0.9168 
B( 12-C , 15-C ) :   0.8638 B( 12-C , 17-N ) :   0.9752 B( 12-C , 21-H ) :   0.9064 
B( 15-C , 18-O ) :   0.9864 B( 15-C , 20-O ) :   1.8105 B( 16-H , 18-O ) :   0.8122 
B( 17-N , 19-H ) :   0.8729 B( 17-N , 22-H ) :   0.8603 


----------------------------------
MP2 DERIVATIVE INTEGRAL GENERATION
----------------------------------

Input SCF Electron Density              ... 3.scfp
Input Correlated Electron Density       ... 3.pmp2re
Input Energy Weighted Density           ... 3.wmp2.tmp
Input Wavefunction Amplitudes           ... 3.mp2tsaa.tmp

Nuclear repulsion gradient              ... done (  0.0 sec)
HCore & Overlap gradient  (SHARK)       ... done (  0.2 sec)
Analytic two-electron gradient terms    ... 
  Batch handling in the gradient evaluation:
  General contraction                   ... not used
  Memory available                      ... 4078.2 MB
  Memory per occupied orbital in Q2     ...   12.1 MB
  Memory per occupied orbital in Q3     ...    0.0 MB
  Total memory requirement per |i>      ...   12.2 MB
  Number of orbitals treated per batch  ...     32
  Number of batches to be done          ...      1
done ( 38.0 sec)

---------------------------------------
MP2 TOTAL ENERGY:     -553.144729681 Eh
---------------------------------------

The final MP2 gradient
  0:  -0.00000928   0.00001251  -0.00001303
  1:  -0.00002213  -0.00000802  -0.00000600
  2:  -0.00000762   0.00001422   0.00002574
  3:  -0.00000271   0.00000353  -0.00000138
  4:   0.00000880  -0.00000354   0.00000120
  5:   0.00004176   0.00000223  -0.00002074
  6:   0.00005165  -0.00007430   0.00005189
  7:   0.00000126   0.00000319  -0.00000264
  8:  -0.00004184   0.00000954  -0.00000559
  9:  -0.00000102  -0.00000428  -0.00000113
 10:  -0.00000339  -0.00000796   0.00000757
 11:   0.00000441  -0.00000499   0.00000476
 12:  -0.00003590   0.00003756   0.00004254
 13:  -0.00001216  -0.00000112  -0.00000740
 14:   0.00000151   0.00003020  -0.00002040
 15:  -0.00008224  -0.00002247  -0.00001454
 16:  -0.00000405   0.00000310   0.00000044
 17:   0.00005222   0.00001656  -0.00004830
 18:   0.00001485  -0.00000215   0.00001375
 19:  -0.00002711  -0.00000018   0.00000387
 20:   0.00007552   0.00000627  -0.00000684
 21:   0.00000957   0.00000616  -0.00001665
 22:  -0.00001207  -0.00001608   0.00001288

-----------------------------------
NORM OF THE MP2 GRADIENT:  0.000210
-----------------------------------

Maximum memory used throughout the entire MP2-calculation: 1448.3 MB

-------------------------   --------------------
FINAL SINGLE POINT ENERGY      -553.144729681217
-------------------------   --------------------

                                *** OPTIMIZATION RUN DONE ***


------------------------------------------------------------------------------
                              ORCA PROPERTY CALCULATIONS
------------------------------------------------------------------------------

GBWName                                 ... 3.gbw
Number of atoms                         ...     23
Number of basis functions               ...    223
Max core memory                         ...   4096 MB

Electric properties:
Dipole moment                           ... YES
Quadrupole moment                       ...  NO
Static polarizability (Dipole/Dipole)   ...  NO
Static polarizability (Dipole/Quad.)    ...  NO
Static polarizability (Quad./Quad.)     ...  NO
Static polarizability (Velocity)        ...  NO
Static hyperpolarizability              ...  NO

Atomic electric properties:
Dipole moment                           ...  NO
Quadrupole moment                       ...  NO
Static polarizability                   ...  NO

Choice of electric origin               ... Center of mass
Position of electric origin             ...    -6.255317     3.029122     0.639065

General magnetic properties:
Magnetizability                         ...  NO

EPR properties:
g-Tensor (aka g-matrix)                 ...  NO
Zero-Field splitting spin-orbit         ...  NO
Zero-field splitting spin-spin          ...  NO
Hyperfine couplings                     ...  NO (   0 nuclei)
Quadrupole couplings                    ...  NO (   0 nuclei)
Contact density                         ...  NO (   0 nuclei)

NMR properties:
Chemical shifts                         ...  NO (   0 nuclei)
Spin-rotation constants                 ...  NO (   0 nuclei)
Spin-spin couplings                     ...  NO (   0 nuclei,    0 pairs)

Choice of magnetic origin               ... GIAO
Position of magnetic origin             ...     0.000000     0.000000     0.000000

Properties with geometric perturbations:
SCF Hessian                             ...  NO
IR spectrum                             ...  NO
VCD spectrum                            ...  NO
X-ray spectroscopy properties:
SCF XES/XAS/RIXS spectra                ...  NO

SCF SOC stabilization energy            ...  NO
Diagonal Born-Oppenheimer correction    ...  NO

-------------
DIPOLE MOMENT
-------------

Method             : SCF
Type of density    : Electron Density
Multiplicity       :   1
Irrep              :   0
Energy             :  -551.4322230140604688 Eh
Basis              : AO
                                X                 Y                 Z
Electronic contribution:      3.313225263       0.749451811       3.131400806
Nuclear contribution   :     -3.473646484      -0.584108606      -2.649521448
                        -----------------------------------------
Total Dipole Moment    :     -0.160421221       0.165343204       0.481879359
                        -----------------------------------------
Magnitude (a.u.)       :      0.534117084
Magnitude (Debye)      :      1.357617737



--------------------
Rotational spectrum 
--------------------
 
Rotational constants in cm-1:             0.078321             0.015725             0.013827 
Rotational constants in MHz :          2348.017403           471.421068           414.522794 

Dipole components along the rotational axes: 
x,y,z [a.u.] :     0.117952     0.482902     0.195381 
x,y,z [Debye]:     0.299811     1.227440     0.496620 

 

-------------
DIPOLE MOMENT
-------------

Method             : MP2
Type of density    : Electron Density
Multiplicity       :   1
Level              : Unrelaxed density
Irrep              :   0
Energy             :     0.0000000000000000 Eh
Basis              : AO
                                X                 Y                 Z
Electronic contribution:      3.346054406       0.748388373       3.125523980
Nuclear contribution   :     -3.473646484      -0.584108606      -2.649521448
                        -----------------------------------------
Total Dipole Moment    :     -0.127592079       0.164279767       0.476002532
                        -----------------------------------------
Magnitude (a.u.)       :      0.519467026
Magnitude (Debye)      :      1.320380248



--------------------
Rotational spectrum 
--------------------
 
Rotational constants in cm-1:             0.078321             0.015725             0.013827 
Rotational constants in MHz :          2348.017403           471.421068           414.522794 

Dipole components along the rotational axes: 
x,y,z [a.u.] :     0.143331     0.463303     0.186151 
x,y,z [Debye]:     0.364320     1.177623     0.473159 

 

-------------
DIPOLE MOMENT
-------------

Method             : MP2
Type of density    : Electron Density
Multiplicity       :   1
Level              : Relaxed density
Irrep              :   0
Energy             :     0.0000000000000000 Eh
Basis              : AO
                                X                 Y                 Z
Electronic contribution:      3.499224727       0.759609171       3.140534841
Nuclear contribution   :     -3.473646484      -0.584108606      -2.649521448
                        -----------------------------------------
Total Dipole Moment    :      0.025578243       0.175500565       0.491013394
                        -----------------------------------------
Magnitude (a.u.)       :      0.522062111
Magnitude (Debye)      :      1.326976429



--------------------
Rotational spectrum 
--------------------
 
Rotational constants in cm-1:             0.078321             0.015725             0.013827 
Rotational constants in MHz :          2348.017403           471.421068           414.522794 

Dipole components along the rotational axes: 
x,y,z [a.u.] :     0.284671     0.407983     0.158307 
x,y,z [Debye]:     0.723575     1.037011     0.402385 

 

Dipole moment calculation done in   0.0 sec 

Maximum memory used throughout the entire PROP-calculation: 12.6 MB

--------------------------------
SUGGESTED CITATIONS FOR THIS RUN
--------------------------------

Below you find a list of papers that are relevant to this ORCA run
We neither can nor want to force you to cite these papers, but we appreciate if you do
You receive ORCA, which is the product of decades of hard work by many enthusiastic individuals, for free
The only thing we kindly ask in return is that you cite our papers,
We deeply appreciate it, if you show your appreciation for ORCA by not just citing the generic ORCA reference.

Please note that relegating all ORCA citations to the supporting information does *not* help us.
SI sections are not indexed - citations you put there will not count into any citation statistics
But we need these citations in order to attract the funding resources that allow us to do what we are doing

Therefore, if you are a happy ORCA user, please consider citing a few of the papers listed below in the main body of your paper

In addition to the list printed below, the program has created the file 3.bibtex that contains the list in bibtex format
You can import this file easily into all common literature databanks and citation aid programs


List of essential papers. We consider these as the minimum necessary citations

  1. Neese, F.
     Software update: the ORCA program system, version 6.0
     WIRES Comput. Molec. Sci. 2025 15(1), e70019
     doi.org/10.1002/wcms.7019

List of papers to cite with high priority. The work reported in these papers was absolutely
necessary for this run to complete.
Our perspective: the developers of density functionals and basis sets usually get cited in chemistry papers
Good! But without the algorithms to do something with them, the functionals or basis sets would not do anything.
Hence, in our opinion, the algorithm design and method developments papers are equally worthy of getting cited

  1. Neese, F.
     The SHARK Integral Generation and Digestion System
     J. Comp. Chem. 2022 44(3), 381
     doi.org/10.1002/jcc.26942

List of suggested additional citations. These are papers that are important in the 'surrounding' of 
of this run, or papers that preceded the highly important papers. If you like your results we are grateful for a citation.

  1. Neese, F.
     The ORCA program system
     WIRES Comput. Molec. Sci. 2012 2(1), 73-78
     doi.org/10.1002/wcms.81
  2. Neese, F.
     Software update: the ORCA program system, version 4.0
     WIRES Comput. Molec. Sci. 2018 8(1), 1-6
     doi.org/10.1002/wcms.1327
  3. Neese, F.; Wennmohs, F.; Becker, U.; Riplinger, C.
     The ORCA quantum chemistry program package
     J. Chem. Phys. 2020 152(22), 224108
     doi.org/10.1063/5.0004608
  4. Neese, F.
     Software update: The ORCA program system—Version 5.0
     WIRES Comput. Molec. Sci. 2022 12(1), e1606
     doi.org/10.1002/wcms.1606

List of optional additional citations

  1. Neese, F.
     Approximate second-order SCF convergence for spin unrestricted wavefunctions
     Chem. Phys. Lett. 2000 325(1-3), 93-98
     doi.org/10.1016/s0009-2614(00)00662-x

Timings for individual modules:

Sum of individual times          ...     1386.608 sec (=  23.110 min)
Startup calculation              ...        5.697 sec (=   0.095 min)   0.4 %
SCF iterations                   ...      252.084 sec (=   4.201 min)  18.2 %
Property calculations            ...        0.040 sec (=   0.001 min)   0.0 %
MP2 module                       ...     1128.768 sec (=  18.813 min)  81.4 %
Geometry relaxation              ...        0.019 sec (=   0.000 min)   0.0 %
                             ****ORCA TERMINATED NORMALLY****
TOTAL RUN TIME: 0 days 0 hours 23 minutes 6 seconds 835 msec
