
                                 *****************
                                 * O   R   C   A *
                                 *****************

                                            #,                                       
                                            ###                                      
                                            ####                                     
                                            #####                                    
                                            ######                                   
                                           ########,                                 
                                     ,,################,,,,,                         
                               ,,#################################,,                 
                          ,,##########################################,,             
                       ,#########################################, ''#####,          
                    ,#############################################,,   '####,        
                  ,##################################################,,,,####,       
                ,###########''''           ''''###############################       
              ,#####''   ,,,,##########,,,,          '''####'''          '####       
            ,##' ,,,,###########################,,,                        '##       
           ' ,,###''''                  '''############,,,                           
         ,,##''                                '''############,,,,        ,,,,,,###''
      ,#''                                            '''#######################'''  
     '                                                          ''''####''''         
             ,#######,   #######,   ,#######,      ##                                
            ,#'     '#,  ##    ##  ,#'     '#,    #''#        ,####,    ,#,          
            ##       ##  ##   ,#'  ##            #'  '#       #'       ,# #          
            ##       ##  #######   ##           ,######,      #####,      #          
            '#,     ,#'  ##    ##  '#,     ,#' ,#      #,     #,   #      #          
             '#######'   ##     ##  '#######'  #'      '#     '####' #    #          



                #########################################################
                #                        -***-                          #
                #          Department of theory and spectroscopy        #
                #                                                       #
                #                      Frank Neese                      #
                #                                                       #
                #     Directorship, Architecture, Infrastructure        #
                #                    SHARK, DRIVERS                     #
                #        Core code/Algorithms in most modules           #
                #                                                       #
                #        Max Planck Institute fuer Kohlenforschung      #
                #                Kaiser Wilhelm Platz 1                 #
                #                 D-45470 Muelheim/Ruhr                 #
                #                      Germany                          #
                #                                                       #
                #                  All rights reserved                  #
                #                        -***-                          #
                #########################################################


                         Program Version 6.1.0  -  RELEASE   -
                                (GIT: $679e74b$)
                          ($2025-06-10 18:02:51 +0200$)


 With contributions from (in alphabetic order):
[Max-Planck-Institut fuer Kohlenforschung]                               
  Daniel Aravena         : Magnetic Suceptibility                        
  Michael Atanasov       : Ab Initio Ligand Field Theory (pilot matlab implementation)
  Alexander A. Auer      : GIAO ZORA, VPT2 properties, NMR spectrum      
  Ute Becker             : All parallelization in ORCA, NUMFREQ, NUMCALC 
  Giovanni Bistoni       : ED, misc. LED, open-shell LED, HFLD           
  Dmytro Bykov           : pre 5.0 version of the SCF Hessian            
  Marcos Casanova-Páez   : Triplet and SCS-CIS(D). UHF-(DLPNO)-IP/EA/STEOM-CCSD. UHF-CVS-IP/STEOM-CCSD   
  Vijay G. Chilkuri      : MRCI spin determinant printing, contributions to CSF-ICE 
  Pauline Colinet        : FMM embedding                                 
  Dipayan Datta          : RHF DLPNO-CCSD density                        
  Achintya Kumar Dutta   : EOM-CC, STEOM-CC                              
  Nicolas Foglia         : Exact transition moments, OPA infrastructure, MCD improvements    
  Dmitry Ganyushin       : Spin-Orbit,Spin-Spin,Magnetic field MRCI      
  Miquel Garcia-Rates    : C-PCM and meta-GGA Hessian, CCSD/C-PCM, Gaussian charge scheme 
  Tiago L. C. Gouveia    : GS-ROHF, GS-ROCIS                             
  Yang Guo               : DLPNO-NEVPT2, F12-NEVPT2, CIM, IAO-localization        
  Andreas Hansen         : Spin unrestricted coupled pair/coupled cluster methods 
  Ingolf Harden          : AUTO-CI MPn and infrastructure                
  Benjamin Helmich-Paris : MC-RPA, TRAH-(SCF,CASSCF), AVAS, COSX integrals, SCF dyn. polar., MC-PDFT, srDFT 
  Lee Huntington         : MR-EOM, pCC                                   
  Robert Izsak           : Overlap fitted RIJCOSX, COSX-SCS-MP3, EOM     
  Riya Kayal             : Wick's Theorem for AUTO-CI, AUTO-CI UHF-CCSDT 
  Emily Kempfer          : AUTO-CI RHF CISDT and CCSDT, approximate NEVPT4
  Christian Kollmar      : KDIIS, OOCD, Brueckner-CCSD(T), CCSD density, CASPT2, CASPT2-K, improved NEVPT2 
  Axel Koslowski         : Symmetry handling                             
  Simone Kossmann        : meta-GGA functionals, TD-DFT gradient, OOMP2, (MP2 Hessian; deprecated post 5.0) 
  Lucas Lang             : DCDCAS, Hyperfine gauge corrections, ICE-SOC+SSC
  Marvin Lechner         : AUTO-CI (C++ implementation), FIC-MRCC        
  Spencer Leger          : CASSCF response                               
  Dagmar Lenk            : GEPOL surface, SMD, ORCA-2-JSON               
  Dimitrios Liakos       : Extrapolation schemes; Compound Job, Property file
  Dimitrios Manganas     : Further ROCIS development; embedding schemes. LFT, Crystal Embedding 
  Dimitrios Pantazis     : SARC Basis sets                               
  Anastasios Papadopoulos: AUTO-CI, single reference methods and gradients 
  Taras Petrenko         : pre 6.0 DFT Hessian and TD-DFT gradient,  ECA, NRVS 
  Petra Pikulova         : Analytic Raman intensities                    
  Peter Pinski           : DLPNO-MP2, DLPNO-MP2 Gradient                 
  Shashank Vittal Rao    : ES-AILFT, MagRelax                            
  Christoph Reimann      : Effective Core Potentials                     
  Marius Retegan         : Local ZFS, SOC                                
  Christoph Riplinger    : Optimizer, TS searches, QM/MM, DLPNO-CCSD(T), (RO)-DLPNO pert. Triples 
  Michael Roemelt        : Original ROCIS implementation, recursive CI coupling coefficients
  Masaaki Saitow         : Open-shell DLPNO-CCSD energy and density      
  Barbara Sandhoefer     : DKH picture change effects                    
  Yorick L. A. Schmerwitz: GMF and freeze-and-release deltaSCF, NEB S-IDPP initial path                    
  Kantharuban Sivalingam : CASSCF convergence/infrastructure, NEVPT2, NEVPT3, NEVPT4(SD), FIC-MRCI and CEPA variants
  Bernardo de Souza      : ESD, SOC TD-DFT                               
  Georgi L. Stoychev     : AutoAux, RI-MP2 NMR, DLPNO-MP2 response, X2C  
  Van Anh Tran           : RI-MP2 g-tensors                              
  Willem Van den Heuvel  : Paramagnetic NMR                              
  Zikuan Wang            : NOTCH, Electric field optimization            
  Frank Wennmohs         : Technical directorship and infrastructure     
  Hang Xu                : AUTO-CI-Response properties                   
                                                                         
[FACCTs GmbH]                                                            
  Markus Bursch, Nicolas Foglia, Miquel Garcia-Rates, Ingolf Harden, Hagen Neugebauer, Anastasios Papadopoulos, 
  Christoph Riplinger, Bernardo de Souza, Georgi L. Stoychev                                                    
                                                                 
  APM, various basis sets, CI-OPT, improved COSX, DLPNO-Multilevel,           
  DOCKER, DRACO, updates on ESD, Fragmentator, GOAT, IRC, LR-CPCM, L-BFGS, MBIS, meta-GGA TD-DFT gradient, ML-optimized integration grids, 
  MM, NACMEs, nearIR, NEB, NEB-TS, NL-DFT gradient (VV10), 2- and 3-layer-ONIOM, interface openCOSMO-RS, QMMM,   
  Crystal-QMMM, RESP, rigid body optimization, SF, symmetry and pop. for TD-DFT, various functionals, SOLVATOR                                   
                                                                         
[Other institutions]                                                     
  V. Asgeirsson          : NEB                                           
  Christoph Bannwarth    : sTDA-DFT, sTD-DFT, PBEh-3c, B97-3c, D3        
  Giovanni Bistoni       : ETS/NOCV, ADLD/ADEX, COVALED                  
  Martin Brehm           : Molecular dynamics                            
  Ronald Cardenas        : ETS/NOCV                                      
  Martina Colucci        : COVALED                                       
  Sebastian Ehlert       : rSCAN, r2SCAN, r2SCAN-3c, D4, dhf basis sets  
  Marvin Friede          : D4 for Fr, Ra, Ac-Lr                          
  Lars Goerigk           : TD-DFT with DH, B97 family of functionals     
  Stefan Grimme          : VdW corrections, initial TS optimization, DFT functionals, gCP, sTDA/sTD-DF 
  Waldemar Hujo          : DFT-NL                                        
  H. Jonsson             : NEB                                           
  Holger Kruse           : gCP                                           
  Marcel Mueller         : wB97X-3c, vDZP basis set                      
  Hagen Neugebauer       : wr2SCAN, Native XTB                           
  Gianluca Regni         : ADLD/ADEX                                     
  Tobias Risthaus        : pre 6.0 range-separated hybrid DFT and stability analysis
  Lukas Wittmann         : regularized MP2, r2SCAN double-hybrids, wr2SCAN        
                                                                         
We gratefully acknowledge several colleagues who have allowed us to      
interface, adapt or use parts of their codes:                            
  Ed Valeev, F. Pavosevic, A. Kumar             : LibInt (2-el integral package), F12 methods 
  Garnet Chan, S. Sharma, J. Yang, R. Olivares  : DMRG                   
  Ulf Ekstrom                                   : XCFun DFT Library      
  Mihaly Kallay                                 : mrcc  (arbitrary order and MRCC methods)
  Frank Weinhold                                : gennbo (NPA and NBO analysis)           
  Simon Mueller                                 : openCOSMO-RS                            
  Christopher J. Cramer and Donald G. Truhlar   : smd solvation model                     
  S Lehtola, MJT Oliveira, MAL Marques          : LibXC Library                           
  Liviu Ungur et al                             : ANISO software                          


 Your calculation uses the libint2 library for the computation of 2-el integrals
 For citations please refer to: http://libint.valeyev.net

 Your ORCA version has been built with support for libXC version: 7.0.0
 For citations please refer to: https://libxc.gitlab.io

 This ORCA versions uses:
   CBLAS   interface :  Fast vector & matrix operations
   LAPACKE interface :  Fast linear algebra routines
   SCALAPACK package :  Parallel linear algebra routines
   Shared memory     :  Shared parallel matrices
   BLAS/LAPACK       :  OpenBLAS 0.3.29  USE64BITINT DYNAMIC_ARCH NO_AFFINITY Haswell SINGLE_THREADED
        Core in use  :  Haswell
   Copyright (c) 2011-2014, The OpenBLAS Project


  ***********************************
  * Starting time: Sat Aug 30 15:42:00 2025
  * Host name:     chemlab03
  * Process ID:    79535
  * Working dir.:  /home/vivek/mm-project/vivek/xtb-goat/B97-D-opt/f/3
  ***********************************



***************************************
The coordinates will be read from file: /home/vivek/mm-project/vivek/xtb-goat/xtb-goat/f/F_CONF/3.xyz
***************************************


Your calculation utilizes empirical dispersion correction


Warning: RI is on but no J-basis has been assigned. Assigning Def2/J (nothing to worry about!)
================================================================================

----- Orbital basis set information -----
Your calculation utilizes the basis: 6-31G**
   H-He, Li-Ne : W. J. Hehre, R. Ditchfield and J.A. Pople, J. Chem. Phys. 56, 2257 (1972).
                 Note: He and Ne are unpublished basis sets taken from the Gaussian program.
                 Note: Li and B from J. D. Dill and J. A. Pople, J. Chem. Phys. 62, 2921 (1975).
   Na - Ar     : M. M. Francl, W. J. Pietro, W. J. Hehre, J. S. Binkley, M. S. Gordon, 
                 D. J. DeFrees and J. A. Pople, J. Chem. Phys. 77, 3654 (1982).
   K - Zn      : V. A. Rassolov, J. A. Pople, M. A. Ratner, and T. L. Windus, J. Chem. Phys. 109, 1223 (1998).

----- AuxJ basis set information -----
Your calculation utilizes the auxiliary basis: def2/J
   H-Rn: F. Weigend, Phys. Chem. Chem. Phys. 8, 1057 (2006).
   Fr-Lr: K. Eichkorn, F. Weigend, O. Treutler, R. Ahlrichs; Theor. Chem. Acc. 97, 119 (1997).

================================================================================
                                        WARNINGS
                       Please study these warnings very carefully!
================================================================================


WARNING: Geometry Optimization
  ===> : Switching off AutoStart
         For restart on a previous wavefunction, please use MOREAD

INFO   : The exchange functional is Grimme's B97(-D)
         As described in S. Grimme, J. Comput. Chem. 27, 1787 (2006).
         Note that this functional defaults to a pure GGA. 

INFO   : The correlation functional is Grimme's B97(-D)
         As described in S. Grimme, J. Comput. Chem. 27, 1787 (2006).

================================================================================
                                       INPUT FILE
================================================================================
NAME = 3.inp
|  1> ! B97-D 6-31G** opt
|  2> 
|  3> * xyzfile 0 1 /home/vivek/mm-project/vivek/xtb-goat/xtb-goat/f/F_CONF/3.xyz
|  4> 
|  5>                          ****END OF INPUT****
================================================================================

                       *****************************
                       * Geometry Optimization Run *
                       *****************************

Geometry optimization settings:
Update method            Update   .... BFGS
Choice of coordinates    CoordSys .... (2022) Redundant Internals
Initial Hessian          InHess   .... Almloef's Model
Max. no of cycles        MaxIter  .... 69

Convergence Tolerances:
Energy Change            TolE     ....  5.0000e-06 Eh
Max. Gradient            TolMAXG  ....  3.0000e-04 Eh/bohr
RMS Gradient             TolRMSG  ....  1.0000e-04 Eh/bohr
Max. Displacement        TolMAXD  ....  4.0000e-03 bohr
RMS Displacement         TolRMSD  ....  2.0000e-03 bohr
Strict Convergence                .... False

------------------------------------------------------------------------------
                        ORCA OPTIMIZATION COORDINATE SETUP
------------------------------------------------------------------------------

The optimization will be done in redundant internal coordinates (2022)
Making redundant internal coordinates   ...  (2022 redundants) done
Evaluating the initial hessian          ...  (Almloef) done
Evaluating the coordinates              ...  done
Calculating the B-matrix                .... done
Calculating the G-matrix                .... done
The number of degrees of freedom        ....  107

    -----------------------------------------------------------------
                    Redundant Internal Coordinates


    -----------------------------------------------------------------
         Definition                    Initial Value    Approx d2E/dq
    -----------------------------------------------------------------
      1. B(C   1,C   0)                  1.3843         0.638053   
      2. B(H   4,C   2)                  1.0812         0.371910   
      3. B(C   5,C   1)                  1.3835         0.639797   
      4. B(H   7,C   1)                  1.0803         0.373174   
      5. B(C   8,C   5)                  1.3879         0.629540   
      6. B(C   8,C   6)                  1.5013         0.415057   
      7. B(C   8,C   2)                  1.3889         0.627239   
      8. B(H   9,C   0)                  1.0802         0.373331   
      9. B(C  10,H   3)                  1.0805         0.372934   
     10. B(C  10,C   2)                  1.3834         0.640077   
     11. B(C  10,C   0)                  1.3844         0.637800   
     12. B(H  11,C   5)                  1.0791         0.374854   
     13. B(C  12,C   6)                  1.5462         0.351961   
     14. B(H  13,C   6)                  1.0911         0.358698   
     15. B(H  14,C   6)                  1.0916         0.357989   
     16. B(C  15,C  12)                  1.5240         0.381936   
     17. B(N  17,C  12)                  1.4462         0.455129   
     18. B(O  18,H  16)                  0.9710         0.499443   
     19. B(O  18,C  15)                  1.3374         0.678847   
     20. B(H  19,N  17)                  1.0139         0.426506   
     21. B(O  20,C  15)                  1.2029         1.112638   
     22. B(H  21,C  12)                  1.0952         0.353341   
     23. B(H  22,N  17)                  1.0160         0.423244   
     24. A(C   1,C   0,C  10)          119.6904         0.438547   
     25. A(C   1,C   0,H   9)          120.2104         0.356807   
     26. A(H   9,C   0,C  10)          120.0991         0.356783   
     27. A(C   0,C   1,C   5)          120.1926         0.438795   
     28. A(C   0,C   1,H   7)          119.9712         0.356782   
     29. A(C   5,C   1,H   7)          119.8362         0.356947   
     30. A(C   8,C   2,C  10)          120.6060         0.437478   
     31. A(H   4,C   2,C   8)          119.5662         0.355543   
     32. A(H   4,C   2,C  10)          119.8274         0.356768   
     33. A(C   1,C   5,C   8)          120.4837         0.437733   
     34. A(C   8,C   5,H  11)          119.4709         0.356241   
     35. A(C   1,C   5,H  11)          120.0445         0.357220   
     36. A(C  12,C   6,H  14)          108.4015         0.320857   
     37. A(H  13,C   6,H  14)          109.0874         0.290393   
     38. A(C   8,C   6,H  14)          110.3567         0.329674   
     39. A(C  12,C   6,H  13)          108.5580         0.320961   
     40. A(C   8,C   6,H  13)          110.2165         0.329782   
     41. A(C   8,C   6,C  12)          110.1726         0.366204   
     42. A(C   5,C   8,C   6)          120.7558         0.405196   
     43. A(C   2,C   8,C   6)          120.2426         0.404934   
     44. A(C   2,C   8,C   5)          118.9772         0.436172   
     45. A(C   0,C  10,H   3)          120.0637         0.356719   
     46. A(C   0,C  10,C   2)          120.0490         0.438798   
     47. A(C   2,C  10,H   3)          119.8872         0.356935   
     48. A(C  15,C  12,N  17)          112.4720         0.374960   
     49. A(C   6,C  12,N  17)          110.0271         0.369718   
     50. A(C   6,C  12,C  15)          108.1392         0.361035   
     51. A(N  17,C  12,H  21)          109.1579         0.332005   
     52. A(C  15,C  12,H  21)          108.4632         0.324489   
     53. A(C   6,C  12,H  21)          108.4908         0.320172   
     54. A(C  12,C  15,O  20)          124.3575         0.439085   
     55. A(C  12,C  15,O  18)          112.7427         0.402044   
     56. A(O  18,C  15,O  20)          122.8968         0.484476   
     57. A(C  12,N  17,H  19)          110.6242         0.339625   
     58. A(H  19,N  17,H  22)          107.1442         0.301492   
     59. A(C  12,N  17,H  22)          109.3244         0.339190   
     60. A(C  15,O  18,H  16)          110.5502         0.373343   
     61. D(C   5,C   1,C   0,C  10)      0.1273         0.028274   
     62. D(C   5,C   1,C   0,H   9)   -179.8855         0.028274   
     63. D(H   7,C   1,C   0,H   9)      0.1108         0.028274   
     64. D(H   7,C   1,C   0,C  10)   -179.8763         0.028274   
     65. D(H  11,C   5,C   1,H   7)      0.3725         0.028439   
     66. D(H  11,C   5,C   1,C   0)   -179.6311         0.028439   
     67. D(C   8,C   5,C   1,C   0)      0.0089         0.028439   
     68. D(C   8,C   5,C   1,H   7)   -179.9874         0.028439   
     69. D(C   6,C   8,C   5,C   1)   -178.4720         0.027477   
     70. D(C   6,C   8,C   2,C  10)    178.6051         0.027263   
     71. D(C   2,C   8,C   5,C   1)     -0.2642         0.027477   
     72. D(C   2,C   8,C   5,H  11)    179.3778         0.027477   
     73. D(C   5,C   8,C   6,C  12)     87.7445         0.012748   
     74. D(C   5,C   8,C   2,C  10)      0.3879         0.027263   
     75. D(C   5,C   8,C   2,H   4)   -179.8442         0.027263   
     76. D(C   2,C   8,C   6,H  13)     29.3357         0.012748   
     77. D(C   2,C   8,C   6,C  12)    -90.4407         0.012748   
     78. D(C   2,C   8,C   6,H  14)    149.8882         0.012748   
     79. D(C   6,C   8,C   5,H  11)      1.1700         0.027477   
     80. D(C   6,C   8,C   2,H   4)     -1.6270         0.027263   
     81. D(C   5,C   8,C   6,H  13)   -152.4792         0.012748   
     82. D(H   3,C  10,C   2,C   8)    179.7412         0.028466   
     83. D(H   3,C  10,C   2,H   4)     -0.0261         0.028466   
     84. D(C   0,C  10,C   2,C   8)     -0.2559         0.028466   
     85. D(C   0,C  10,C   2,H   4)    179.9768         0.028466   
     86. D(H   3,C  10,C   0,H   9)      0.0111         0.028250   
     87. D(H   3,C  10,C   0,C   1)    179.9983         0.028250   
     88. D(C   2,C  10,C   0,H   9)   -179.9918         0.028250   
     89. D(C   2,C  10,C   0,C   1)     -0.0046         0.028250   
     90. D(C  15,C  12,C   6,H  13)     49.8878         0.010000   
     91. D(C  15,C  12,C   6,C   8)    170.6639         0.010000   
     92. D(N  17,C  12,C   6,H  14)     54.7111         0.010000   
     93. D(N  17,C  12,C   6,H  13)    173.0850         0.010000   
     94. D(N  17,C  12,C   6,C   8)    -66.1389         0.010000   
     95. D(C  15,C  12,C   6,H  14)    -68.4862         0.010000   
     96. D(O  20,C  15,C  12,N  17)    -14.5482         0.010879   
     97. D(O  20,C  15,C  12,C   6)    107.1536         0.010879   
     98. D(O  18,C  15,C  12,H  21)     45.2401         0.010879   
     99. D(O  18,C  15,C  12,N  17)    166.0717         0.010879   
    100. D(O  18,C  15,C  12,C   6)    -72.2265         0.010879   
    101. D(H  22,N  17,C  12,C  15)     49.7596         0.017676   
    102. D(H  22,N  17,C  12,C   6)    -70.8621         0.017676   
    103. D(H  19,N  17,C  12,H  21)     52.4331         0.017676   
    104. D(H  19,N  17,C  12,C  15)    -67.9989         0.017676   
    105. D(H  19,N  17,C  12,C   6)    171.3794         0.017676   
    106. D(H  16,O  18,C  15,O  20)     -0.6958         0.034314   
    107. D(H  16,O  18,C  15,C  12)    178.6947         0.034314   
    -----------------------------------------------------------------

Number of atoms                         .... 23
Number of degrees of freedom            .... 107


         *************************************************************
         *                GEOMETRY OPTIMIZATION CYCLE   1            *
         *************************************************************
---------------------------------
CARTESIAN COORDINATES (ANGSTROEM)
---------------------------------
  C     -6.578871    1.045268   -1.328721
  C     -5.405362    0.858466   -2.038811
  C     -5.319806    1.118969    0.710338
  H     -7.445733    1.321641    0.609007
  H     -5.288472    1.221553    1.786220
  C     -4.192617    0.799519   -1.375515
  C     -2.822941    0.897514    0.728284
  H     -5.435321    0.758233   -3.114026
  C     -4.138554    0.926424    0.005555
  H     -7.526046    1.089487   -1.846107
  C     -6.533473    1.175592    0.048776
  H     -3.278714    0.659782   -1.931973
  C     -2.221875    2.320386    0.798711
  H     -2.959650    0.527563    1.745566
  H     -2.116402    0.250483    0.205078
  C     -1.018518    2.281392    1.733006
  H     -0.576168    2.108623    3.581677
  N     -1.876367    2.778368   -0.528885
  O     -1.365607    2.150518    3.017950
  H     -1.614625    3.757786   -0.511959
  O      0.126047    2.348042    1.368948
  H     -2.971996    2.993494    1.227215
  H     -1.070432    2.258737   -0.864664

----------------------------
CARTESIAN COORDINATES (A.U.)
----------------------------
  NO LB      ZA    FRAG     MASS         X           Y           Z
   0 C     6.0000    0    12.011  -12.432264    1.975270   -2.510919
   1 C     6.0000    0    12.011  -10.214654    1.622266   -3.852795
   2 C     6.0000    0    12.011  -10.052976    2.114545    1.342345
   3 H     1.0000    0     1.008  -14.070397    2.497540    1.150857
   4 H     1.0000    0     1.008   -9.993763    2.308401    3.375467
   5 C     6.0000    0    12.011   -7.922898    1.510871   -2.599346
   6 C     6.0000    0    12.011   -5.334586    1.696056    1.376258
   7 H     1.0000    0     1.008  -10.271269    1.432853   -5.884657
   8 C     6.0000    0    12.011   -7.820735    1.750687    0.010497
   9 H     1.0000    0     1.008  -14.222165    2.058832   -3.488636
  10 C     6.0000    0    12.011  -12.346474    2.221547    0.092173
  11 H     1.0000    0     1.008   -6.195872    1.246807   -3.650900
  12 C     6.0000    0    12.011   -4.198736    4.384895    1.509344
  13 H     1.0000    0     1.008   -5.592928    0.996950    3.298643
  14 H     1.0000    0     1.008   -3.999420    0.473345    0.387540
  15 C     6.0000    0    12.011   -1.924720    4.311207    3.274907
  16 H     1.0000    0     1.008   -1.088800    3.984719    6.768389
  17 N     7.0000    0    14.007   -3.545820    5.250355   -0.999449
  18 O     8.0000    0    15.999   -2.580623    4.063889    5.703098
  19 H     1.0000    0     1.008   -3.051199    7.101186   -0.967461
  20 O     8.0000    0    15.999    0.238195    4.437157    2.586937
  21 H     1.0000    0     1.008   -5.616259    5.656884    2.319099
  22 H     1.0000    0     1.008   -2.022823    4.268395   -1.633979

--------------------------------
INTERNAL COORDINATES (ANGSTROEM)
--------------------------------
 C      0   0   0     0.000000000000     0.00000000     0.00000000
 C      1   0   0     1.384284945262     0.00000000     0.00000000
 C      1   2   0     2.397590527485    89.72654269     0.00000000
 H      3   1   2     2.137969319341    55.97363414   179.99753158
 H      3   1   2     1.081215911896   149.81445782   179.95601820
 C      2   1   3     1.383541887220   120.19260436     0.12503230
 C      3   1   2     2.506730364370   121.76549138     0.70237538
 H      2   1   3     1.080292331848   119.97123309   180.12137357
 C      6   2   1     1.387940948750   120.48367877     0.00000000
 H      1   2   3     1.080177458847   120.21044408   179.98947382
 C      4   3   1     1.080467288726    34.12619773     0.00000000
 H      6   2   1     1.079069311292   120.04446015   180.36888533
 C      7   3   1     1.546223029605   107.83225420    97.80745766
 H      7   3   1     1.091061693336    84.94135147   205.69552242
 H      7   3   1     1.091600586469   133.91866762   317.44256732
 C     13   7   3     1.523974272861   108.13921881   140.47743037
 H     16  13   7     1.908692311818   141.17831977   288.76527356
 N     13   7   3     1.446248365624   110.02705183   263.67466462
 O     17  16  13     0.970956656487    41.00370810   358.07957081
 H     18  13   7     1.013930084904   110.62415765   171.37935287
 O     16  13   7     1.202917303469   124.35751121   107.15360874
 H     13   7   3     1.095157706372   108.49077897    23.02866700
 H     18  13   7     1.016019546469   109.32443746   289.13789090

---------------------------
INTERNAL COORDINATES (A.U.)
---------------------------
 C      0   0   0     0.000000000000     0.00000000     0.00000000
 C      1   0   0     2.615919437855     0.00000000     0.00000000
 C      1   2   0     4.530789478231    89.72654269     0.00000000
 H      3   1   2     4.040176496280    55.97363414   179.99753158
 H      3   1   2     2.043201965121   149.81445782   179.95601820
 C      2   1   3     2.614515261655   120.19260436     0.12503230
 C      3   1   2     4.737033880243   121.76549138     0.70237538
 H      2   1   3     2.041456651769   119.97123309   180.12137357
 C      6   2   1     2.622828283192   120.48367877     0.00000000
 H      1   2   3     2.041239573256   120.21044408   179.98947382
 C      4   3   1     2.041787272353    34.12619773     0.00000000
 H      6   2   1     2.039145477860   120.04446015   180.36888533
 C      7   3   1     2.921938067915   107.83225420    97.80745766
 H      7   3   1     2.061807795617    84.94135147   205.69552242
 H      7   3   1     2.062826156053   133.91866762   317.44256732
 C     13   7   3     2.879894010849   108.13921881   140.47743037
 H     16  13   7     3.606905743256   141.17831977   288.76527356
 N     13   7   3     2.733013332661   110.02705183   263.67466462
 O     17  16  13     1.834842168669    41.00370810   358.07957081
 H     18  13   7     1.916050179412   110.62415765   171.37935287
 O     16  13   7     2.273184265311   124.35751121   107.15360874
 H     13   7   3     2.069548138496   108.49077897    23.02866700
 H     18  13   7     1.919998689537   109.32443746   289.13789090

---------------------
BASIS SET INFORMATION
---------------------
There are 4 groups of distinct atoms

 Group   1 Type C   : 10s4p1d contracted to 3s2p1d pattern {631/31/1}
 Group   2 Type H   : 4s1p contracted to 2s1p pattern {31/1}
 Group   3 Type N   : 10s4p1d contracted to 3s2p1d pattern {631/31/1}
 Group   4 Type O   : 10s4p1d contracted to 3s2p1d pattern {631/31/1}

Atom   0C    basis set group =>   1
Atom   1C    basis set group =>   1
Atom   2C    basis set group =>   1
Atom   3H    basis set group =>   2
Atom   4H    basis set group =>   2
Atom   5C    basis set group =>   1
Atom   6C    basis set group =>   1
Atom   7H    basis set group =>   2
Atom   8C    basis set group =>   1
Atom   9H    basis set group =>   2
Atom  10C    basis set group =>   1
Atom  11H    basis set group =>   2
Atom  12C    basis set group =>   1
Atom  13H    basis set group =>   2
Atom  14H    basis set group =>   2
Atom  15C    basis set group =>   1
Atom  16H    basis set group =>   2
Atom  17N    basis set group =>   3
Atom  18O    basis set group =>   4
Atom  19H    basis set group =>   2
Atom  20O    basis set group =>   4
Atom  21H    basis set group =>   2
Atom  22H    basis set group =>   2
---------------------------------
AUXILIARY/J BASIS SET INFORMATION
---------------------------------
There are 4 groups of distinct atoms

 Group   1 Type C   : 12s5p4d2f1g contracted to 6s4p3d1f1g pattern {711111/2111/211/2/1}
 Group   2 Type H   : 5s2p1d contracted to 3s1p1d pattern {311/2/1}
 Group   3 Type N   : 12s5p4d2f1g contracted to 6s4p3d1f1g pattern {711111/2111/211/2/1}
 Group   4 Type O   : 12s5p4d2f1g contracted to 6s4p3d1f1g pattern {711111/2111/211/2/1}

Atom   0C    basis set group =>   1
Atom   1C    basis set group =>   1
Atom   2C    basis set group =>   1
Atom   3H    basis set group =>   2
Atom   4H    basis set group =>   2
Atom   5C    basis set group =>   1
Atom   6C    basis set group =>   1
Atom   7H    basis set group =>   2
Atom   8C    basis set group =>   1
Atom   9H    basis set group =>   2
Atom  10C    basis set group =>   1
Atom  11H    basis set group =>   2
Atom  12C    basis set group =>   1
Atom  13H    basis set group =>   2
Atom  14H    basis set group =>   2
Atom  15C    basis set group =>   1
Atom  16H    basis set group =>   2
Atom  17N    basis set group =>   3
Atom  18O    basis set group =>   4
Atom  19H    basis set group =>   2
Atom  20O    basis set group =>   4
Atom  21H    basis set group =>   2
Atom  22H    basis set group =>   2
------------------------------------------------------------------------------
                             ORCA STARTUP CALCULATIONS
                           -- RI-GTO INTEGRALS CHOSEN --
------------------------------------------------------------------------------
------------------------------------------------------------------------------
                   ___                                                        
                  /   \      - P O W E R E D   B Y -                         
                 /     \                                                     
                 |  |  |   _    _      __       _____    __    __             
                 |  |  |  | |  | |    /  \     |  _  \  |  |  /  |          
                  \  \/   | |  | |   /    \    | | | |  |  | /  /          
                 / \  \   | |__| |  /  /\  \   | |_| |  |  |/  /          
                |  |  |   |  __  | /  /__\  \  |    /   |      \           
                |  |  |   | |  | | |   __   |  |    \   |  |\   \          
                \     /   | |  | | |  |  |  |  | |\  \  |  | \   \       
                 \___/    |_|  |_| |__|  |__|  |_| \__\ |__|  \__/        
                                                                              
                      - O R C A' S   B I G   F R I E N D -                    
                                      &                                       
                       - I N T E G R A L  F E E D E R -                       
                                                                              
 v1 FN, 2020, v2 2021, v3 2022-2024                                           
------------------------------------------------------------------------------


----------------------
SHARK INTEGRAL PACKAGE
----------------------

Number of atoms                             ...     23
Number of basis functions                   ...    223
Number of shells                            ...    105
Maximum angular momentum                    ...      2
Integral batch strategy                     ... SHARK/LIBINT Hybrid
RI-J (if used) integral strategy            ... SPLIT-RIJ (Revised 2003 algorithm where possible)
Printlevel                                  ...      1
Contraction scheme used                     ... SEGMENTED contraction
Prescreening option                         ... SCHWARTZ
   Thresh                                   ... 2.500e-11
   Tcut                                     ... 2.500e-12
   Tpresel                                  ... 2.500e-12 
Coulomb Range Separation                    ... NOT USED
Exchange Range Separation                   ... NOT USED
Multipole approximations                    ... NOT USED
Finite Nucleus Model                        ... NOT USED
CABS basis                                  ... NOT available
Auxiliary Coulomb fitting basis             ... AVAILABLE
   # of basis functions in Aux-J            ...    709
   # of shells in Aux-J                     ...    235
   Maximum angular momentum in Aux-J        ...      4
Auxiliary J/K fitting basis                 ... NOT available
Auxiliary Correlation fitting basis         ... NOT available
Auxiliary 'external' fitting basis          ... NOT available

Checking pre-screening integrals            ... done (  0.0 sec) Dimension = 105
   => SHARK Basis and OBASIS are compatible. Storing Pre-screening
Shell pair information
Shell pair cut-off parameter TPreSel        ...   2.5e-12
Total number of shell pairs                 ...      5565
Shell pairs after pre-screening             ...      4645
Total number of primitive shell pairs       ...     28015
Primitive shell pairs kept                  ...     14879
          la=0 lb=0:   1427 shell pairs
          la=1 lb=0:   1702 shell pairs
          la=1 lb=1:    539 shell pairs
          la=2 lb=0:    570 shell pairs
          la=2 lb=1:    344 shell pairs
          la=2 lb=2:     63 shell pairs

Checking whether 4 symmetric matrices of dimension 223 fit in memory
:Max Core in MB      =   4096.00
 MB in use           =      9.74
 MB left             =   4086.26
 MB needed           =      0.76
 Data fit in memory  = YES
Calculating RI/J V-Matrix + Cholesky decomp.... done (  0.0 sec)
Calculating Nuclear repulsion               ... done (  0.0 sec) ENN=    672.485355895184 Eh

Diagonalization of the overlap matrix:
Smallest eigenvalue                        ... 4.359e-04
Time for diagonalization                   ...    0.003 sec
Threshold for overlap eigenvalues          ... 1.000e-07
Number of eigenvalues below threshold      ... 0
Time for construction of square roots      ...    0.001 sec
Total time needed                          ...    0.004 sec

-------------------
DFT GRID GENERATION
-------------------

General Integration Accuracy     IntAcc      ... 4.388
Radial Grid Type                 RadialGrid  ... OptM3 with GC (2021)
Angular Grid (max. ang.)         AngularGrid ... 4 (Lebedev-302)
Angular grid pruning method      GridPruning ... 4 (adaptive)
Weight generation scheme         WeightScheme... mBecke (2022)
Basis function cutoff            BFCut       ... 1.0000e-11
Integration weight cutoff        WCut        ... 1.0000e-14
Partially contracted basis set               ... off
Rotationally invariant grid construction     ... off
Angular grids for H and He will be reduced by one unit

Total number of grid points                  ...   107229
Total number of batches                      ...     1687
Average number of points per batch           ...       63
Average number of grid points per atom       ...     4662
Grids setup in   0.5 sec
Initializing property integral containers    ... done (  0.0 sec)

SHARK setup successfully completed in   0.6 seconds

Maximum memory used throughout the entire STARTUP-calculation: 45.5 MB
-------------------------------------------------------------------------------
                                 ORCA GUESS
                   Start orbitals & Density for SCF / CASSCF
-------------------------------------------------------------------------------

------------
SCF SETTINGS
------------
Hamiltonian:
 Density Functional     Method          .... DFT(GTOs)
 Exchange Functional    Exchange        .... B97(D)
 Correlation Functional Correlation     .... B97(D)
 Gradients option       PostSCFGGA      .... off
 RI-approximation to the Coulomb term is turned on
   Number of AuxJ basis functions       .... 709


General Settings:
 Integral files         IntName         .... 3
 Hartree-Fock type      HFTyp           .... RHF
 Total Charge           Charge          ....    0
 Multiplicity           Mult            ....    1
 Number of Electrons    NEL             ....   88
 Basis Dimension        Dim             ....  223
 Nuclear Repulsion      ENuc            ....    672.4853558952 Eh

Convergence Acceleration:
 AO-DIIS                CNVDIIS         .... on
   Start iteration      DIISMaxIt       ....    12
   Startup error        DIISStart       ....  0.200000
   # of expansion vecs  DIISMaxEq       ....     5
   Bias factor          DIISBfac        ....   1.050
   Max. coefficient     DIISMaxC        ....  10.000
 MO-DIIS                CNVKDIIS        .... off
 Trust-Rad. Augm. Hess. CNVTRAH         .... auto
   Auto Start mean grad. ratio tolernc. ....  1.125000
   Auto Start start iteration           ....    50
   Auto Start num. interpolation iter.  ....    10
   Max. Number of Micro iterations      ....    24
   Max. Number of Macro iterations      .... Maxiter - #DIIS iter
   Number of Davidson start vectors     ....     2
   Converg. threshold    (grad. norm)   ....   1.000e-05
   Grad. Scal. Fac. for Micro threshold ....   0.100
   Minimum threshold for Micro iter.    ....   1.000e-02
   NR start threshold (gradient norm)   ....   1.000e-04
   Initial trust radius                 ....   0.400
   Minimum AH scaling param. (alpha)    ....   1.000
   Maximum AH scaling param. (alpha)    .... 1000.000
   Quad. conv. algorithm                .... NR
   White noise on init. David. guess    .... on
   Maximum white noise                  ....   0.010
   Pseudo random numbers                .... off
   Inactive MOs                         .... canonical
   Orbital update algorithm             .... Taylor
   Preconditioner                       .... Diag
   Full preconditioner red. dimension   ....   250
 SOSCF                 CNVSOSCF           .... on
   Start iteration     SOSCFMaxIt         ....   150
   Startup grad/error  SOSCFStart         ....  0.003300
   Hessian update      SOSCFHessUp        .... L-BFGS
   Autom. constraints  SOSCFAutoConstrain .... off
 Level Shifting         CNVShift        .... on
   Level shift para.    LevelShift      ....    0.2500
   Turn off err/grad.   ShiftErr        ....    0.0010
 Zerner damping         CNVZerner       .... off
 Static damping         CNVDamp         .... on
   Fraction old density DampFac         ....    0.7000
   Max. Damping (<1)    DampMax         ....    0.9800
   Min. Damping (>=0)   DampMin         ....    0.0000
   Turn off err/grad.   DampErr         ....    0.1000

SCF Procedure:
 Maximum # iterations   MaxIter         ....   125
 SCF integral mode      SCFMode         .... Direct
   Integral package                     .... SHARK and LIBINT hybrid scheme
 Reset frequency        DirectResetFreq ....    20
 Integral Threshold     Thresh          ....  2.500e-11 Eh
 Primitive CutOff       TCut            ....  2.500e-12 Eh

Convergence Tolerance:
 Convergence Check Mode ConvCheckMode   .... Total+1el-Energy
 Convergence forced     ConvForced      .... 0
 Energy Change          TolE            ....  1.000e-08 Eh
 1-El. energy change                    ....  1.000e-05 Eh
 Orbital Gradient       TolG            ....  1.000e-05
 Orbital Rotation angle TolX            ....  1.000e-05
 DIIS Error             TolErr          ....  5.000e-07

------------------------------
INITIAL GUESS: MODEL POTENTIAL
------------------------------
Loading Hartree-Fock densities                     ... done
Calculating cut-offs                               ... done
Initializing the effective Hamiltonian             ... done
Setting up the integral package (SHARK)            ... done
Starting the Coulomb interaction                   ... done (   0.1 sec)
Making the grid                                    ... done (   0.1 sec)
Mapping shells                                     ... done
Starting the XC term evaluation                    ... done (   0.1 sec)
  promolecular density results
     # of electrons  =     87.992382753
     EX              =    -71.440629170
     EC              =     -3.852658790
     EX+EC           =    -75.293287961
Transforming the Hamiltonian                       ... done (   0.0 sec)
Diagonalizing the Hamiltonian                      ... done (   0.0 sec)
Back transforming the eigenvectors                 ... done (   0.0 sec)
Now organizing SCF variables                       ... done
                      ------------------
                      INITIAL GUESS DONE (   0.4 sec)
                      ------------------
             **** ENERGY FILE WAS UPDATED (3.en.tmp) ****
Finished Guess after   0.4 sec
Maximum memory used throughout the entire GUESS-calculation: 15.9 MB

-------------------------------------------------------------------------------------------
                                      ORCA LEAN-SCF
                              memory conserving SCF solver
-------------------------------------------------------------------------------------------

----------------------------------------D-I-I-S--------------------------------------------
Iteration    Energy (Eh)           Delta-E    RMSDP     MaxDP     DIISErr   Damp  Time(sec)
-------------------------------------------------------------------------------------------
               ***  Starting incremental Fock matrix formation  ***
    1    -554.0265681276362102     0.00e+00  3.13e-03  1.11e-01  2.61e-01  0.700   0.7
    2    -554.2042197207026675    -1.78e-01  2.06e-03  5.95e-02  9.51e-02  0.700   0.7
                               ***Turning on AO-DIIS***
    3    -554.2616342155083657    -5.74e-02  8.01e-04  1.71e-02  2.69e-02  0.700   0.7
    4    -554.2985494242557252    -3.69e-02  1.13e-03  2.09e-02  1.54e-02  0.000   0.7
    5    -554.3828233838016786    -8.43e-02  3.60e-04  9.80e-03  7.96e-03  0.000   0.7
    6    -554.3836378210794464    -8.14e-04  1.33e-04  3.05e-03  3.50e-03  0.000   0.7
                              *** Initializing SOSCF ***
---------------------------------------S-O-S-C-F--------------------------------------
Iteration    Energy (Eh)           Delta-E    RMSDP     MaxDP     MaxGrad    Time(sec)
--------------------------------------------------------------------------------------
    7    -554.3837037271857753    -6.59e-05  4.39e-05  9.92e-04  1.43e-03     0.6
               *** Restarting incremental Fock matrix formation ***
    8    -554.3837120666530609    -8.34e-06  2.74e-05  6.28e-04  9.65e-05     0.7
    9    -554.3837119894749321     7.72e-08  1.26e-05  3.04e-04  1.25e-04     0.6
   10    -554.3837127775359477    -7.88e-07  1.07e-05  3.28e-04  8.23e-05     0.6
   11    -554.3837126667483517     1.11e-07  5.42e-06  2.09e-04  1.00e-04     0.6
   12    -554.3837129064290821    -2.40e-07  3.71e-06  8.81e-05  1.40e-05     0.6
   13    -554.3837128893262616     1.71e-08  1.78e-06  4.79e-05  2.56e-05     0.6
   14    -554.3837129188523249    -2.95e-08  1.87e-06  4.40e-05  1.08e-05     0.6
   15    -554.3837129180117245     8.41e-10  1.01e-06  2.67e-05  1.08e-05     0.5
                 **** Energy Check signals convergence ****

               *****************************************************
               *                     SUCCESS                       *
               *           SCF CONVERGED AFTER  15 CYCLES          *
               *****************************************************

             **** ENERGY FILE WAS UPDATED (3.en.tmp) ****

----------------
TOTAL SCF ENERGY
----------------

Total Energy       :       -554.38371292167380 Eh          -15085.54776 eV

Components:
Nuclear Repulsion  :        672.48535589518383 Eh           18299.25685 eV
Electronic Energy  :      -1226.86906881685763 Eh          -33384.80461 eV
One Electron Energy:      -2087.79828118241494 Eh          -56811.87949 eV
Two Electron Energy:        860.92921236555742 Eh           23427.07488 eV

Virial components:
Potential Energy   :      -1106.04897588491008 Eh          -30097.12274 eV
Kinetic Energy     :        551.66526296323627 Eh           15011.57498 eV
Virial Ratio       :          2.00492771639062

DFT components:
N(Alpha)           :       43.999981057265 electrons
N(Beta)            :       43.999981057265 electrons
N(Total)           :       87.999962114530 electrons
E(X)               :      -73.003300191577 Eh       
E(C)               :       -3.852666784174 Eh       
E(XC)              :      -76.855966975750 Eh       

---------------
SCF CONVERGENCE
---------------

  Last Energy change         ...   -8.4060e-10  Tolerance :   1.0000e-08
  Last MAX-Density change    ...    2.6724e-05  Tolerance :   1.0000e-07
  Last RMS-Density change    ...    1.0108e-06  Tolerance :   5.0000e-09
  Last DIIS Error            ...    1.4319e-03  Tolerance :   5.0000e-07
  Last Orbital Gradient      ...    1.0789e-05  Tolerance :   1.0000e-05
  Last Orbital Rotation      ...    1.7716e-05  Tolerance :   1.0000e-05


----------------
ORBITAL ENERGIES
----------------

  NO   OCC          E(Eh)            E(eV) 
   0   2.0000     -18.816432      -512.0211 
   1   2.0000     -18.755877      -510.3734 
   2   2.0000     -13.987765      -380.6264 
   3   2.0000     -10.028934      -272.9012 
   4   2.0000      -9.950800      -270.7750 
   5   2.0000      -9.913950      -269.7723 
   6   2.0000      -9.906254      -269.5629 
   7   2.0000      -9.899632      -269.3827 
   8   2.0000      -9.898745      -269.3585 
   9   2.0000      -9.898450      -269.3505 
  10   2.0000      -9.898123      -269.3416 
  11   2.0000      -9.895939      -269.2822 
  12   2.0000      -1.022858       -27.8334 
  13   2.0000      -0.934129       -25.4189 
  14   2.0000      -0.819048       -22.2874 
  15   2.0000      -0.774470       -21.0744 
  16   2.0000      -0.706942       -19.2369 
  17   2.0000      -0.667927       -18.1752 
  18   2.0000      -0.657514       -17.8919 
  19   2.0000      -0.601713       -16.3734 
  20   2.0000      -0.540728       -14.7140 
  21   2.0000      -0.538021       -14.6403 
  22   2.0000      -0.515877       -14.0377 
  23   2.0000      -0.466856       -12.7038 
  24   2.0000      -0.446096       -12.1389 
  25   2.0000      -0.439987       -11.9726 
  26   2.0000      -0.422329       -11.4922 
  27   2.0000      -0.405541       -11.0353 
  28   2.0000      -0.397465       -10.8156 
  29   2.0000      -0.389549       -10.6002 
  30   2.0000      -0.376204       -10.2370 
  31   2.0000      -0.362916        -9.8754 
  32   2.0000      -0.355697        -9.6790 
  33   2.0000      -0.338403        -9.2084 
  34   2.0000      -0.335274        -9.1233 
  35   2.0000      -0.318613        -8.6699 
  36   2.0000      -0.303668        -8.2632 
  37   2.0000      -0.288476        -7.8498 
  38   2.0000      -0.286424        -7.7940 
  39   2.0000      -0.275804        -7.5050 
  40   2.0000      -0.228488        -6.2175 
  41   2.0000      -0.213577        -5.8117 
  42   2.0000      -0.203453        -5.5362 
  43   2.0000      -0.194995        -5.3061 
  44   0.0000      -0.025902        -0.7048 
  45   0.0000      -0.014818        -0.4032 
  46   0.0000      -0.008314        -0.2262 
  47   0.0000       0.049869         1.3570 
  48   0.0000       0.069450         1.8898 
  49   0.0000       0.083417         2.2699 
  50   0.0000       0.097261         2.6466 
  51   0.0000       0.114972         3.1285 
  52   0.0000       0.131973         3.5912 
  53   0.0000       0.134396         3.6571 
  54   0.0000       0.148837         4.0501 
*Only the first 10 virtual orbitals were printed.

                    ********************************
                    * MULLIKEN POPULATION ANALYSIS *
                    ********************************

-----------------------
MULLIKEN ATOMIC CHARGES
-----------------------
   0 C :   -0.087930
   1 C :   -0.097635
   2 C :   -0.122764
   3 H :    0.084685
   4 H :    0.079003
   5 C :   -0.082203
   6 C :   -0.262247
   7 H :    0.085515
   8 C :    0.122547
   9 H :    0.084552
  10 C :   -0.091669
  11 H :    0.080082
  12 C :   -0.041667
  13 H :    0.125172
  14 H :    0.111024
  15 C :    0.486670
  16 H :    0.318380
  17 N :   -0.545067
  18 O :   -0.454834
  19 H :    0.245580
  20 O :   -0.416076
  21 H :    0.133598
  22 H :    0.245283
Sum of atomic charges:    0.0000000

--------------------------------
MULLIKEN REDUCED ORBITAL CHARGES
--------------------------------
  0 C s       :     3.175076  s :     3.175076
      pz      :     0.935600  p :     2.878109
      px      :     0.948781
      py      :     0.993727
      dz2     :     0.008930  d :     0.034745
      dxz     :     0.012272
      dyz     :     0.005380
      dx2y2   :     0.005011
      dxy     :     0.003151

  1 C s       :     3.180921  s :     3.180921
      pz      :     0.961614  p :     2.881864
      px      :     0.929025
      py      :     0.991225
      dz2     :     0.010657  d :     0.034849
      dxz     :     0.009943
      dyz     :     0.002307
      dx2y2   :     0.005494
      dxy     :     0.006449

  2 C s       :     3.182031  s :     3.182031
      pz      :     0.953359  p :     2.906011
      px      :     0.943610
      py      :     1.009042
      dz2     :     0.010653  d :     0.034722
      dxz     :     0.009851
      dyz     :     0.002228
      dx2y2   :     0.005528
      dxy     :     0.006462

  3 H s       :     0.902854  s :     0.902854
      pz      :     0.003554  p :     0.012461
      px      :     0.005777
      py      :     0.003130

  4 H s       :     0.908529  s :     0.908529
      pz      :     0.007140  p :     0.012468
      px      :     0.002193
      py      :     0.003135

  5 C s       :     3.176383  s :     3.176383
      pz      :     0.947467  p :     2.871075
      px      :     0.936732
      py      :     0.986877
      dz2     :     0.008968  d :     0.034745
      dxz     :     0.012274
      dyz     :     0.005142
      dx2y2   :     0.004703
      dxy     :     0.003658

  6 C s       :     3.238646  s :     3.238646
      pz      :     1.049120  p :     2.987005
      px      :     0.996501
      py      :     0.941383
      dz2     :     0.007708  d :     0.036596
      dxz     :     0.006912
      dyz     :     0.005830
      dx2y2   :     0.006753
      dxy     :     0.009393

  7 H s       :     0.902048  s :     0.902048
      pz      :     0.007166  p :     0.012438
      px      :     0.002219
      py      :     0.003052

  8 C s       :     3.128506  s :     3.128506
      pz      :     0.883116  p :     2.707406
      px      :     0.870580
      py      :     0.953711
      dz2     :     0.010655  d :     0.041541
      dxz     :     0.013224
      dyz     :     0.006189
      dx2y2   :     0.005637
      dxy     :     0.005836

  9 H s       :     0.902986  s :     0.902986
      pz      :     0.003347  p :     0.012463
      px      :     0.006042
      py      :     0.003073

 10 C s       :     3.178611  s :     3.178611
      pz      :     0.931844  p :     2.878197
      px      :     0.954137
      py      :     0.992217
      dz2     :     0.008636  d :     0.034860
      dxz     :     0.012598
      dyz     :     0.005389
      dx2y2   :     0.004693
      dxy     :     0.003544

 11 H s       :     0.907386  s :     0.907386
      pz      :     0.003514  p :     0.012531
      px      :     0.005921
      py      :     0.003096

 12 C s       :     3.200210  s :     3.200210
      pz      :     0.843367  p :     2.783854
      px      :     0.953740
      py      :     0.986746
      dz2     :     0.013712  d :     0.057603
      dxz     :     0.017161
      dyz     :     0.010375
      dx2y2   :     0.007143
      dxy     :     0.009213

 13 H s       :     0.863241  s :     0.863241
      pz      :     0.006199  p :     0.011587
      px      :     0.002427
      py      :     0.002961

 14 H s       :     0.877429  s :     0.877429
      pz      :     0.003389  p :     0.011547
      px      :     0.004103
      py      :     0.004055

 15 C s       :     2.987564  s :     2.987564
      pz      :     0.755131  p :     2.401346
      px      :     0.861588
      py      :     0.784626
      dz2     :     0.032681  d :     0.124420
      dxz     :     0.042457
      dyz     :     0.015084
      dx2y2   :     0.015403
      dxy     :     0.018795

 16 H s       :     0.643712  s :     0.643712
      pz      :     0.011686  p :     0.037909
      px      :     0.016893
      py      :     0.009329

 17 N s       :     3.583203  s :     3.583203
      pz      :     1.309189  p :     3.933463
      px      :     1.480253
      py      :     1.144021
      dz2     :     0.009235  d :     0.028401
      dxz     :     0.003744
      dyz     :     0.003457
      dx2y2   :     0.005151
      dxy     :     0.006813

 18 O s       :     3.824109  s :     3.824109
      pz      :     1.272970  p :     4.608016
      px      :     1.567060
      py      :     1.767986
      dz2     :     0.004567  d :     0.022710
      dxz     :     0.008667
      dyz     :     0.003366
      dx2y2   :     0.003925
      dxy     :     0.002183

 19 H s       :     0.730349  s :     0.730349
      pz      :     0.005704  p :     0.024071
      px      :     0.007034
      py      :     0.011333

 20 O s       :     3.855410  s :     3.855410
      pz      :     1.726826  p :     4.532571
      px      :     1.387569
      py      :     1.418175
      dz2     :     0.003442  d :     0.028095
      dxz     :     0.007418
      dyz     :     0.001131
      dx2y2   :     0.006641
      dxy     :     0.009463

 21 H s       :     0.855406  s :     0.855406
      pz      :     0.002560  p :     0.010996
      px      :     0.004600
      py      :     0.003836

 22 H s       :     0.730685  s :     0.730685
      pz      :     0.006790  p :     0.024032
      px      :     0.010626
      py      :     0.006615



                     *******************************
                     * LOEWDIN POPULATION ANALYSIS *
                     *******************************

----------------------
LOEWDIN ATOMIC CHARGES
----------------------
   0 C :   -0.076906
   1 C :   -0.072655
   2 C :   -0.080625
   3 H :    0.071087
   4 H :    0.068446
   5 C :   -0.062077
   6 C :   -0.111157
   7 H :    0.071547
   8 C :   -0.010935
   9 H :    0.071018
  10 C :   -0.074318
  11 H :    0.071432
  12 C :   -0.045428
  13 H :    0.080365
  14 H :    0.075704
  15 C :    0.099859
  16 H :    0.182136
  17 N :   -0.236878
  18 O :   -0.140935
  19 H :    0.128873
  20 O :   -0.221667
  21 H :    0.086304
  22 H :    0.126811

-------------------------------
LOEWDIN REDUCED ORBITAL CHARGES
-------------------------------
  0 C s       :     2.895726  s :     2.895726
      pz      :     1.059642  p :     3.094806
      px      :     1.052287
      py      :     0.982876
      dz2     :     0.025205  d :     0.086375
      dxz     :     0.032346
      dyz     :     0.011936
      dx2y2   :     0.010575
      dxy     :     0.006312

  1 C s       :     2.895760  s :     2.895760
      pz      :     1.049392  p :     3.090282
      px      :     1.063834
      py      :     0.977056
      dz2     :     0.024783  d :     0.086613
      dxz     :     0.027945
      dyz     :     0.004048
      dx2y2   :     0.015298
      dxy     :     0.014538

  2 C s       :     2.894786  s :     2.894786
      pz      :     1.046702  p :     3.099554
      px      :     1.056998
      py      :     0.995854
      dz2     :     0.024936  d :     0.086284
      dxz     :     0.027652
      dyz     :     0.003934
      dx2y2   :     0.015485
      dxy     :     0.014277

  3 H s       :     0.888327  s :     0.888327
      pz      :     0.011617  p :     0.040586
      px      :     0.020410
      py      :     0.008559

  4 H s       :     0.890642  s :     0.890642
      pz      :     0.025931  p :     0.040911
      px      :     0.006338
      py      :     0.008642

  5 C s       :     2.894848  s :     2.894848
      pz      :     1.050769  p :     3.081086
      px      :     1.053372
      py      :     0.976945
      dz2     :     0.024856  d :     0.086142
      dxz     :     0.032725
      dyz     :     0.010925
      dx2y2   :     0.010466
      dxy     :     0.007171

  6 C s       :     2.897724  s :     2.897724
      pz      :     1.072748  p :     3.132024
      px      :     1.038201
      py      :     1.021074
      dz2     :     0.016750  d :     0.081410
      dxz     :     0.015652
      dyz     :     0.011796
      dx2y2   :     0.016097
      dxy     :     0.021114

  7 H s       :     0.887839  s :     0.887839
      pz      :     0.025938  p :     0.040614
      px      :     0.006333
      py      :     0.008343

  8 C s       :     2.871454  s :     2.871454
      pz      :     1.058624  p :     3.035164
      px      :     1.024101
      py      :     0.952439
      dz2     :     0.028918  d :     0.104317
      dxz     :     0.036926
      dyz     :     0.013364
      dx2y2   :     0.013443
      dxy     :     0.011667

  9 H s       :     0.888302  s :     0.888302
      pz      :     0.010860  p :     0.040680
      px      :     0.021519
      py      :     0.008300

 10 C s       :     2.895509  s :     2.895509
      pz      :     1.060069  p :     3.091976
      px      :     1.052945
      py      :     0.978962
      dz2     :     0.024395  d :     0.086833
      dxz     :     0.033131
      dyz     :     0.011811
      dx2y2   :     0.010312
      dxy     :     0.007184

 11 H s       :     0.887366  s :     0.887366
      pz      :     0.011663  p :     0.041202
      px      :     0.021083
      py      :     0.008456

 12 C s       :     2.884008  s :     2.884008
      pz      :     0.964964  p :     3.030312
      px      :     1.026357
      py      :     1.038991
      dz2     :     0.031560  d :     0.131107
      dxz     :     0.041246
      dyz     :     0.020889
      dx2y2   :     0.016753
      dxy     :     0.020660

 13 H s       :     0.879421  s :     0.879421
      pz      :     0.023763  p :     0.040214
      px      :     0.007177
      py      :     0.009274

 14 H s       :     0.884543  s :     0.884543
      pz      :     0.011259  p :     0.039753
      px      :     0.014611
      py      :     0.013883

 15 C s       :     2.858624  s :     2.858624
      pz      :     0.910699  p :     2.743856
      px      :     1.047367
      py      :     0.785790
      dz2     :     0.080539  d :     0.297661
      dxz     :     0.107089
      dyz     :     0.032702
      dx2y2   :     0.039138
      dxy     :     0.038192

 16 H s       :     0.702124  s :     0.702124
      pz      :     0.034611  p :     0.115739
      px      :     0.054788
      py      :     0.026340

 17 N s       :     3.192738  s :     3.192738
      pz      :     1.340860  p :     3.986255
      px      :     1.475985
      py      :     1.169411
      dz2     :     0.019667  d :     0.057885
      dxz     :     0.007486
      dyz     :     0.009423
      dx2y2   :     0.009838
      dxy     :     0.011470

 18 O s       :     3.470128  s :     3.470128
      pz      :     1.315626  p :     4.619827
      px      :     1.572044
      py      :     1.732156
      dz2     :     0.016258  d :     0.050980
      dxz     :     0.020280
      dyz     :     0.006964
      dx2y2   :     0.005631
      dxy     :     0.001847

 19 H s       :     0.792060  s :     0.792060
      pz      :     0.016478  p :     0.079067
      px      :     0.020647
      py      :     0.041943

 20 O s       :     3.554490  s :     3.554490
      pz      :     1.716822  p :     4.609066
      px      :     1.487921
      py      :     1.404324
      dz2     :     0.008199  d :     0.058111
      dxz     :     0.016310
      dyz     :     0.001662
      dx2y2   :     0.018691
      dxy     :     0.013250

 21 H s       :     0.873986  s :     0.873986
      pz      :     0.008345  p :     0.039710
      px      :     0.017179
      py      :     0.014186

 22 H s       :     0.793622  s :     0.793622
      pz      :     0.020690  p :     0.079568
      px      :     0.038454
      py      :     0.020424



                      *****************************
                      * MAYER POPULATION ANALYSIS *
                      *****************************

  NA   - Mulliken gross atomic population
  ZA   - Total nuclear charge
  QA   - Mulliken gross atomic charge
  VA   - Mayer's total valence
  BVA  - Mayer's bonded valence
  FA   - Mayer's free valence

  ATOM       NA         ZA         QA         VA         BVA        FA
  0 C      6.0879     6.0000    -0.0879     3.9473     3.9473     0.0000
  1 C      6.0976     6.0000    -0.0976     3.9457     3.9457     0.0000
  2 C      6.1228     6.0000    -0.1228     3.9438     3.9438    -0.0000
  3 H      0.9153     1.0000     0.0847     0.9568     0.9568    -0.0000
  4 H      0.9210     1.0000     0.0790     0.9595     0.9595     0.0000
  5 C      6.0822     6.0000    -0.0822     3.9531     3.9531     0.0000
  6 C      6.2622     6.0000    -0.2622     3.8712     3.8712    -0.0000
  7 H      0.9145     1.0000     0.0855     0.9567     0.9567    -0.0000
  8 C      5.8775     6.0000     0.1225     3.9826     3.9826     0.0000
  9 H      0.9154     1.0000     0.0846     0.9568     0.9568     0.0000
 10 C      6.0917     6.0000    -0.0917     3.9472     3.9472     0.0000
 11 H      0.9199     1.0000     0.0801     0.9663     0.9663     0.0000
 12 C      6.0417     6.0000    -0.0417     3.8568     3.8568     0.0000
 13 H      0.8748     1.0000     0.1252     0.9570     0.9570     0.0000
 14 H      0.8890     1.0000     0.1110     0.9558     0.9558     0.0000
 15 C      5.5133     6.0000     0.4867     3.9519     3.9519    -0.0000
 16 H      0.6816     1.0000     0.3184     0.9172     0.9172     0.0000
 17 N      7.5451     7.0000    -0.5451     2.9229     2.9229     0.0000
 18 O      8.4548     8.0000    -0.4548     2.0303     2.0303     0.0000
 19 H      0.7544     1.0000     0.2456     0.9197     0.9197     0.0000
 20 O      8.4161     8.0000    -0.4161     2.1197     2.1197     0.0000
 21 H      0.8664     1.0000     0.1336     0.9524     0.9524    -0.0000
 22 H      0.7547     1.0000     0.2453     0.9323     0.9323     0.0000

  Mayer bond orders larger than 0.100000
B(  0-C ,  1-C ) :   1.4435 B(  0-C ,  9-H ) :   0.9398 B(  0-C , 10-C ) :   1.4471 
B(  1-C ,  5-C ) :   1.4339 B(  1-C ,  7-H ) :   0.9383 B(  2-C ,  4-H ) :   0.9344 
B(  2-C ,  8-C ) :   1.4328 B(  2-C , 10-C ) :   1.4342 B(  3-H , 10-C ) :   0.9382 
B(  5-C ,  8-C ) :   1.4356 B(  5-C , 11-H ) :   0.9320 B(  6-C ,  8-C ) :   0.9932 
B(  6-C , 12-C ) :   0.9563 B(  6-C , 13-H ) :   0.9354 B(  6-C , 14-H ) :   0.9371 
B( 12-C , 15-C ) :   0.8907 B( 12-C , 17-N ) :   1.0634 B( 12-C , 21-H ) :   0.9226 
B( 15-C , 18-O ) :   1.0802 B( 15-C , 20-O ) :   1.9319 B( 16-H , 18-O ) :   0.8510 
B( 17-N , 19-H ) :   0.9082 B( 17-N , 22-H ) :   0.8979 

-------
TIMINGS
-------

Total SCF time: 0 days 0 hours 0 min 10 sec 

Total time                  ....      10.153 sec
Sum of individual times     ....       9.545 sec  ( 94.0%)

SCF preparation             ....       0.032 sec  (  0.3%)
Fock matrix formation       ....       9.397 sec  ( 92.6%)
  Startup                   ....       0.001 sec  (  0.0% of F)
  Split-RI-J                ....       3.726 sec  ( 39.7% of F)
  XC integration            ....       6.191 sec  ( 65.9% of F)
    XC Preparation          ....       0.000 sec  (  0.0% of XC)
    Basis function eval.    ....       2.217 sec  ( 35.8% of XC)
    Density eval.           ....       1.398 sec  ( 22.6% of XC)
    XC-Functional eval.     ....       1.050 sec  ( 17.0% of XC)
    XC-Potential eval.      ....       1.373 sec  ( 22.2% of XC)
Diagonalization             ....       0.000 sec  (  0.0%)
Density matrix formation    ....       0.007 sec  (  0.1%)
Total Energy calculation    ....       0.002 sec  (  0.0%)
Population analysis         ....       0.003 sec  (  0.0%)
Orbital Transformation      ....       0.028 sec  (  0.3%)
Orbital Orthonormalization  ....       0.000 sec  (  0.0%)
DIIS solution               ....       0.045 sec  (  0.4%)
SOSCF solution              ....       0.030 sec  (  0.3%)
Finished LeanSCF after  10.2 sec

Maximum memory used throughout the entire LEANSCF-calculation: 25.0 MB



-------------------------------------------------------------------------------
                          DFT DISPERSION CORRECTION                            
-------------------------------------------------------------------------------
Active option DFTDOPT                   ...         2   
Final C6-coefficient scaling factor     ...     1.250
Final VDW-radii scaling factor          ...     1.100
Damping factor alpha                    ...    20.000
-------------------------   ----------------
Dispersion correction           -0.030904830
-------------------------   ----------------


-------------------------   --------------------
FINAL SINGLE POINT ENERGY      -554.414617751848
-------------------------   --------------------

------------------------------------------------------------------------------
                         ORCA SCF GRADIENT CALCULATION
------------------------------------------------------------------------------

Nuc. rep. gradient        (SHARK) ... done (  0.0 sec)
HCore & Overlap gradient  (SHARK) ... done (  0.2 sec)
Split-RIJ-J gradient      (SHARK) ... done (  0.9 sec)
XC gradient                       ... done (  3.3 sec)
Dispersion correction             ... done (  0.0 sec)

-------------------
DISPERSION GRADIENT
-------------------

   1   C   :    0.000774741   -0.000065566    0.000435833
   2   C   :   -0.000233653    0.000024091    0.000837779
   3   C   :   -0.001294143   -0.000425345   -0.001106899
   4   H   :   -0.000014570   -0.000005066   -0.000021107
   5   H   :   -0.000684698   -0.000017799    0.000022320
   6   C   :   -0.001911693   -0.000401767   -0.000356906
   7   C   :   -0.000081106    0.000440614    0.000221195
   8   H   :   -0.000030663   -0.000006669   -0.000006066
   9   C   :   -0.000463438   -0.000365821   -0.000227258
  10   H   :    0.000017602   -0.000003035    0.000008992
  11   C   :    0.000595330   -0.000174853   -0.000599639
  12   H   :   -0.000551130   -0.000352774   -0.000695956
  13   C   :    0.001159254   -0.000374261    0.000233250
  14   H   :    0.000462349   -0.000601289   -0.000806134
  15   H   :   -0.000500653   -0.000616659    0.000991082
  16   C   :   -0.000106804    0.000332248    0.000323774
  17   H   :    0.000310467    0.000077770   -0.000247731
  18   N   :    0.000680056    0.000658609    0.001025238
  19   O   :    0.000640113    0.000275987    0.000406578
  20   H   :    0.000211513    0.000333900   -0.000815077
  21   O   :    0.000077428    0.000089772    0.000828361
  22   H   :    0.000480025    0.000308552    0.000095404
  23   H   :    0.000463672    0.000869357   -0.000547032

Difference to translation invariance:
           :    0.0000000000    0.0000000000    0.0000000000

Difference to rotation invariance:
           :    0.0000000000    0.0000000000    0.0000000000

Norm of the Dispersion gradient    ...    0.0046739511
RMS gradient                       ...    0.0005626776
MAX gradient                       ...    0.0019116925

------------------
CARTESIAN GRADIENT
------------------

   1   C   :    0.010391322   -0.000709047    0.005303626
   2   C   :   -0.000031719    0.001152279    0.011423000
   3   C   :   -0.000596104   -0.000705121   -0.009426741
   4   H   :    0.006434285   -0.000900414   -0.004030691
   5   H   :   -0.000824186   -0.000501488   -0.007921431
   6   C   :   -0.007270871    0.001639958    0.005602957
   7   C   :    0.006161335   -0.003543057    0.000165518
   8   H   :    0.000096824    0.000759929    0.007695324
   9   C   :   -0.009007290    0.004601053   -0.005636257
  10   H   :    0.006715502   -0.000209179    0.003732659
  11   C   :    0.010147675   -0.002222335   -0.005878930
  12   H   :   -0.006772605    0.000771347    0.003388093
  13   C   :   -0.003562022    0.000017673    0.000336545
  14   H   :   -0.000523706    0.003054842   -0.004502187
  15   H   :   -0.005270117    0.003747610    0.001379280
  16   C   :    0.007935264   -0.003797697    0.001697790
  17   H   :   -0.005723182   -0.000166364    0.002846053
  18   N   :    0.007326901   -0.000979451    0.007994576
  19   O   :    0.018927167    0.002523985   -0.021866705
  20   H   :   -0.002720236   -0.002813126   -0.000936092
  21   O   :   -0.030753126   -0.000680553    0.010873057
  22   H   :    0.002955778   -0.001319529   -0.001530037
  23   H   :   -0.004036890    0.000278682   -0.000709409

Difference to translation invariance:
           :   -0.0000000000    0.0000000000   -0.0000000000

Difference to rotation invariance:
           :    0.0001776446    0.0003148925    0.0001239232

Norm of the Cartesian gradient     ...    0.0578820618
RMS gradient                       ...    0.0069681814
MAX gradient                       ...    0.0307531262

-------
TIMINGS
-------

Total SCF gradient time     ....        4.398 sec

Densities                   ....       0.000 sec  (  0.0%)
One electron gradient       ....       0.180 sec  (  4.1%)
RI-J Coulomb gradient       ....       0.936 sec  ( 21.3%)
XC gradient                 ....       3.282 sec  ( 74.6%)

Maximum memory used throughout the entire SCFGRAD-calculation: 31.7 MB
------------------------------------------------------------------------------
                         ORCA GEOMETRY RELAXATION STEP
------------------------------------------------------------------------------

Reading the OPT-File                    .... done
Getting information on internals        .... done
Copying old internal coords+grads       .... done
Making the new internal coordinates     .... (2022 redundants) done
Validating the new internal coordinates .... (2022 redundants) done
Calculating the B-matrix                .... done
Calculating the G,G- and P matrices     .... done
Transforming gradient to internals      .... done
Projecting the internal gradient        .... done
Number of atoms                         ....  23
Number of internal coordinates          .... 107
Current Energy                          ....  -554.414617752 Eh
Current gradient norm                   ....     0.057882062 Eh/bohr
Maximum allowed component of the step   ....  0.300
Current trust radius                    ....  0.300
Evaluating the initial hessian          ....  (Almloef) done
Projecting the Hessian                  .... done
Forming the augmented Hessian           .... done
Diagonalizing the augmented Hessian     .... done
Last element of RFO vector              ....  0.987563793
Lowest eigenvalues of augmented Hessian:
 -0.008223826  0.010041654  0.010911711  0.012749550  0.017653893
Length of the computed step             ....  0.159198636
The final length of the internal step   ....  0.159198636
Converting the step to Cartesian space:
 Initial RMS(Int)=    0.0153903130
Transforming coordinates:
 Iter   0:  RMS(Cart)=    0.0542554624 RMS(Int)=    1.0517063231
done
Storing new coordinates                 .... done

                                .--------------------.
          ----------------------|Geometry convergence|-------------------------
          Item                value                   Tolerance       Converged
          ---------------------------------------------------------------------
          RMS gradient        0.0066742364            0.0001000000      NO
          MAX gradient        0.0325913296            0.0003000000      NO
          RMS step            0.0153903130            0.0020000000      NO
          MAX step            0.0515471255            0.0040000000      NO
          -------------------------------------------------------------------------
          ........................................................
          Max(Bonds)      0.0169      Max(Angles)    1.56
          Max(Dihed)        2.95      Max(Improp)    0.00
          ---------------------------------------------------------------------

The optimization has not yet converged - more geometry cycles are needed


    ---------------------------------------------------------------------------
                         Redundant Internal Coordinates
                            (Angstroem and degrees)

        Definition                    Value    dE/dq     Step     New-Value
    ----------------------------------------------------------------------------
     1. B(C   1,C   0)                1.3843 -0.019327  0.0159    1.4002   
     2. B(H   4,C   2)                1.0812 -0.007955  0.0111    1.0923   
     3. B(C   5,C   1)                1.3835 -0.018962  0.0155    1.3990   
     4. B(H   7,C   1)                1.0803 -0.007731  0.0107    1.0910   
     5. B(C   8,C   5)                1.3879 -0.018454  0.0153    1.4032   
     6. B(C   8,C   6)                1.5013 -0.010108  0.0126    1.5140   
     7. B(C   8,C   2)                1.3889 -0.018094  0.0150    1.4040   
     8. B(H   9,C   0)                1.0802 -0.007685  0.0107    1.0908   
     9. B(C  10,H   3)                1.0805 -0.007645  0.0106    1.0911   
    10. B(C  10,C   2)                1.3834 -0.019461  0.0159    1.3993   
    11. B(C  10,C   0)                1.3844 -0.018935  0.0156    1.3999   
    12. B(H  11,C   5)                1.0791 -0.007582  0.0105    1.0895   
    13. B(C  12,C   6)                1.5462 -0.010199  0.0150    1.5612   
    14. B(H  13,C   6)                1.0911 -0.005166  0.0074    1.0985   
    15. B(H  14,C   6)                1.0916 -0.006296  0.0091    1.1007   
    16. B(C  15,C  12)                1.5240 -0.011492  0.0156    1.5396   
    17. B(N  17,C  12)                1.4462 -0.006806  0.0078    1.4540   
    18. B(O  18,H  16)                0.9710 -0.002995  0.0031    0.9741   
    19. B(O  18,C  15)                1.3374 -0.021927  0.0169    1.3543   
    20. B(H  19,N  17)                1.0139 -0.003438  0.0042    1.0181   
    21. B(O  20,C  15)                1.2029 -0.032591  0.0154    1.2183   
    22. B(H  21,C  12)                1.0952 -0.003434  0.0050    1.1002   
    23. B(H  22,N  17)                1.0160 -0.003106  0.0038    1.0198   
    24. A(C   1,C   0,C  10)          119.69  0.000430   -0.05    119.65   
    25. A(C   1,C   0,H   9)          120.21 -0.000148    0.01    120.22   
    26. A(H   9,C   0,C  10)          120.10 -0.000282    0.03    120.13   
    27. A(C   0,C   1,C   5)          120.19  0.000110   -0.01    120.18   
    28. A(C   0,C   1,H   7)          119.97 -0.000175    0.02    119.99   
    29. A(C   5,C   1,H   7)          119.84  0.000065   -0.01    119.82   
    30. A(C   8,C   2,C  10)          120.61 -0.000999    0.13    120.74   
    31. A(H   4,C   2,C   8)          119.57  0.001133   -0.16    119.40   
    32. A(H   4,C   2,C  10)          119.83 -0.000134    0.03    119.86   
    33. A(C   1,C   5,C   8)          120.48 -0.000827    0.11    120.59   
    34. A(C   8,C   5,H  11)          119.47  0.001057   -0.15    119.32   
    35. A(C   1,C   5,H  11)          120.04 -0.000229    0.05    120.09   
    36. A(C  12,C   6,H  14)          108.40  0.002925   -0.48    107.92   
    37. A(H  13,C   6,H  14)          109.09  0.000584   -0.74    108.34   
    38. A(C   8,C   6,H  14)          110.36  0.000472    0.15    110.51   
    39. A(C  12,C   6,H  13)          108.56  0.001624   -0.19    108.37   
    40. A(C   8,C   6,H  13)          110.22  0.002328   -0.27    109.95   
    41. A(C   8,C   6,C  12)          110.17 -0.007839    1.50    111.68   
    42. A(C   5,C   8,C   6)          120.76 -0.001734    0.24    121.00   
    43. A(C   2,C   8,C   6)          120.24  0.000789   -0.11    120.13   
    44. A(C   2,C   8,C   5)          118.98  0.000954   -0.14    118.84   
    45. A(C   0,C  10,H   3)          120.06 -0.000235    0.03    120.09   
    46. A(C   0,C  10,C   2)          120.05  0.000331   -0.04    120.01   
    47. A(C   2,C  10,H   3)          119.89 -0.000096    0.01    119.90   
    48. A(C  15,C  12,N  17)          112.47 -0.000009    0.33    112.80   
[...]

 18 O s       :     3.841821  s :     3.841821
      pz      :     1.261551  p :     4.596395
      px      :     1.561014
      py      :     1.773830
      dz2     :     0.004075  d :     0.023125
      dxz     :     0.009433
      dyz     :     0.002814
      dx2y2   :     0.004183
      dxy     :     0.002619

 19 H s       :     0.731552  s :     0.731552
      pz      :     0.005970  p :     0.023723
      px      :     0.006528
      py      :     0.011225

 20 O s       :     3.870699  s :     3.870699
      pz      :     1.742273  p :     4.524912
      px      :     1.364200
      py      :     1.418439
      dz2     :     0.003090  d :     0.027348
      dxz     :     0.007167
      dyz     :     0.000649
      dx2y2   :     0.006942
      dxy     :     0.009499

 21 H s       :     0.853709  s :     0.853709
      pz      :     0.002272  p :     0.010910
      px      :     0.004493
      py      :     0.004146

 22 H s       :     0.728779  s :     0.728779
      pz      :     0.006246  p :     0.023756
      px      :     0.010737
      py      :     0.006773



                     *******************************
                     * LOEWDIN POPULATION ANALYSIS *
                     *******************************

----------------------
LOEWDIN ATOMIC CHARGES
----------------------
   0 C :   -0.077515
   1 C :   -0.074647
   2 C :   -0.081355
   3 H :    0.072957
   4 H :    0.070308
   5 C :   -0.063906
   6 C :   -0.112113
   7 H :    0.073356
   8 C :   -0.015147
   9 H :    0.072687
  10 C :   -0.076538
  11 H :    0.077415
  12 C :   -0.043980
  13 H :    0.079357
  14 H :    0.078238
  15 C :    0.123739
  16 H :    0.183987
  17 N :   -0.245264
  18 O :   -0.158452
  19 H :    0.130415
  20 O :   -0.229746
  21 H :    0.086999
  22 H :    0.129205

-------------------------------
LOEWDIN REDUCED ORBITAL CHARGES
-------------------------------
  0 C s       :     2.908605  s :     2.908605
      pz      :     1.055767  p :     3.087623
      px      :     1.050552
      py      :     0.981304
      dz2     :     0.024331  d :     0.081286
      dxz     :     0.030716
      dyz     :     0.010980
      dx2y2   :     0.009795
      dxy     :     0.005464

  1 C s       :     2.908453  s :     2.908453
      pz      :     1.049020  p :     3.084632
      px      :     1.058601
      py      :     0.977011
      dz2     :     0.023557  d :     0.081563
      dxz     :     0.027031
      dyz     :     0.003359
      dx2y2   :     0.014416
      dxy     :     0.013200

  2 C s       :     2.908063  s :     2.908063
      pz      :     1.045979  p :     3.091978
      px      :     1.051874
      py      :     0.994126
      dz2     :     0.023642  d :     0.081314
      dxz     :     0.026747
      dyz     :     0.003215
      dx2y2   :     0.014560
      dxy     :     0.013149

  3 H s       :     0.887487  s :     0.887487
      pz      :     0.011639  p :     0.039556
      px      :     0.019989
      py      :     0.007929

  4 H s       :     0.889904  s :     0.889904
      pz      :     0.025813  p :     0.039788
      px      :     0.005868
      py      :     0.008107

  5 C s       :     2.908075  s :     2.908075
      pz      :     1.048671  p :     3.074964
      px      :     1.054576
      py      :     0.971717
      dz2     :     0.023757  d :     0.080867
      dxz     :     0.030958
      dyz     :     0.009767
      dx2y2   :     0.010083
      dxy     :     0.006303

  6 C s       :     2.907504  s :     2.907504
      pz      :     1.071609  p :     3.126075
      px      :     1.034671
      py      :     1.019796
      dz2     :     0.017402  d :     0.078534
      dxz     :     0.014266
      dyz     :     0.009940
      dx2y2   :     0.014768
      dxy     :     0.022158

  7 H s       :     0.887094  s :     0.887094
      pz      :     0.025801  p :     0.039550
      px      :     0.005895
      py      :     0.007855

  8 C s       :     2.883948  s :     2.883948
      pz      :     1.054938  p :     3.032863
      px      :     1.020479
      py      :     0.957446
      dz2     :     0.027719  d :     0.098336
      dxz     :     0.035674
      dyz     :     0.012085
      dx2y2   :     0.012462
      dxy     :     0.010397

  9 H s       :     0.887698  s :     0.887698
      pz      :     0.010200  p :     0.039615
      px      :     0.021472
      py      :     0.007944

 10 C s       :     2.908075  s :     2.908075
      pz      :     1.055936  p :     3.086842
      px      :     1.051083
      py      :     0.979823
      dz2     :     0.023168  d :     0.081622
      dxz     :     0.031692
      dyz     :     0.010555
      dx2y2   :     0.009886
      dxy     :     0.006321

 11 H s       :     0.881631  s :     0.881631
      pz      :     0.011518  p :     0.040954
      px      :     0.021550
      py      :     0.007886

 12 C s       :     2.895370  s :     2.895370
      pz      :     0.955600  p :     3.023840
      px      :     1.020964
      py      :     1.047276
      dz2     :     0.033571  d :     0.124770
      dxz     :     0.038926
      dyz     :     0.017022
      dx2y2   :     0.013743
      dxy     :     0.021508

 13 H s       :     0.881497  s :     0.881497
      pz      :     0.023804  p :     0.039145
      px      :     0.006836
      py      :     0.008505

 14 H s       :     0.883018  s :     0.883018
      pz      :     0.010283  p :     0.038744
      px      :     0.013902
      py      :     0.014559

 15 C s       :     2.874406  s :     2.874406
      pz      :     0.908559  p :     2.724454
      px      :     1.031751
      py      :     0.784144
      dz2     :     0.065161  d :     0.277402
      dxz     :     0.110281
      dyz     :     0.026322
      dx2y2   :     0.037407
      dxy     :     0.038230

 16 H s       :     0.702028  s :     0.702028
      pz      :     0.034777  p :     0.113985
      px      :     0.053171
      py      :     0.026037

 17 N s       :     3.217241  s :     3.217241
      pz      :     1.379693  p :     3.970787
      px      :     1.407956
      py      :     1.183138
      dz2     :     0.020896  d :     0.057237
      dxz     :     0.006467
      dyz     :     0.007116
      dx2y2   :     0.010566
      dxy     :     0.012192

 18 O s       :     3.496825  s :     3.496825
      pz      :     1.302573  p :     4.612968
      px      :     1.570603
      py      :     1.739792
      dz2     :     0.014279  d :     0.048659
      dxz     :     0.020647
      dyz     :     0.005680
      dx2y2   :     0.005775
      dxy     :     0.002278

 19 H s       :     0.792283  s :     0.792283
      pz      :     0.017133  p :     0.077302
      px      :     0.018837
      py      :     0.041332

 20 O s       :     3.569112  s :     3.569112
      pz      :     1.730970  p :     4.604903
      px      :     1.468229
      py      :     1.405704
      dz2     :     0.007684  d :     0.055731
      dxz     :     0.014580
      dyz     :     0.000952
      dx2y2   :     0.019177
      dxy     :     0.013338

 21 H s       :     0.873670  s :     0.873670
      pz      :     0.007046  p :     0.039331
      px      :     0.016806
      py      :     0.015480

 22 H s       :     0.792617  s :     0.792617
      pz      :     0.018212  p :     0.078178
      px      :     0.039422
      py      :     0.020544



                      *****************************
                      * MAYER POPULATION ANALYSIS *
                      *****************************

  NA   - Mulliken gross atomic population
  ZA   - Total nuclear charge
  QA   - Mulliken gross atomic charge
  VA   - Mayer's total valence
  BVA  - Mayer's bonded valence
  FA   - Mayer's free valence

  ATOM       NA         ZA         QA         VA         BVA        FA
  0 C      6.0915     6.0000    -0.0915     3.9362     3.9362    -0.0000
  1 C      6.0997     6.0000    -0.0997     3.9298     3.9298    -0.0000
  2 C      6.1258     6.0000    -0.1258     3.9358     3.9358    -0.0000
  3 H      0.9116     1.0000     0.0884     0.9579     0.9579    -0.0000
  4 H      0.9170     1.0000     0.0830     0.9605     0.9605    -0.0000
  5 C      6.0894     6.0000    -0.0894     3.9284     3.9284     0.0000
  6 C      6.2524     6.0000    -0.2524     3.8629     3.8629    -0.0000
  7 H      0.9106     1.0000     0.0894     0.9578     0.9578     0.0000
  8 C      5.8951     6.0000     0.1049     3.9715     3.9715    -0.0000
  9 H      0.9119     1.0000     0.0881     0.9579     0.9579    -0.0000
 10 C      6.0943     6.0000    -0.0943     3.9350     3.9350     0.0000
 11 H      0.9051     1.0000     0.0949     0.9705     0.9705     0.0000
 12 C      6.0412     6.0000    -0.0412     3.8471     3.8471    -0.0000
 13 H      0.8787     1.0000     0.1213     0.9577     0.9577     0.0000
 14 H      0.8846     1.0000     0.1154     0.9543     0.9543    -0.0000
 15 C      5.5081     6.0000     0.4919     3.9194     3.9194     0.0000
 16 H      0.6800     1.0000     0.3200     0.9160     0.9160     0.0000
 17 N      7.5465     7.0000    -0.5465     2.9157     2.9157     0.0000
 18 O      8.4613     8.0000    -0.4613     2.0279     2.0279     0.0000
 19 H      0.7553     1.0000     0.2447     0.9175     0.9175     0.0000
 20 O      8.4230     8.0000    -0.4230     2.1097     2.1097     0.0000
 21 H      0.8646     1.0000     0.1354     0.9520     0.9520    -0.0000
 22 H      0.7525     1.0000     0.2475     0.9316     0.9316     0.0000

  Mayer bond orders larger than 0.100000
B(  0-C ,  1-C ) :   1.4339 B(  0-C ,  9-H ) :   0.9396 B(  0-C , 10-C ) :   1.4424 
B(  1-C ,  5-C ) :   1.4288 B(  1-C ,  7-H ) :   0.9386 B(  2-C ,  4-H ) :   0.9340 
B(  2-C ,  8-C ) :   1.4258 B(  2-C , 10-C ) :   1.4277 B(  3-H , 10-C ) :   0.9382 
B(  5-C ,  8-C ) :   1.4241 B(  5-C , 11-H ) :   0.9284 B(  6-C ,  8-C ) :   0.9962 
B(  6-C , 12-C ) :   0.9471 B(  6-C , 13-H ) :   0.9360 B(  6-C , 14-H ) :   0.9351 
B( 12-C , 15-C ) :   0.8916 B( 12-C , 17-N ) :   1.0544 B( 12-C , 21-H ) :   0.9238 
B( 15-C , 18-O ) :   1.0676 B( 15-C , 20-O ) :   1.9066 B( 16-H , 18-O ) :   0.8518 
B( 17-N , 19-H ) :   0.9073 B( 17-N , 22-H ) :   0.8940 

-------
TIMINGS
-------

Total SCF time: 0 days 0 hours 0 min 5 sec 

Total time                  ....       5.418 sec
Sum of individual times     ....       4.827 sec  ( 89.1%)

SCF preparation             ....       0.033 sec  (  0.6%)
Fock matrix formation       ....       4.728 sec  ( 87.3%)
  Startup                   ....       0.001 sec  (  0.0% of F)
  Split-RI-J                ....       1.952 sec  ( 41.3% of F)
  XC integration            ....       3.286 sec  ( 69.5% of F)
    XC Preparation          ....       0.000 sec  (  0.0% of XC)
    Basis function eval.    ....       1.236 sec  ( 37.6% of XC)
    Density eval.           ....       0.747 sec  ( 22.7% of XC)
    XC-Functional eval.     ....       0.590 sec  ( 18.0% of XC)
    XC-Potential eval.      ....       0.629 sec  ( 19.1% of XC)
Diagonalization             ....       0.000 sec  (  0.0%)
Density matrix formation    ....       0.004 sec  (  0.1%)
Total Energy calculation    ....       0.001 sec  (  0.0%)
Population analysis         ....       0.017 sec  (  0.3%)
Orbital Transformation      ....       0.013 sec  (  0.2%)
Orbital Orthonormalization  ....       0.000 sec  (  0.0%)
DIIS solution               ....       0.005 sec  (  0.1%)
SOSCF solution              ....       0.027 sec  (  0.5%)
Finished LeanSCF after   5.4 sec

Maximum memory used throughout the entire LEANSCF-calculation: 25.3 MB



-------------------------------------------------------------------------------
                          DFT DISPERSION CORRECTION                            
-------------------------------------------------------------------------------
Active option DFTDOPT                   ...         2   
Final C6-coefficient scaling factor     ...     1.250
Final VDW-radii scaling factor          ...     1.100
Damping factor alpha                    ...    20.000
-------------------------   ----------------
Dispersion correction           -0.030450490
-------------------------   ----------------


-------------------------   --------------------
FINAL SINGLE POINT ENERGY      -554.420162168004
-------------------------   --------------------

                                *** OPTIMIZATION RUN DONE ***


------------------------------------------------------------------------------
                              ORCA PROPERTY CALCULATIONS
------------------------------------------------------------------------------

GBWName                                 ... 3.gbw
Number of atoms                         ...     23
Number of basis functions               ...    223
Max core memory                         ...   4096 MB

Electric properties:
Dipole moment                           ... YES
Quadrupole moment                       ...  NO
Static polarizability (Dipole/Dipole)   ...  NO
Static polarizability (Dipole/Quad.)    ...  NO
Static polarizability (Quad./Quad.)     ...  NO
Static polarizability (Velocity)        ...  NO
Static hyperpolarizability              ...  NO

Atomic electric properties:
Dipole moment                           ...  NO
Quadrupole moment                       ...  NO
Static polarizability                   ...  NO

Choice of electric origin               ... Center of mass
Position of electric origin             ...    -6.254248     3.029884     0.641221

General magnetic properties:
Magnetizability                         ...  NO

EPR properties:
g-Tensor (aka g-matrix)                 ...  NO
Zero-Field splitting spin-orbit         ...  NO
Zero-field splitting spin-spin          ...  NO
Hyperfine couplings                     ...  NO (   0 nuclei)
Quadrupole couplings                    ...  NO (   0 nuclei)
Contact density                         ...  NO (   0 nuclei)

NMR properties:
Chemical shifts                         ...  NO (   0 nuclei)
Spin-rotation constants                 ...  NO (   0 nuclei)
Spin-spin couplings                     ...  NO (   0 nuclei,    0 pairs)

Choice of magnetic origin               ... GIAO
Position of magnetic origin             ...     0.000000     0.000000     0.000000

Properties with geometric perturbations:
SCF Hessian                             ...  NO
IR spectrum                             ...  NO
VCD spectrum                            ...  NO
X-ray spectroscopy properties:
SCF XES/XAS/RIXS spectra                ...  NO

SCF SOC stabilization energy            ...  NO
Diagonal Born-Oppenheimer correction    ...  NO

-------------
DIPOLE MOMENT
-------------

Method             : SCF
Type of density    : Electron Density
Multiplicity       :   1
Irrep              :   0
Energy             :  -554.3897116784930859 Eh
Basis              : AO
                                X                 Y                 Z
Electronic contribution:      3.471717179       0.773123067       3.149435469
Nuclear contribution   :     -3.466966451      -0.587410321      -2.669223902
                        -----------------------------------------
Total Dipole Moment    :      0.004750728       0.185712746       0.480211567
                        -----------------------------------------
Magnitude (a.u.)       :      0.514893137
Magnitude (Debye)      :      1.308754346



--------------------
Rotational spectrum 
--------------------
 
Rotational constants in cm-1:             0.077239             0.015476             0.013587 
Rotational constants in MHz :          2315.558666           463.944112           407.315193 

Dipole components along the rotational axes: 
x,y,z [a.u.] :     0.262783     0.406820     0.174807 
x,y,z [Debye]:     0.667941     1.034055     0.444323 

 

Dipole moment calculation done in   0.0 sec 

Maximum memory used throughout the entire PROP-calculation: 14.5 MB

--------------------------------
SUGGESTED CITATIONS FOR THIS RUN
--------------------------------

Below you find a list of papers that are relevant to this ORCA run
We neither can nor want to force you to cite these papers, but we appreciate if you do
You receive ORCA, which is the product of decades of hard work by many enthusiastic individuals, for free
The only thing we kindly ask in return is that you cite our papers,
We deeply appreciate it, if you show your appreciation for ORCA by not just citing the generic ORCA reference.

Please note that relegating all ORCA citations to the supporting information does *not* help us.
SI sections are not indexed - citations you put there will not count into any citation statistics
But we need these citations in order to attract the funding resources that allow us to do what we are doing

Therefore, if you are a happy ORCA user, please consider citing a few of the papers listed below in the main body of your paper

In addition to the list printed below, the program has created the file 3.bibtex that contains the list in bibtex format
You can import this file easily into all common literature databanks and citation aid programs


List of essential papers. We consider these as the minimum necessary citations

  1. Neese, F.
     Software update: the ORCA program system, version 6.0
     WIRES Comput. Molec. Sci. 2025 15(1), e70019
     doi.org/10.1002/wcms.7019

List of papers to cite with high priority. The work reported in these papers was absolutely
necessary for this run to complete.
Our perspective: the developers of density functionals and basis sets usually get cited in chemistry papers
Good! But without the algorithms to do something with them, the functionals or basis sets would not do anything.
Hence, in our opinion, the algorithm design and method developments papers are equally worthy of getting cited

  1. Neese, F.
     An improvement of the resolution of the identity approximation for the formation of the Coulomb matrix
     J. Comp. Chem. 2003 24(14), 1740-1747
     doi.org/10.1002/jcc.10318
  2. Grimme, S.
     Semiempirical GGA-type density functional constructed with a long-range dispersion correction
     J.Comput.Chem. 2006 27(15), 1787-1799
     doi.org/10.1002/jcc.20495
  3. Neese, F.
     The SHARK Integral Generation and Digestion System
     J. Comp. Chem. 2022 44(3), 381
     doi.org/10.1002/jcc.26942

List of suggested additional citations. These are papers that are important in the 'surrounding' of 
of this run, or papers that preceded the highly important papers. If you like your results we are grateful for a citation.

  1. Neese, F.
     The ORCA program system
     WIRES Comput. Molec. Sci. 2012 2(1), 73-78
     doi.org/10.1002/wcms.81
  2. Neese, F.
     Software update: the ORCA program system, version 4.0
     WIRES Comput. Molec. Sci. 2018 8(1), 1-6
     doi.org/10.1002/wcms.1327
  3. Neese, F.; Wennmohs, F.; Becker, U.; Riplinger, C.
     The ORCA quantum chemistry program package
     J. Chem. Phys. 2020 152(22), 224108
     doi.org/10.1063/5.0004608
  4. Neese, F.
     Software update: The ORCA program system—Version 5.0
     WIRES Comput. Molec. Sci. 2022 12(1), e1606
     doi.org/10.1002/wcms.1606

List of optional additional citations

  1. Neese, F.
     Approximate second-order SCF convergence for spin unrestricted wavefunctions
     Chem. Phys. Lett. 2000 325(1-3), 93-98
     doi.org/10.1016/s0009-2614(00)00662-x

Timings for individual modules:

Sum of individual times          ...      114.950 sec (=   1.916 min)
Startup calculation              ...        5.835 sec (=   0.097 min)   5.1 %
SCF iterations                   ...       69.663 sec (=   1.161 min)  60.6 %
Property calculations            ...        0.048 sec (=   0.001 min)   0.0 %
SCF Gradient evaluation          ...       39.384 sec (=   0.656 min)  34.3 %
Geometry relaxation              ...        0.020 sec (=   0.000 min)   0.0 %
                             ****ORCA TERMINATED NORMALLY****
TOTAL RUN TIME: 0 days 0 hours 1 minutes 55 seconds 197 msec
