
                                 *****************
                                 * O   R   C   A *
                                 *****************

                                            #,                                       
                                            ###                                      
                                            ####                                     
                                            #####                                    
                                            ######                                   
                                           ########,                                 
                                     ,,################,,,,,                         
                               ,,#################################,,                 
                          ,,##########################################,,             
                       ,#########################################, ''#####,          
                    ,#############################################,,   '####,        
                  ,##################################################,,,,####,       
                ,###########''''           ''''###############################       
              ,#####''   ,,,,##########,,,,          '''####'''          '####       
            ,##' ,,,,###########################,,,                        '##       
           ' ,,###''''                  '''############,,,                           
         ,,##''                                '''############,,,,        ,,,,,,###''
      ,#''                                            '''#######################'''  
     '                                                          ''''####''''         
             ,#######,   #######,   ,#######,      ##                                
            ,#'     '#,  ##    ##  ,#'     '#,    #''#        ,####,    ,#,          
            ##       ##  ##   ,#'  ##            #'  '#       #'       ,# #          
            ##       ##  #######   ##           ,######,      #####,      #          
            '#,     ,#'  ##    ##  '#,     ,#' ,#      #,     #,   #      #          
             '#######'   ##     ##  '#######'  #'      '#     '####' #    #          



                #########################################################
                #                        -***-                          #
                #          Department of theory and spectroscopy        #
                #                                                       #
                #                      Frank Neese                      #
                #                                                       #
                #     Directorship, Architecture, Infrastructure        #
                #                    SHARK, DRIVERS                     #
                #        Core code/Algorithms in most modules           #
                #                                                       #
                #        Max Planck Institute fuer Kohlenforschung      #
                #                Kaiser Wilhelm Platz 1                 #
                #                 D-45470 Muelheim/Ruhr                 #
                #                      Germany                          #
                #                                                       #
                #                  All rights reserved                  #
                #                        -***-                          #
                #########################################################


                         Program Version 6.1.0  -  RELEASE   -
                                (GIT: $679e74b$)
                          ($2025-06-10 18:02:51 +0200$)


 With contributions from (in alphabetic order):
[Max-Planck-Institut fuer Kohlenforschung]                               
  Daniel Aravena         : Magnetic Suceptibility                        
  Michael Atanasov       : Ab Initio Ligand Field Theory (pilot matlab implementation)
  Alexander A. Auer      : GIAO ZORA, VPT2 properties, NMR spectrum      
  Ute Becker             : All parallelization in ORCA, NUMFREQ, NUMCALC 
  Giovanni Bistoni       : ED, misc. LED, open-shell LED, HFLD           
  Dmytro Bykov           : pre 5.0 version of the SCF Hessian            
  Marcos Casanova-Páez   : Triplet and SCS-CIS(D). UHF-(DLPNO)-IP/EA/STEOM-CCSD. UHF-CVS-IP/STEOM-CCSD   
  Vijay G. Chilkuri      : MRCI spin determinant printing, contributions to CSF-ICE 
  Pauline Colinet        : FMM embedding                                 
  Dipayan Datta          : RHF DLPNO-CCSD density                        
  Achintya Kumar Dutta   : EOM-CC, STEOM-CC                              
  Nicolas Foglia         : Exact transition moments, OPA infrastructure, MCD improvements    
  Dmitry Ganyushin       : Spin-Orbit,Spin-Spin,Magnetic field MRCI      
  Miquel Garcia-Rates    : C-PCM and meta-GGA Hessian, CCSD/C-PCM, Gaussian charge scheme 
  Tiago L. C. Gouveia    : GS-ROHF, GS-ROCIS                             
  Yang Guo               : DLPNO-NEVPT2, F12-NEVPT2, CIM, IAO-localization        
  Andreas Hansen         : Spin unrestricted coupled pair/coupled cluster methods 
  Ingolf Harden          : AUTO-CI MPn and infrastructure                
  Benjamin Helmich-Paris : MC-RPA, TRAH-(SCF,CASSCF), AVAS, COSX integrals, SCF dyn. polar., MC-PDFT, srDFT 
  Lee Huntington         : MR-EOM, pCC                                   
  Robert Izsak           : Overlap fitted RIJCOSX, COSX-SCS-MP3, EOM     
  Riya Kayal             : Wick's Theorem for AUTO-CI, AUTO-CI UHF-CCSDT 
  Emily Kempfer          : AUTO-CI RHF CISDT and CCSDT, approximate NEVPT4
  Christian Kollmar      : KDIIS, OOCD, Brueckner-CCSD(T), CCSD density, CASPT2, CASPT2-K, improved NEVPT2 
  Axel Koslowski         : Symmetry handling                             
  Simone Kossmann        : meta-GGA functionals, TD-DFT gradient, OOMP2, (MP2 Hessian; deprecated post 5.0) 
  Lucas Lang             : DCDCAS, Hyperfine gauge corrections, ICE-SOC+SSC
  Marvin Lechner         : AUTO-CI (C++ implementation), FIC-MRCC        
  Spencer Leger          : CASSCF response                               
  Dagmar Lenk            : GEPOL surface, SMD, ORCA-2-JSON               
  Dimitrios Liakos       : Extrapolation schemes; Compound Job, Property file
  Dimitrios Manganas     : Further ROCIS development; embedding schemes. LFT, Crystal Embedding 
  Dimitrios Pantazis     : SARC Basis sets                               
  Anastasios Papadopoulos: AUTO-CI, single reference methods and gradients 
  Taras Petrenko         : pre 6.0 DFT Hessian and TD-DFT gradient,  ECA, NRVS 
  Petra Pikulova         : Analytic Raman intensities                    
  Peter Pinski           : DLPNO-MP2, DLPNO-MP2 Gradient                 
  Shashank Vittal Rao    : ES-AILFT, MagRelax                            
  Christoph Reimann      : Effective Core Potentials                     
  Marius Retegan         : Local ZFS, SOC                                
  Christoph Riplinger    : Optimizer, TS searches, QM/MM, DLPNO-CCSD(T), (RO)-DLPNO pert. Triples 
  Michael Roemelt        : Original ROCIS implementation, recursive CI coupling coefficients
  Masaaki Saitow         : Open-shell DLPNO-CCSD energy and density      
  Barbara Sandhoefer     : DKH picture change effects                    
  Yorick L. A. Schmerwitz: GMF and freeze-and-release deltaSCF, NEB S-IDPP initial path                    
  Kantharuban Sivalingam : CASSCF convergence/infrastructure, NEVPT2, NEVPT3, NEVPT4(SD), FIC-MRCI and CEPA variants
  Bernardo de Souza      : ESD, SOC TD-DFT                               
  Georgi L. Stoychev     : AutoAux, RI-MP2 NMR, DLPNO-MP2 response, X2C  
  Van Anh Tran           : RI-MP2 g-tensors                              
  Willem Van den Heuvel  : Paramagnetic NMR                              
  Zikuan Wang            : NOTCH, Electric field optimization            
  Frank Wennmohs         : Technical directorship and infrastructure     
  Hang Xu                : AUTO-CI-Response properties                   
                                                                         
[FACCTs GmbH]                                                            
  Markus Bursch, Nicolas Foglia, Miquel Garcia-Rates, Ingolf Harden, Hagen Neugebauer, Anastasios Papadopoulos, 
  Christoph Riplinger, Bernardo de Souza, Georgi L. Stoychev                                                    
                                                                 
  APM, various basis sets, CI-OPT, improved COSX, DLPNO-Multilevel,           
  DOCKER, DRACO, updates on ESD, Fragmentator, GOAT, IRC, LR-CPCM, L-BFGS, MBIS, meta-GGA TD-DFT gradient, ML-optimized integration grids, 
  MM, NACMEs, nearIR, NEB, NEB-TS, NL-DFT gradient (VV10), 2- and 3-layer-ONIOM, interface openCOSMO-RS, QMMM,   
  Crystal-QMMM, RESP, rigid body optimization, SF, symmetry and pop. for TD-DFT, various functionals, SOLVATOR                                   
                                                                         
[Other institutions]                                                     
  V. Asgeirsson          : NEB                                           
  Christoph Bannwarth    : sTDA-DFT, sTD-DFT, PBEh-3c, B97-3c, D3        
  Giovanni Bistoni       : ETS/NOCV, ADLD/ADEX, COVALED                  
  Martin Brehm           : Molecular dynamics                            
  Ronald Cardenas        : ETS/NOCV                                      
  Martina Colucci        : COVALED                                       
  Sebastian Ehlert       : rSCAN, r2SCAN, r2SCAN-3c, D4, dhf basis sets  
  Marvin Friede          : D4 for Fr, Ra, Ac-Lr                          
  Lars Goerigk           : TD-DFT with DH, B97 family of functionals     
  Stefan Grimme          : VdW corrections, initial TS optimization, DFT functionals, gCP, sTDA/sTD-DF 
  Waldemar Hujo          : DFT-NL                                        
  H. Jonsson             : NEB                                           
  Holger Kruse           : gCP                                           
  Marcel Mueller         : wB97X-3c, vDZP basis set                      
  Hagen Neugebauer       : wr2SCAN, Native XTB                           
  Gianluca Regni         : ADLD/ADEX                                     
  Tobias Risthaus        : pre 6.0 range-separated hybrid DFT and stability analysis
  Lukas Wittmann         : regularized MP2, r2SCAN double-hybrids, wr2SCAN        
                                                                         
We gratefully acknowledge several colleagues who have allowed us to      
interface, adapt or use parts of their codes:                            
  Ed Valeev, F. Pavosevic, A. Kumar             : LibInt (2-el integral package), F12 methods 
  Garnet Chan, S. Sharma, J. Yang, R. Olivares  : DMRG                   
  Ulf Ekstrom                                   : XCFun DFT Library      
  Mihaly Kallay                                 : mrcc  (arbitrary order and MRCC methods)
  Frank Weinhold                                : gennbo (NPA and NBO analysis)           
  Simon Mueller                                 : openCOSMO-RS                            
  Christopher J. Cramer and Donald G. Truhlar   : smd solvation model                     
  S Lehtola, MJT Oliveira, MAL Marques          : LibXC Library                           
  Liviu Ungur et al                             : ANISO software                          


 Your calculation uses the libint2 library for the computation of 2-el integrals
 For citations please refer to: http://libint.valeyev.net

 Your ORCA version has been built with support for libXC version: 7.0.0
 For citations please refer to: https://libxc.gitlab.io

 This ORCA versions uses:
   CBLAS   interface :  Fast vector & matrix operations
   LAPACKE interface :  Fast linear algebra routines
   SCALAPACK package :  Parallel linear algebra routines
   Shared memory     :  Shared parallel matrices
   BLAS/LAPACK       :  OpenBLAS 0.3.29  USE64BITINT DYNAMIC_ARCH NO_AFFINITY Haswell SINGLE_THREADED
        Core in use  :  Haswell
   Copyright (c) 2011-2014, The OpenBLAS Project


  ***********************************
  * Starting time: Sat Aug 30 15:16:18 2025
  * Host name:     chemlab03
  * Process ID:    77603
  * Working dir.:  /home/vivek/mm-project/vivek/xtb-goat/B97-D-opt/d/2
  ***********************************



***************************************
The coordinates will be read from file: /home/vivek/mm-project/vivek/xtb-goat/xtb-goat/d/D_CONF/2.xyz
***************************************


Your calculation utilizes empirical dispersion correction


Warning: RI is on but no J-basis has been assigned. Assigning Def2/J (nothing to worry about!)
================================================================================

----- Orbital basis set information -----
Your calculation utilizes the basis: 6-31G**
   H-He, Li-Ne : W. J. Hehre, R. Ditchfield and J.A. Pople, J. Chem. Phys. 56, 2257 (1972).
                 Note: He and Ne are unpublished basis sets taken from the Gaussian program.
                 Note: Li and B from J. D. Dill and J. A. Pople, J. Chem. Phys. 62, 2921 (1975).
   Na - Ar     : M. M. Francl, W. J. Pietro, W. J. Hehre, J. S. Binkley, M. S. Gordon, 
                 D. J. DeFrees and J. A. Pople, J. Chem. Phys. 77, 3654 (1982).
   K - Zn      : V. A. Rassolov, J. A. Pople, M. A. Ratner, and T. L. Windus, J. Chem. Phys. 109, 1223 (1998).

----- AuxJ basis set information -----
Your calculation utilizes the auxiliary basis: def2/J
   H-Rn: F. Weigend, Phys. Chem. Chem. Phys. 8, 1057 (2006).
   Fr-Lr: K. Eichkorn, F. Weigend, O. Treutler, R. Ahlrichs; Theor. Chem. Acc. 97, 119 (1997).

================================================================================
                                        WARNINGS
                       Please study these warnings very carefully!
================================================================================


WARNING: Geometry Optimization
  ===> : Switching off AutoStart
         For restart on a previous wavefunction, please use MOREAD

INFO   : The exchange functional is Grimme's B97(-D)
         As described in S. Grimme, J. Comput. Chem. 27, 1787 (2006).
         Note that this functional defaults to a pure GGA. 

INFO   : The correlation functional is Grimme's B97(-D)
         As described in S. Grimme, J. Comput. Chem. 27, 1787 (2006).

================================================================================
                                       INPUT FILE
================================================================================
NAME = 2.inp
|  1> ! B97-D 6-31G** opt
|  2> 
|  3> * xyzfile 0 1 /home/vivek/mm-project/vivek/xtb-goat/xtb-goat/d/D_CONF/2.xyz
|  4> 
|  5>                          ****END OF INPUT****
================================================================================

                       *****************************
                       * Geometry Optimization Run *
                       *****************************

Geometry optimization settings:
Update method            Update   .... BFGS
Choice of coordinates    CoordSys .... (2022) Redundant Internals
Initial Hessian          InHess   .... Almloef's Model
Max. no of cycles        MaxIter  .... 50

Convergence Tolerances:
Energy Change            TolE     ....  5.0000e-06 Eh
Max. Gradient            TolMAXG  ....  3.0000e-04 Eh/bohr
RMS Gradient             TolRMSG  ....  1.0000e-04 Eh/bohr
Max. Displacement        TolMAXD  ....  4.0000e-03 bohr
RMS Displacement         TolRMSD  ....  2.0000e-03 bohr
Strict Convergence                .... False

------------------------------------------------------------------------------
                        ORCA OPTIMIZATION COORDINATE SETUP
------------------------------------------------------------------------------

The optimization will be done in redundant internal coordinates (2022)
Making redundant internal coordinates   ...  (2022 redundants) done
Evaluating the initial hessian          ...  (Almloef) done
Evaluating the coordinates              ...  done
Calculating the B-matrix                .... done
Calculating the G-matrix                .... done
The number of degrees of freedom        ....   64

    -----------------------------------------------------------------
                    Redundant Internal Coordinates


    -----------------------------------------------------------------
         Definition                    Initial Value    Approx d2E/dq
    -----------------------------------------------------------------
      1. B(C   1,C   0)                  1.5116         0.399673   
      2. B(O   4,C   0)                  1.3365         0.681171   
      3. B(C   5,C   1)                  1.5455         0.352932   
      4. B(H   6,C   1)                  1.0890         0.361423   
      5. B(H   7,C   1)                  1.0887         0.361823   
      6. B(C   8,C   5)                  1.5322         0.370620   
      7. B(C   8,O   2)                  1.2021         1.115878   
      8. B(O   9,C   0)                  1.2008         1.121252   
      9. B(N  10,C   5)                  1.4445         0.458117   
     10. B(O  11,C   8)                  1.3306         0.696073   
     11. B(O  11,H   3)                  0.9710         0.499412   
     12. B(H  12,N  10)                  1.0144         0.425790   
     13. B(H  13,O   4)                  0.9708         0.499795   
     14. B(H  14,C   5)                  1.0960         0.352253   
     15. B(H  15,N  10)                  1.0155         0.424044   
     16. B(H  15,O   4)                  2.3204         0.010000   
     17. A(C   1,C   0,O   9)          125.0108         0.443318   
     18. A(C   1,C   0,O   4)          112.3168         0.405522   
     19. A(O   4,C   0,O   9)          122.6511         0.485473   
     20. A(C   5,C   1,H   7)          109.8540         0.321562   
     21. A(C   0,C   1,H   6)          110.0237         0.328141   
     22. A(H   6,C   1,H   7)          111.0245         0.291225   
     23. A(C   5,C   1,H   6)          107.9636         0.321504   
     24. A(C   0,C   1,C   5)          109.4968         0.364016   
     25. A(C   0,C   1,H   7)          108.4674         0.328201   
     26. A(C   0,O   4,H  13)          110.6816         0.373608   
     27. A(C   8,C   5,N  10)          113.4686         0.373441   
     28. A(C   1,C   5,N  10)          110.1203         0.370310   
     29. A(N  10,C   5,H  14)          108.6021         0.332196   
     30. A(C   8,C   5,H  14)          108.2103         0.322728   
     31. A(C   1,C   5,H  14)          108.7537         0.320155   
     32. A(C   1,C   5,C   8)          107.5788         0.359358   
     33. A(C   5,C   8,O  11)          112.1872         0.401689   
     34. A(O   2,C   8,O  11)          123.8027         0.486987   
     35. A(O   2,C   8,C   5)          124.0097         0.436939   
     36. A(H  12,N  10,H  15)          107.3734         0.301502   
     37. A(C   5,N  10,H  15)          109.9563         0.339667   
     38. A(C   5,N  10,H  12)          110.3583         0.339901   
     39. A(H   3,O  11,C   8)          110.9884         0.374956   
     40. D(H   6,C   1,C   0,O   9)   -140.4028         0.011856   
     41. D(C   5,C   1,C   0,O   9)    101.0910         0.011856   
     42. D(H   6,C   1,C   0,O   4)     41.2404         0.011856   
     43. D(C   5,C   1,C   0,O   4)    -77.2657         0.011856   
     44. D(H   7,C   1,C   0,O   4)    162.8609         0.011856   
     45. D(H  13,O   4,C   0,O   9)     -1.4283         0.038192   
     46. D(H  13,O   4,C   0,C   1)    176.9733         0.038192   
     47. D(N  10,C   5,C   1,H   7)   -160.3247         0.010023   
     48. D(N  10,C   5,C   1,H   6)    -39.1227         0.010023   
     49. D(N  10,C   5,C   1,C   0)     80.6553         0.010023   
     50. D(C   8,C   5,C   1,H   7)     75.5524         0.010023   
     51. D(C   8,C   5,C   1,H   6)   -163.2456         0.010023   
     52. D(C   8,C   5,C   1,C   0)    -43.4676         0.010023   
     53. D(O   2,C   8,C   5,N  10)    -14.4205         0.010284   
     54. D(O   2,C   8,C   5,C   1)    107.6479         0.010284   
     55. D(O  11,C   8,C   5,N  10)    165.8033         0.010284   
     56. D(O  11,C   8,C   5,C   1)    -72.1282         0.010284   
     57. D(O   2,C   8,C   5,H  14)   -135.0129         0.010284   
     58. D(H  15,N  10,C   5,C   1)    -55.4854         0.017913   
     59. D(H  12,N  10,C   5,H  14)     67.2633         0.017913   
     60. D(H  12,N  10,C   5,C   8)    -53.1076         0.017913   
     61. D(H  15,N  10,C   5,C   8)     65.1590         0.017913   
     62. D(H  12,N  10,C   5,C   1)   -173.7520         0.017913   
     63. D(H   3,O  11,C   8,C   5)    175.5775         0.036245   
     64. D(H   3,O  11,C   8,O   2)     -4.1992         0.036245   
    -----------------------------------------------------------------

Number of atoms                         .... 16
Number of degrees of freedom            .... 64


         *************************************************************
         *                GEOMETRY OPTIMIZATION CYCLE   1            *
         *************************************************************
---------------------------------
CARTESIAN COORDINATES (ANGSTROEM)
---------------------------------
  C     -4.616533    1.529451    1.091050
  C     -4.081568    1.314763   -0.306345
  O     -2.463879    3.839298    1.176732
  H     -3.939305    5.102410   -0.146227
  O     -3.960302    0.805073    2.002548
  C     -2.763490    2.102632   -0.480758
  H     -3.865420    0.259255   -0.464798
  H     -4.823300    1.672741   -1.018352
  C     -2.966148    3.487415    0.142802
  O     -5.506746    2.281804    1.379923
  N     -1.664067    1.366239    0.098447
  O     -3.767395    4.256217   -0.590291
  H     -0.816588    1.923329    0.078149
  H     -4.290711    0.996300    2.895098
  H     -2.570619    2.234100   -1.551611
  H     -1.863739    1.153295    1.071092

----------------------------
CARTESIAN COORDINATES (A.U.)
----------------------------
  NO LB      ZA    FRAG     MASS         X           Y           Z
   0 C     6.0000    0    12.011   -8.723982    2.890243    2.061785
   1 C     6.0000    0    12.011   -7.713046    2.484543   -0.578907
   2 O     8.0000    0    15.999   -4.656057    7.255221    2.223701
   3 H     1.0000    0     1.008   -7.444207    9.642158   -0.276328
   4 O     8.0000    0    15.999   -7.483886    1.521367    3.784267
   5 C     6.0000    0    12.011   -5.222240    3.973399   -0.908500
   6 H     1.0000    0     1.008   -7.304585    0.489921   -0.878341
   7 H     1.0000    0     1.008   -9.114716    3.161023   -1.924406
   8 C     6.0000    0    12.011   -5.605207    6.590259    0.269856
   9 O     8.0000    0    15.999  -10.406243    4.311985    2.607677
  10 N     7.0000    0    14.007   -3.144630    2.581818    0.186038
  11 O     8.0000    0    15.999   -7.119345    8.043084   -1.115489
  12 H     1.0000    0     1.008   -1.543127    3.634565    0.147680
  13 H     1.0000    0     1.008   -8.108269    1.882735    5.470942
  14 H     1.0000    0     1.008   -4.857766    4.221838   -2.932120
  15 H     1.0000    0     1.008   -3.521956    2.179411    2.024070

--------------------------------
INTERNAL COORDINATES (ANGSTROEM)
--------------------------------
 C      0   0   0     0.000000000000     0.00000000     0.00000000
 C      1   0   0     1.511618083182     0.00000000     0.00000000
 O      1   2   0     3.158583570940    83.55471639     0.00000000
 H      3   1   2     2.350011094154    87.12858880    76.74725280
 O      1   2   3     1.336484480848   112.31683286   269.96273067
 C      2   1   3     1.545472883282   109.49675442    12.77152511
 H      2   1   3     1.089001969674   110.02368949   131.27771457
 H      2   1   3     1.088700643578   108.46744688   252.89816774
 C      3   1   2     1.202125917945    58.52372564    28.12280649
 O      1   2   3     1.200817998495   125.01081299    88.31951555
 N      6   2   1     1.444467200280   110.12031021    80.65534644
 O      4   3   1     0.970973620322    71.20922510   305.21250846
 H     11   6   2     1.014387070178   110.35827267   186.24795102
 H      5   1   2     0.970764815111   110.68156342   176.97326803
 H      6   2   1     1.095997142765   108.75372526   199.54728028
 H     11   6   2     1.015505913196   109.95634186   304.51461139

---------------------------
INTERNAL COORDINATES (A.U.)
---------------------------
 C      0   0   0     0.000000000000     0.00000000     0.00000000
 C      1   0   0     2.856544196297     0.00000000     0.00000000
 O      1   2   0     5.968857920180    83.55471639     0.00000000
 H      3   1   2     4.440877379628    87.12858880    76.74725280
 O      1   2   3     2.525589651039   112.31683286   269.96273067
 C      2   1   3     2.920520496805   109.49675442    12.77152511
 H      2   1   3     2.057915481985   110.02368949   131.27771457
 H      2   1   3     2.057346058185   108.46744688   252.89816774
 C      3   1   2     2.271688763405    58.52372564    28.12280649
 O      1   2   3     2.269217153839   125.01081299    88.31951555
 N      6   2   1     2.729647417961   110.12031021    80.65534644
 O      4   3   1     1.834874225670    71.20922510   305.21250846
 H     11   6   2     1.916913756427   110.35827267   186.24795102
 H      5   1   2     1.834479641006   110.68156342   176.97326803
 H      6   2   1     2.071134443386   108.75372526   199.54728028
 H     11   6   2     1.919028063319   109.95634186   304.51461139

---------------------
BASIS SET INFORMATION
---------------------
There are 4 groups of distinct atoms

 Group   1 Type C   : 10s4p1d contracted to 3s2p1d pattern {631/31/1}
 Group   2 Type O   : 10s4p1d contracted to 3s2p1d pattern {631/31/1}
 Group   3 Type H   : 4s1p contracted to 2s1p pattern {31/1}
 Group   4 Type N   : 10s4p1d contracted to 3s2p1d pattern {631/31/1}

Atom   0C    basis set group =>   1
Atom   1C    basis set group =>   1
Atom   2O    basis set group =>   2
Atom   3H    basis set group =>   3
Atom   4O    basis set group =>   2
Atom   5C    basis set group =>   1
Atom   6H    basis set group =>   3
Atom   7H    basis set group =>   3
Atom   8C    basis set group =>   1
Atom   9O    basis set group =>   2
Atom  10N    basis set group =>   4
Atom  11O    basis set group =>   2
Atom  12H    basis set group =>   3
Atom  13H    basis set group =>   3
Atom  14H    basis set group =>   3
Atom  15H    basis set group =>   3
---------------------------------
AUXILIARY/J BASIS SET INFORMATION
---------------------------------
There are 4 groups of distinct atoms

 Group   1 Type C   : 12s5p4d2f1g contracted to 6s4p3d1f1g pattern {711111/2111/211/2/1}
 Group   2 Type O   : 12s5p4d2f1g contracted to 6s4p3d1f1g pattern {711111/2111/211/2/1}
 Group   3 Type H   : 5s2p1d contracted to 3s1p1d pattern {311/2/1}
 Group   4 Type N   : 12s5p4d2f1g contracted to 6s4p3d1f1g pattern {711111/2111/211/2/1}

Atom   0C    basis set group =>   1
Atom   1C    basis set group =>   1
Atom   2O    basis set group =>   2
Atom   3H    basis set group =>   3
Atom   4O    basis set group =>   2
Atom   5C    basis set group =>   1
Atom   6H    basis set group =>   3
Atom   7H    basis set group =>   3
Atom   8C    basis set group =>   1
Atom   9O    basis set group =>   2
Atom  10N    basis set group =>   4
Atom  11O    basis set group =>   2
Atom  12H    basis set group =>   3
Atom  13H    basis set group =>   3
Atom  14H    basis set group =>   3
Atom  15H    basis set group =>   3
------------------------------------------------------------------------------
                             ORCA STARTUP CALCULATIONS
                           -- RI-GTO INTEGRALS CHOSEN --
------------------------------------------------------------------------------
------------------------------------------------------------------------------
                   ___                                                        
                  /   \      - P O W E R E D   B Y -                         
                 /     \                                                     
                 |  |  |   _    _      __       _____    __    __             
                 |  |  |  | |  | |    /  \     |  _  \  |  |  /  |          
                  \  \/   | |  | |   /    \    | | | |  |  | /  /          
                 / \  \   | |__| |  /  /\  \   | |_| |  |  |/  /          
                |  |  |   |  __  | /  /__\  \  |    /   |      \           
                |  |  |   | |  | | |   __   |  |    \   |  |\   \          
                \     /   | |  | | |  |  |  |  | |\  \  |  | \   \       
                 \___/    |_|  |_| |__|  |__|  |_| \__\ |__|  \__/        
                                                                              
                      - O R C A' S   B I G   F R I E N D -                    
                                      &                                       
                       - I N T E G R A L  F E E D E R -                       
                                                                              
 v1 FN, 2020, v2 2021, v3 2022-2024                                           
------------------------------------------------------------------------------


----------------------
SHARK INTEGRAL PACKAGE
----------------------

Number of atoms                             ...     16
Number of basis functions                   ...    161
Number of shells                            ...     75
Maximum angular momentum                    ...      2
Integral batch strategy                     ... SHARK/LIBINT Hybrid
RI-J (if used) integral strategy            ... SPLIT-RIJ (Revised 2003 algorithm where possible)
Printlevel                                  ...      1
Contraction scheme used                     ... SEGMENTED contraction
Prescreening option                         ... SCHWARTZ
   Thresh                                   ... 2.500e-11
   Tcut                                     ... 2.500e-12
   Tpresel                                  ... 2.500e-12 
Coulomb Range Separation                    ... NOT USED
Exchange Range Separation                   ... NOT USED
Multipole approximations                    ... NOT USED
Finite Nucleus Model                        ... NOT USED
CABS basis                                  ... NOT available
Auxiliary Coulomb fitting basis             ... AVAILABLE
   # of basis functions in Aux-J            ...    518
   # of shells in Aux-J                     ...    170
   Maximum angular momentum in Aux-J        ...      4
Auxiliary J/K fitting basis                 ... NOT available
Auxiliary Correlation fitting basis         ... NOT available
Auxiliary 'external' fitting basis          ... NOT available

Checking pre-screening integrals            ... done (  0.0 sec) Dimension = 75
   => SHARK Basis and OBASIS are compatible. Storing Pre-screening
Shell pair information
Shell pair cut-off parameter TPreSel        ...   2.5e-12
Total number of shell pairs                 ...      2850
Shell pairs after pre-screening             ...      2670
Total number of primitive shell pairs       ...     14745
Primitive shell pairs kept                  ...      9122
          la=0 lb=0:    785 shell pairs
          la=1 lb=0:    952 shell pairs
          la=1 lb=1:    308 shell pairs
          la=2 lb=0:    358 shell pairs
          la=2 lb=1:    222 shell pairs
          la=2 lb=2:     45 shell pairs

Checking whether 4 symmetric matrices of dimension 161 fit in memory
:Max Core in MB      =   4096.00
 MB in use           =      7.08
 MB left             =   4088.92
 MB needed           =      0.40
 Data fit in memory  = YES
Calculating RI/J V-Matrix + Cholesky decomp.... done (  0.0 sec)
Calculating Nuclear repulsion               ... done (  0.0 sec) ENN=    488.106207080415 Eh

Diagonalization of the overlap matrix:
Smallest eigenvalue                        ... 2.808e-03
Time for diagonalization                   ...    0.001 sec
Threshold for overlap eigenvalues          ... 1.000e-07
Number of eigenvalues below threshold      ... 0
Time for construction of square roots      ...    0.000 sec
Total time needed                          ...    0.002 sec

-------------------
DFT GRID GENERATION
-------------------

General Integration Accuracy     IntAcc      ... 4.388
Radial Grid Type                 RadialGrid  ... OptM3 with GC (2021)
Angular Grid (max. ang.)         AngularGrid ... 4 (Lebedev-302)
Angular grid pruning method      GridPruning ... 4 (adaptive)
Weight generation scheme         WeightScheme... mBecke (2022)
Basis function cutoff            BFCut       ... 1.0000e-11
Integration weight cutoff        WCut        ... 1.0000e-14
Partially contracted basis set               ... off
Rotationally invariant grid construction     ... off
Angular grids for H and He will be reduced by one unit

Total number of grid points                  ...    76876
Total number of batches                      ...     1211
Average number of points per batch           ...       63
Average number of grid points per atom       ...     4805
Grids setup in   0.3 sec
Initializing property integral containers    ... done (  0.0 sec)

SHARK setup successfully completed in   0.4 seconds

Maximum memory used throughout the entire STARTUP-calculation: 32.5 MB
-------------------------------------------------------------------------------
                                 ORCA GUESS
                   Start orbitals & Density for SCF / CASSCF
-------------------------------------------------------------------------------

------------
SCF SETTINGS
------------
Hamiltonian:
 Density Functional     Method          .... DFT(GTOs)
 Exchange Functional    Exchange        .... B97(D)
 Correlation Functional Correlation     .... B97(D)
 Gradients option       PostSCFGGA      .... off
 RI-approximation to the Coulomb term is turned on
   Number of AuxJ basis functions       .... 518


General Settings:
 Integral files         IntName         .... 2
 Hartree-Fock type      HFTyp           .... RHF
 Total Charge           Charge          ....    0
 Multiplicity           Mult            ....    1
 Number of Electrons    NEL             ....   70
 Basis Dimension        Dim             ....  161
 Nuclear Repulsion      ENuc            ....    488.1062070804 Eh

Convergence Acceleration:
 AO-DIIS                CNVDIIS         .... on
   Start iteration      DIISMaxIt       ....    12
   Startup error        DIISStart       ....  0.200000
   # of expansion vecs  DIISMaxEq       ....     5
   Bias factor          DIISBfac        ....   1.050
   Max. coefficient     DIISMaxC        ....  10.000
 MO-DIIS                CNVKDIIS        .... off
 Trust-Rad. Augm. Hess. CNVTRAH         .... auto
   Auto Start mean grad. ratio tolernc. ....  1.125000
   Auto Start start iteration           ....    50
   Auto Start num. interpolation iter.  ....    10
   Max. Number of Micro iterations      ....    24
   Max. Number of Macro iterations      .... Maxiter - #DIIS iter
   Number of Davidson start vectors     ....     2
   Converg. threshold    (grad. norm)   ....   1.000e-05
   Grad. Scal. Fac. for Micro threshold ....   0.100
   Minimum threshold for Micro iter.    ....   1.000e-02
   NR start threshold (gradient norm)   ....   1.000e-04
   Initial trust radius                 ....   0.400
   Minimum AH scaling param. (alpha)    ....   1.000
   Maximum AH scaling param. (alpha)    .... 1000.000
   Quad. conv. algorithm                .... NR
   White noise on init. David. guess    .... on
   Maximum white noise                  ....   0.010
   Pseudo random numbers                .... off
   Inactive MOs                         .... canonical
   Orbital update algorithm             .... Taylor
   Preconditioner                       .... Diag
   Full preconditioner red. dimension   ....   250
 SOSCF                 CNVSOSCF           .... on
   Start iteration     SOSCFMaxIt         ....   150
   Startup grad/error  SOSCFStart         ....  0.003300
   Hessian update      SOSCFHessUp        .... L-BFGS
   Autom. constraints  SOSCFAutoConstrain .... off
 Level Shifting         CNVShift        .... on
   Level shift para.    LevelShift      ....    0.2500
   Turn off err/grad.   ShiftErr        ....    0.0010
 Zerner damping         CNVZerner       .... off
 Static damping         CNVDamp         .... on
   Fraction old density DampFac         ....    0.7000
   Max. Damping (<1)    DampMax         ....    0.9800
   Min. Damping (>=0)   DampMin         ....    0.0000
   Turn off err/grad.   DampErr         ....    0.1000

SCF Procedure:
 Maximum # iterations   MaxIter         ....   125
 SCF integral mode      SCFMode         .... Direct
   Integral package                     .... SHARK and LIBINT hybrid scheme
 Reset frequency        DirectResetFreq ....    20
 Integral Threshold     Thresh          ....  2.500e-11 Eh
 Primitive CutOff       TCut            ....  2.500e-12 Eh

Convergence Tolerance:
 Convergence Check Mode ConvCheckMode   .... Total+1el-Energy
 Convergence forced     ConvForced      .... 0
 Energy Change          TolE            ....  1.000e-08 Eh
 1-El. energy change                    ....  1.000e-05 Eh
 Orbital Gradient       TolG            ....  1.000e-05
 Orbital Rotation angle TolX            ....  1.000e-05
 DIIS Error             TolErr          ....  5.000e-07

------------------------------
INITIAL GUESS: MODEL POTENTIAL
------------------------------
Loading Hartree-Fock densities                     ... done
Calculating cut-offs                               ... done
Initializing the effective Hamiltonian             ... done
Setting up the integral package (SHARK)            ... done
Starting the Coulomb interaction                   ... done (   0.0 sec)
Making the grid                                    ... done (   0.1 sec)
Mapping shells                                     ... done
Starting the XC term evaluation                    ... done (   0.1 sec)
  promolecular density results
     # of electrons  =     69.995209796
     EX              =    -61.070504858
     EC              =     -3.177953317
     EX+EC           =    -64.248458175
Transforming the Hamiltonian                       ... done (   0.0 sec)
Diagonalizing the Hamiltonian                      ... done (   0.0 sec)
Back transforming the eigenvectors                 ... done (   0.0 sec)
Now organizing SCF variables                       ... done
                      ------------------
                      INITIAL GUESS DONE (   0.2 sec)
                      ------------------
             **** ENERGY FILE WAS UPDATED (2.en.tmp) ****
Finished Guess after   0.3 sec
Maximum memory used throughout the entire GUESS-calculation: 11.8 MB

-------------------------------------------------------------------------------------------
                                      ORCA LEAN-SCF
                              memory conserving SCF solver
-------------------------------------------------------------------------------------------

----------------------------------------D-I-I-S--------------------------------------------
Iteration    Energy (Eh)           Delta-E    RMSDP     MaxDP     DIISErr   Damp  Time(sec)
-------------------------------------------------------------------------------------------
               ***  Starting incremental Fock matrix formation  ***
    1    -511.6060295318717976     0.00e+00  4.55e-03  1.02e-01  2.57e-01  0.700   0.4
    2    -511.7942370260845451    -1.88e-01  2.65e-03  5.09e-02  9.25e-02  0.700   0.4
                               ***Turning on AO-DIIS***
    3    -511.8464216364250774    -5.22e-02  9.48e-04  1.46e-02  3.08e-02  0.700   0.4
    4    -511.8833391399990091    -3.69e-02  1.26e-03  2.03e-02  1.82e-02  0.000   0.4
    5    -511.9707351381609328    -8.74e-02  4.54e-04  8.13e-03  1.18e-02  0.000   0.4
    6    -511.9716141200771631    -8.79e-04  1.62e-04  2.39e-03  3.40e-03  0.000   0.4
                              *** Initializing SOSCF ***
---------------------------------------S-O-S-C-F--------------------------------------
Iteration    Energy (Eh)           Delta-E    RMSDP     MaxDP     MaxGrad    Time(sec)
--------------------------------------------------------------------------------------
    7    -511.9716814477278035    -6.73e-05  6.05e-05  1.01e-03  1.20e-03     0.4
               *** Restarting incremental Fock matrix formation ***
    8    -511.9716917627134194    -1.03e-05  3.93e-05  8.22e-04  1.31e-04     0.4
    9    -511.9716919567754871    -1.94e-07  1.98e-05  4.11e-04  2.50e-04     0.4
   10    -511.9716924264731119    -4.70e-07  1.98e-05  3.88e-04  1.86e-04     0.3
   11    -511.9716925968872943    -1.70e-07  8.48e-06  1.57e-04  5.27e-05     0.3
   12    -511.9716927610366497    -1.64e-07  6.77e-06  1.24e-04  2.35e-05     0.3
   13    -511.9716927830775717    -2.20e-08  2.29e-06  3.83e-05  1.58e-05     0.3
   14    -511.9716928013039592    -1.82e-08  1.75e-06  2.66e-05  9.44e-06     0.3
   15    -511.9716928033639647    -2.06e-09  7.62e-07  1.50e-05  6.81e-06     0.3
                 **** Energy Check signals convergence ****

               *****************************************************
               *                     SUCCESS                       *
               *           SCF CONVERGED AFTER  15 CYCLES          *
               *****************************************************

             **** ENERGY FILE WAS UPDATED (2.en.tmp) ****

----------------
TOTAL SCF ENERGY
----------------

Total Energy       :       -511.97169280073393 Eh          -13931.45802 eV

Components:
Nuclear Repulsion  :        488.10620708041500 Eh           13282.04514 eV
Electronic Energy  :      -1000.07789988114894 Eh          -27213.50316 eV
One Electron Energy:      -1669.38380346973236 Eh          -45426.24272 eV
Two Electron Energy:        669.30590358858342 Eh           18212.73955 eV

Virial components:
Potential Energy   :      -1021.41581828823860 Eh          -27794.13744 eV
Kinetic Energy     :        509.44412548750466 Eh           13862.67942 eV
Virial Ratio       :          2.00496142204174

DFT components:
N(Alpha)           :       34.999993128213 electrons
N(Beta)            :       34.999993128213 electrons
N(Total)           :       69.999986256426 electrons
E(X)               :      -62.260962719377 Eh       
E(C)               :       -3.164795973240 Eh       
E(XC)              :      -65.425758692618 Eh       

---------------
SCF CONVERGENCE
---------------

  Last Energy change         ...    2.0600e-09  Tolerance :   1.0000e-08
  Last MAX-Density change    ...    1.5032e-05  Tolerance :   1.0000e-07
  Last RMS-Density change    ...    7.6219e-07  Tolerance :   5.0000e-09
  Last DIIS Error            ...    1.2027e-03  Tolerance :   5.0000e-07
  Last Orbital Gradient      ...    6.8057e-06  Tolerance :   1.0000e-05
  Last Orbital Rotation      ...    1.4560e-05  Tolerance :   1.0000e-05


----------------
ORBITAL ENERGIES
----------------

  NO   OCC          E(Eh)            E(eV) 
   0   2.0000     -18.821064      -512.1472 
   1   2.0000     -18.816348      -512.0189 
   2   2.0000     -18.756586      -510.3926 
   3   2.0000     -18.756443      -510.3888 
   4   2.0000     -13.987922      -380.6307 
   5   2.0000     -10.038241      -273.1544 
   6   2.0000     -10.030443      -272.9422 
   7   2.0000      -9.960488      -271.0387 
   8   2.0000      -9.928881      -270.1786 
   9   2.0000      -1.028835       -27.9960 
  10   2.0000      -1.023435       -27.8491 
  11   2.0000      -0.936834       -25.4926 
  12   2.0000      -0.935595       -25.4588 
  13   2.0000      -0.821379       -22.3509 
  14   2.0000      -0.710474       -19.3330 
  15   2.0000      -0.634164       -17.2565 
  16   2.0000      -0.574340       -15.6286 
  17   2.0000      -0.537070       -14.6144 
  18   2.0000      -0.473313       -12.8795 
  19   2.0000      -0.457743       -12.4558 
  20   2.0000      -0.426398       -11.6029 
  21   2.0000      -0.423214       -11.5162 
  22   2.0000      -0.412660       -11.2291 
  23   2.0000      -0.407808       -11.0970 
  24   2.0000      -0.385091       -10.4789 
  25   2.0000      -0.378850       -10.3090 
  26   2.0000      -0.350108        -9.5269 
  27   2.0000      -0.346071        -9.4171 
  28   2.0000      -0.330274        -8.9872 
  29   2.0000      -0.320087        -8.7100 
  30   2.0000      -0.279056        -7.5935 
  31   2.0000      -0.276576        -7.5260 
  32   2.0000      -0.230757        -6.2792 
  33   2.0000      -0.223057        -6.0697 
  34   2.0000      -0.198296        -5.3959 
  35   0.0000      -0.025127        -0.6837 
  36   0.0000      -0.018561        -0.5051 
  37   0.0000       0.045750         1.2449 
  38   0.0000       0.054646         1.4870 
  39   0.0000       0.082143         2.2352 
  40   0.0000       0.110749         3.0136 
  41   0.0000       0.125106         3.4043 
  42   0.0000       0.148579         4.0430 
  43   0.0000       0.155687         4.2364 
  44   0.0000       0.162584         4.4241 
  45   0.0000       0.197293         5.3686 
*Only the first 10 virtual orbitals were printed.

                    ********************************
                    * MULLIKEN POPULATION ANALYSIS *
                    ********************************

-----------------------
MULLIKEN ATOMIC CHARGES
-----------------------
   0 C :    0.489930
   1 C :   -0.239447
   2 O :   -0.419277
   3 H :    0.322805
   4 O :   -0.448014
   5 C :   -0.061177
   6 H :    0.153243
   7 H :    0.151498
   8 C :    0.498250
   9 O :   -0.410135
  10 N :   -0.557372
  11 O :   -0.446371
  12 H :    0.245492
  13 H :    0.323327
  14 H :    0.139601
  15 H :    0.257647
Sum of atomic charges:    0.0000000

--------------------------------
MULLIKEN REDUCED ORBITAL CHARGES
--------------------------------
  0 C s       :     2.990611  s :     2.990611
      pz      :     0.845816  p :     2.392372
      px      :     0.790094
      py      :     0.756463
      dz2     :     0.021465  d :     0.127086
      dxz     :     0.033444
      dyz     :     0.027260
      dx2y2   :     0.025694
      dxy     :     0.019224

  1 C s       :     3.246294  s :     3.246294
      pz      :     0.946463  p :     2.960007
      px      :     0.973998
      py      :     1.039545
      dz2     :     0.008180  d :     0.033146
      dxz     :     0.008635
      dyz     :     0.003493
      dx2y2   :     0.007130
      dxy     :     0.005707

  2 O s       :     3.861394  s :     3.861394
      pz      :     1.368092  p :     4.529581
      px      :     1.478495
      py      :     1.682995
      dz2     :     0.009829  d :     0.028301
      dxz     :     0.007535
      dyz     :     0.006137
      dx2y2   :     0.002172
      dxy     :     0.002627

  3 H s       :     0.639179  s :     0.639179
      pz      :     0.010762  p :     0.038016
      px      :     0.008945
      py      :     0.018309

  4 O s       :     3.821887  s :     3.821887
      pz      :     1.241663  p :     4.603669
      px      :     1.675147
      py      :     1.686859
      dz2     :     0.004160  d :     0.022458
      dxz     :     0.005378
      dyz     :     0.004060
      dx2y2   :     0.004558
      dxy     :     0.004302

  5 C s       :     3.207529  s :     3.207529
      pz      :     1.026831  p :     2.795541
      px      :     0.869575
      py      :     0.899135
      dz2     :     0.013622  d :     0.058107
      dxz     :     0.008927
      dyz     :     0.007482
      dx2y2   :     0.013682
      dxy     :     0.014393

  6 H s       :     0.834975  s :     0.834975
      pz      :     0.002450  p :     0.011782
      px      :     0.002708
      py      :     0.006624

  7 H s       :     0.837092  s :     0.837092
      pz      :     0.004053  p :     0.011409
      px      :     0.004479
      py      :     0.002877

  8 C s       :     2.985112  s :     2.985112
      pz      :     0.767670  p :     2.390778
      px      :     0.762409
      py      :     0.860698
      dz2     :     0.027124  d :     0.125860
      dxz     :     0.025398
      dyz     :     0.037287
      dx2y2   :     0.019100
      dxy     :     0.016951

  9 O s       :     3.861179  s :     3.861179
      pz      :     1.740099  p :     4.520596
      px      :     1.380183
      py      :     1.400314
      dz2     :     0.003094  d :     0.028360
      dxz     :     0.004515
      dyz     :     0.003517
      dx2y2   :     0.010122
      dxy     :     0.007112

 10 N s       :     3.582184  s :     3.582184
      pz      :     1.296415  p :     3.947190
      px      :     1.100207
      py      :     1.550568
      dz2     :     0.011006  d :     0.027998
      dxz     :     0.002238
      dyz     :     0.001922
      dx2y2   :     0.002654
      dxy     :     0.010178

 11 O s       :     3.824075  s :     3.824075
      pz      :     1.646119  p :     4.599447
      px      :     1.622058
      py      :     1.331270
      dz2     :     0.004299  d :     0.022849
      dxz     :     0.005037
      dyz     :     0.007087
      dx2y2   :     0.004462
      dxy     :     0.001964

 12 H s       :     0.730623  s :     0.730623
      pz      :     0.005634  p :     0.023885
      px      :     0.009981
      py      :     0.008270

 13 H s       :     0.638685  s :     0.638685
      pz      :     0.019257  p :     0.037987
      px      :     0.009837
      py      :     0.008894

 14 H s       :     0.849435  s :     0.849435
      pz      :     0.006524  p :     0.010964
      px      :     0.002059
      py      :     0.002381

 15 H s       :     0.717835  s :     0.717835
      pz      :     0.011902  p :     0.024518
      px      :     0.004894
      py      :     0.007722



                     *******************************
                     * LOEWDIN POPULATION ANALYSIS *
                     *******************************

----------------------
LOEWDIN ATOMIC CHARGES
----------------------
   0 C :    0.112422
   1 C :   -0.134371
   2 O :   -0.217665
   3 H :    0.185745
   4 O :   -0.134421
   5 C :   -0.041047
   6 H :    0.096136
   7 H :    0.096841
   8 C :    0.094151
   9 O :   -0.210232
  10 N :   -0.246541
  11 O :   -0.129751
  12 H :    0.128785
  13 H :    0.185264
  14 H :    0.086793
  15 H :    0.127891

-------------------------------
LOEWDIN REDUCED ORBITAL CHARGES
-------------------------------
  0 C s       :     2.847090  s :     2.847090
      pz      :     0.959711  p :     2.739246
      px      :     0.907851
      py      :     0.871684
      dz2     :     0.049495  d :     0.301242
      dxz     :     0.081251
      dyz     :     0.064959
      dx2y2   :     0.054549
      dxy     :     0.050988

  1 C s       :     2.912029  s :     2.912029
      pz      :     1.035948  p :     3.147105
      px      :     1.038648
      py      :     1.072509
      dz2     :     0.020107  d :     0.075237
      dxz     :     0.019721
      dyz     :     0.007160
      dx2y2   :     0.015082
      dxy     :     0.013168

  2 O s       :     3.553706  s :     3.553706
      pz      :     1.448433  p :     4.605589
      px      :     1.481370
      py      :     1.675786
      dz2     :     0.019083  d :     0.058371
      dxz     :     0.016618
      dyz     :     0.014095
      dx2y2   :     0.003906
      dxy     :     0.004667

  3 H s       :     0.698663  s :     0.698663
      pz      :     0.033160  p :     0.115592
      px      :     0.025032
      py      :     0.057400

  4 O s       :     3.469547  s :     3.469547
      pz      :     1.268490  p :     4.614511
      px      :     1.669348
      py      :     1.676672
      dz2     :     0.013522  d :     0.050363
      dxz     :     0.012678
      dyz     :     0.010888
      dx2y2   :     0.005828
      dxy     :     0.007447

  5 C s       :     2.882469  s :     2.882469
      pz      :     1.053131  p :     3.027037
      px      :     0.971340
      py      :     1.002566
      dz2     :     0.029749  d :     0.131541
      dxz     :     0.018917
      dyz     :     0.017758
      dx2y2   :     0.031403
      dxy     :     0.033714

  6 H s       :     0.861869  s :     0.861869
      pz      :     0.007483  p :     0.041995
      px      :     0.008061
      py      :     0.026450

  7 H s       :     0.862286  s :     0.862286
      pz      :     0.015240  p :     0.040872
      px      :     0.016415
      py      :     0.009218

  8 C s       :     2.857697  s :     2.857697
      pz      :     0.952285  p :     2.746413
      px      :     0.837839
      py      :     0.956289
      dz2     :     0.062637  d :     0.301739
      dxz     :     0.064500
      dyz     :     0.091052
      dx2y2   :     0.044640
      dxy     :     0.038911

  9 O s       :     3.553193  s :     3.553193
      pz      :     1.729456  p :     4.598658
      px      :     1.431874
      py      :     1.437329
      dz2     :     0.007369  d :     0.058381
      dxz     :     0.009792
      dyz     :     0.007203
      dx2y2   :     0.014462
      dxy     :     0.019556

 10 N s       :     3.189695  s :     3.189695
      pz      :     1.311146  p :     3.999403
      px      :     1.147734
      py      :     1.540523
      dz2     :     0.019974  d :     0.057442
      dxz     :     0.006824
      dyz     :     0.004013
      dx2y2   :     0.006398
      dxy     :     0.020233

 11 O s       :     3.465604  s :     3.465604
      pz      :     1.648471  p :     4.612518
      px      :     1.618740
      py      :     1.345307
      dz2     :     0.007292  d :     0.051630
      dxz     :     0.009933
      dyz     :     0.015027
      dx2y2   :     0.010740
      dxy     :     0.008638

 12 H s       :     0.792174  s :     0.792174
      pz      :     0.014988  p :     0.079041
      px      :     0.035354
      py      :     0.028699

 13 H s       :     0.699223  s :     0.699223
      pz      :     0.060384  p :     0.115512
      px      :     0.029343
      py      :     0.025786

 14 H s       :     0.873679  s :     0.873679
      pz      :     0.026026  p :     0.039528
      px      :     0.006633
      py      :     0.006869

 15 H s       :     0.790443  s :     0.790443
      pz      :     0.045729  p :     0.081666
      px      :     0.013025
      py      :     0.022912



                      *****************************
                      * MAYER POPULATION ANALYSIS *
                      *****************************

  NA   - Mulliken gross atomic population
  ZA   - Total nuclear charge
  QA   - Mulliken gross atomic charge
  VA   - Mayer's total valence
  BVA  - Mayer's bonded valence
  FA   - Mayer's free valence

  ATOM       NA         ZA         QA         VA         BVA        FA
  0 C      5.5101     6.0000     0.4899     4.0125     4.0125    -0.0000
  1 C      6.2394     6.0000    -0.2394     3.8058     3.8058     0.0000
  2 O      8.4193     8.0000    -0.4193     2.1079     2.1079    -0.0000
  3 H      0.6772     1.0000     0.3228     0.9138     0.9138    -0.0000
  4 O      8.4480     8.0000    -0.4480     2.0544     2.0544    -0.0000
  5 C      6.0612     6.0000    -0.0612     3.8897     3.8897    -0.0000
  6 H      0.8468     1.0000     0.1532     0.9538     0.9538     0.0000
  7 H      0.8485     1.0000     0.1515     0.9534     0.9534     0.0000
  8 C      5.5017     6.0000     0.4983     3.9489     3.9489     0.0000
  9 O      8.4101     8.0000    -0.4101     2.1048     2.1048     0.0000
 10 N      7.5574     7.0000    -0.5574     2.9046     2.9046    -0.0000
 11 O      8.4464     8.0000    -0.4464     2.0425     2.0425     0.0000
 12 H      0.7545     1.0000     0.2455     0.9235     0.9235     0.0000
 13 H      0.6767     1.0000     0.3233     0.9146     0.9146     0.0000
 14 H      0.8604     1.0000     0.1396     0.9449     0.9449    -0.0000
 15 H      0.7424     1.0000     0.2576     0.9340     0.9340     0.0000

  Mayer bond orders larger than 0.100000
B(  0-C ,  1-C ) :   0.9585 B(  0-C ,  4-O ) :   1.0868 B(  0-C ,  9-O ) :   1.9153 
B(  1-C ,  5-C ) :   0.9608 B(  1-C ,  6-H ) :   0.9226 B(  1-C ,  7-H ) :   0.9358 
B(  2-O ,  8-C ) :   1.9127 B(  3-H , 11-O ) :   0.8497 B(  4-O , 13-H ) :   0.8497 
B(  5-C ,  8-C ) :   0.8829 B(  5-C , 10-N ) :   1.0704 B(  5-C , 14-H ) :   0.9248 
B(  8-C , 11-O ) :   1.0930 B( 10-N , 12-H ) :   0.9063 B( 10-N , 15-H ) :   0.8838 


-------
TIMINGS
-------

Total SCF time: 0 days 0 hours 0 min 5 sec 

Total time                  ....       5.931 sec
Sum of individual times     ....       5.562 sec  ( 93.8%)

SCF preparation             ....       0.034 sec  (  0.6%)
Fock matrix formation       ....       5.482 sec  ( 92.4%)
  Startup                   ....       0.001 sec  (  0.0% of F)
  Split-RI-J                ....       1.812 sec  ( 33.0% of F)
  XC integration            ....       3.974 sec  ( 72.5% of F)
    XC Preparation          ....       0.000 sec  (  0.0% of XC)
    Basis function eval.    ....       1.404 sec  ( 35.3% of XC)
    Density eval.           ....       0.846 sec  ( 21.3% of XC)
    XC-Functional eval.     ....       0.751 sec  ( 18.9% of XC)
    XC-Potential eval.      ....       0.866 sec  ( 21.8% of XC)
Diagonalization             ....       0.000 sec  (  0.0%)
Density matrix formation    ....       0.004 sec  (  0.1%)
Total Energy calculation    ....       0.001 sec  (  0.0%)
Population analysis         ....       0.002 sec  (  0.0%)
Orbital Transformation      ....       0.004 sec  (  0.1%)
Orbital Orthonormalization  ....       0.000 sec  (  0.0%)
DIIS solution               ....       0.021 sec  (  0.4%)
SOSCF solution              ....       0.014 sec  (  0.2%)
Finished LeanSCF after   5.9 sec

Maximum memory used throughout the entire LEANSCF-calculation: 17.7 MB



-------------------------------------------------------------------------------
                          DFT DISPERSION CORRECTION                            
-------------------------------------------------------------------------------
Active option DFTDOPT                   ...         2   
Final C6-coefficient scaling factor     ...     1.250
Final VDW-radii scaling factor          ...     1.100
Damping factor alpha                    ...    20.000
-------------------------   ----------------
Dispersion correction           -0.021048061
-------------------------   ----------------


-------------------------   --------------------
FINAL SINGLE POINT ENERGY      -511.992740862055
-------------------------   --------------------

------------------------------------------------------------------------------
                         ORCA SCF GRADIENT CALCULATION
------------------------------------------------------------------------------

Nuc. rep. gradient        (SHARK) ... done (  0.0 sec)
HCore & Overlap gradient  (SHARK) ... done (  0.1 sec)
Split-RIJ-J gradient      (SHARK) ... done (  0.5 sec)
XC gradient                       ... done (  1.9 sec)
Dispersion correction             ... done (  0.0 sec)

-------------------
DISPERSION GRADIENT
-------------------

   1   C   :   -0.000295014   -0.000201997   -0.000726783
   2   C   :    0.000263311    0.000203472   -0.000032528
   3   O   :    0.000056074    0.001288561   -0.000322221
   4   H   :    0.000260768    0.000114201    0.000225761
   5   O   :   -0.000268954   -0.000319469    0.000493148
   6   C   :   -0.000254425   -0.000246023    0.000181247
   7   H   :   -0.000617349    0.000535339   -0.000283479
   8   H   :   -0.000047949   -0.001147277    0.000143317
   9   C   :   -0.000115837   -0.000160438   -0.000461952
  10   O   :   -0.000537823   -0.000736743    0.000995968
  11   N   :    0.000092057    0.000615743   -0.000601692
  12   O   :    0.000352512    0.000951828   -0.000077922
  13   H   :    0.000604197   -0.000534961    0.000224149
  14   H   :   -0.000446039    0.000176292    0.000021748
  15   H   :    0.000201765    0.000017919   -0.000001638
  16   H   :    0.000752708   -0.000556446    0.000222877

Difference to translation invariance:
           :    0.0000000000   -0.0000000000    0.0000000000

Difference to rotation invariance:
           :    0.0000000000    0.0000000000    0.0000000000

Norm of the Dispersion gradient    ...    0.0033303860
RMS gradient                       ...    0.0004806998
MAX gradient                       ...    0.0012885609

------------------
CARTESIAN GRADIENT
------------------

   1   C   :    0.002015660    0.006246445    0.010091376
   2   C   :   -0.000696624    0.000976060    0.000232692
   3   O   :   -0.013177929   -0.008124867   -0.027869170
   4   H   :   -0.002742223   -0.000846935   -0.005765838
   5   O   :   -0.020930326    0.022442938   -0.010623620
   6   C   :   -0.003437013    0.000137982    0.000699194
   7   H   :   -0.001355332    0.005644451    0.003013559
   8   H   :    0.003609706   -0.001410381    0.001023659
   9   C   :   -0.004852013    0.004624324    0.008893437
  10   O   :    0.024826442   -0.021227449   -0.006098877
  11   N   :   -0.004655349    0.009664736    0.003548928
  12   O   :    0.017560434   -0.007401625    0.023882099
  13   H   :   -0.002044359   -0.003135960   -0.001291807
  14   H   :    0.004665988   -0.005237664   -0.000439572
  15   H   :    0.001348902   -0.000258330    0.003749929
  16   H   :   -0.000135960   -0.002093724   -0.003045990

Difference to translation invariance:
           :    0.0000000000    0.0000000000   -0.0000000000

Difference to rotation invariance:
           :    0.0001199146    0.0002809416   -0.0000680992

Norm of the Cartesian gradient     ...    0.0686593602
RMS gradient                       ...    0.0099101250
MAX gradient                       ...    0.0278691703

-------
TIMINGS
-------

Total SCF gradient time     ....        2.463 sec

Densities                   ....       0.000 sec  (  0.0%)
One electron gradient       ....       0.083 sec  (  3.4%)
RI-J Coulomb gradient       ....       0.483 sec  ( 19.6%)
XC gradient                 ....       1.897 sec  ( 77.0%)

Maximum memory used throughout the entire SCFGRAD-calculation: 23.1 MB
------------------------------------------------------------------------------
                         ORCA GEOMETRY RELAXATION STEP
------------------------------------------------------------------------------

Reading the OPT-File                    .... done
Getting information on internals        .... done
Copying old internal coords+grads       .... done
Making the new internal coordinates     .... (2022 redundants) done
Validating the new internal coordinates .... (2022 redundants) done
Calculating the B-matrix                .... done
Calculating the G,G- and P matrices     .... done
Transforming gradient to internals      .... done
Projecting the internal gradient        .... done
Number of atoms                         ....  16
Number of internal coordinates          ....  64
Current Energy                          ....  -511.992740862 Eh
Current gradient norm                   ....     0.068659360 Eh/bohr
Maximum allowed component of the step   ....  0.300
Current trust radius                    ....  0.300
Evaluating the initial hessian          ....  (Almloef) done
Projecting the Hessian                  .... done
Forming the augmented Hessian           .... done
Diagonalizing the augmented Hessian     .... done
Last element of RFO vector              ....  0.969344170
Lowest eigenvalues of augmented Hessian:
 -0.008289605  0.010230675  0.010351520  0.011557323  0.017112099
Length of the computed step             ....  0.253477463
The final length of the internal step   ....  0.253477463
Converting the step to Cartesian space:
 Initial RMS(Int)=    0.0316846828
Transforming coordinates:
 Iter   0:  RMS(Cart)=    0.1111145431 RMS(Int)=    0.0324961712
 Iter   5:  RMS(Cart)=    0.0000000881 RMS(Int)=    0.0000000533
done
Storing new coordinates                 .... done

                                .--------------------.
          ----------------------|Geometry convergence|-------------------------
          Item                value                   Tolerance       Converged
          ---------------------------------------------------------------------
          RMS gradient        0.0083842300            0.0001000000      NO
          MAX gradient        0.0331713623            0.0003000000      NO
          RMS step            0.0316846828            0.0020000000      NO
          MAX step            0.1057449786            0.0040000000      NO
          -------------------------------------------------------------------------
          ........................................................
          Max(Bonds)      0.0268      Max(Angles)    2.44
          Max(Dihed)        6.06      Max(Improp)    0.00
          ---------------------------------------------------------------------

The optimization has not yet converged - more geometry cycles are needed


    ---------------------------------------------------------------------------
                         Redundant Internal Coordinates
                            (Angstroem and degrees)

        Definition                    Value    dE/dq     Step     New-Value
    ----------------------------------------------------------------------------
     1. B(C   1,C   0)                1.5116 -0.008082  0.0121    1.5237   
     2. B(O   4,C   0)                1.3365 -0.025115  0.0191    1.3556   
     3. B(C   5,C   1)                1.5455 -0.011938  0.0200    1.5654   
     4. B(H   6,C   1)                1.0890 -0.006176  0.0088    1.0978   
     5. B(H   7,C   1)                1.0887 -0.003594  0.0051    1.0938   
     6. B(C   8,C   5)                1.5322 -0.010548  0.0147    1.5469   
     7. B(C   8,O   2)                1.2021 -0.031855  0.0150    1.2171   
     8. B(O   9,C   0)                1.2008 -0.033171  0.0155    1.2164   
     9. B(N  10,C   5)                1.4445 -0.006505  0.0083    1.4528   
    10. B(O  11,C   8)                1.3306 -0.023665  0.0178    1.3484   
    11. B(O  11,H   3)                0.9710 -0.002893  0.0030    0.9740   
    12. B(H  12,N  10)                1.0144 -0.003402  0.0041    1.0185   
    13. B(H  13,O   4)                0.9708 -0.003022  0.0031    0.9739   
    14. B(H  14,C   5)                1.0960 -0.003459  0.0051    1.1011   
    15. B(H  15,N  10)                1.0155 -0.004118  0.0037    1.0192   
    16. B(H  15,O   4)                2.3204 -0.002818  0.0268    2.3472   
    17. A(C   1,C   0,O   9)          125.01 -0.001774    0.10    125.12   
    18. A(C   1,C   0,O   4)          112.32  0.007985   -0.73    111.58   
    19. A(O   4,C   0,O   9)          122.65 -0.006163    0.61    123.26   
    20. A(C   5,C   1,H   7)          109.85  0.000286   -0.18    109.67   
    21. A(C   0,C   1,H   6)          110.02  0.002607   -0.38    109.65   
    22. A(H   6,C   1,H   7)          111.02 -0.000193   -0.57    110.45   
    23. A(C   5,C   1,H   6)          107.96  0.003774   -0.68    107.29   
    24. A(C   0,C   1,C   5)          109.50 -0.009393    2.44    111.93   
    25. A(C   0,C   1,H   7)          108.47  0.002702   -0.57    107.90   
    26. A(C   0,O   4,H  13)          110.68  0.011552   -1.73    108.95   
    27. A(C   8,C   5,N  10)          113.47  0.000691    0.30    113.77   
    28. A(C   1,C   5,N  10)          110.12  0.004880    0.05    110.17   
    29. A(N  10,C   5,H  14)          108.60 -0.001415   -0.41    108.19   
    30. A(C   8,C   5,H  14)          108.21  0.001846   -0.75    107.46   
    31. A(C   1,C   5,H  14)          108.75  0.001838   -1.11    107.64   
    32. A(C   1,C   5,C   8)          107.58 -0.007800    1.85    109.43   
    33. A(C   5,C   8,O  11)          112.19  0.004644   -0.61    111.57   
    34. A(O   2,C   8,O  11)          123.80 -0.003524    0.44    124.24   
    35. A(O   2,C   8,C   5)          124.01 -0.001118    0.18    124.19   
    36. A(H  12,N  10,H  15)          107.37 -0.000724   -0.67    106.71   
    37. A(C   5,N  10,H  15)          109.96  0.004572   -0.70    109.26   
    38. A(C   5,N  10,H  12)          110.36  0.001095   -0.54    109.82   
    39. A(H   3,O  11,C   8)          110.99  0.010571   -1.58    109.41   
    40. D(H   6,C   1,C   0,O   9)   -140.40  0.000093   -0.13   -140.54   
    41. D(C   5,C   1,C   0,O   9)    101.09 -0.000384   -0.56    100.53   
    42. D(H   6,C   1,C   0,O   4)     41.24 -0.001674    0.67     41.92   
    43. D(C   5,C   1,C   0,O   4)    -77.27 -0.002151    0.25    -77.01   
    44. D(H   7,C   1,C   0,O   4)    162.86  0.001407   -0.62    162.24   
    45. D(H  13,O   4,C   0,O   9)     -1.43 -0.000283   -0.36     -1.79   
    46. D(H  13,O   4,C   0,C   1)    176.97  0.001512   -1.16    175.82   
    47. D(N  10,C   5,C   1,H   7)   -160.32 -0.000068   -3.21   -163.54   
    48. D(N  10,C   5,C   1,H   6)    -39.12  0.002202   -4.44    -43.56   
    49. D(N  10,C   5,C   1,C   0)     80.66  0.002177   -3.89     76.76   
    50. D(C   8,C   5,C   1,H   7)     75.55  0.001124   -4.83     70.72   
    51. D(C   8,C   5,C   1,H   6)   -163.25  0.003394   -6.06   -169.30   
    52. D(C   8,C   5,C   1,C   0)    -43.47  0.003369   -5.51    -48.98   
    53. D(O   2,C   8,C   5,N  10)    -14.42  0.000024   -1.95    -16.38   
    54. D(O   2,C   8,C   5,C   1)    107.65  0.001110   -0.39    107.26   
    55. D(O  11,C   8,C   5,N  10)    165.80 -0.000531   -0.97    164.83   
    56. D(O  11,C   8,C   5,C   1)    -72.13  0.000555    0.59    -71.53   
    57. D(O   2,C   8,C   5,H  14)   -135.01  0.000081   -1.10   -136.11   
    58. D(H  15,N  10,C   5,C   1)    -55.49  0.004713   -2.67    -58.16   
    59. D(H  12,N  10,C   5,H  14)     67.26 -0.002133    0.48     67.74   
    60. D(H  12,N  10,C   5,C   8)    -53.11 -0.003926    1.53    -51.58   
    61. D(H  15,N  10,C   5,C   8)     65.16 -0.001327   -0.05     65.11   
    62. D(H  12,N  10,C   5,C   1)   -173.75  0.002115   -1.09   -174.85   
    63. D(H   3,O  11,C   8,C   5)    175.58  0.000353   -0.58    174.99   
    64. D(H   3,O  11,C   8,O   2)     -4.20 -0.000207    0.40     -3.80   
    ----------------------------------------------------------------------------

Geometry step timings:
Preparation and reading OPT file:      0.000 s ( 1.438 %)
Internal coordinates            :      0.000 s ( 1.327 %)
B/P matrices and projection     :      0.000 s (36.504 %)
Hessian update/contruction      :      0.000 s ( 9.735 %)
Making the step                 :      0.000 s (30.088 %)
Converting the step to Cartesian:      0.000 s ( 3.872 %)
Storing new data                :      0.000 s ( 1.549 %)
Checking convergence            :      0.000 s ( 1.217 %)
Final printing                  :      0.000 s (14.270 %)
Total time                      :      0.001 s

Time for energy+gradient        :      9.110 s
Time for complete geometry iter :      9.124 s

         *************************************************************
         *                GEOMETRY OPTIMIZATION CYCLE   2            *
         *************************************************************
---------------------------------
CARTESIAN COORDINATES (ANGSTROEM)
---------------------------------
  C     -4.648965    1.459209    1.136579
  C     -4.105673    1.332637   -0.281013
  O     -2.424696    3.944591    1.132048
  H     -3.866279    5.171629   -0.275916
  O     -3.972922    0.663166    2.000953
  C     -2.764722    2.118915   -0.462045
  H     -3.898388    0.277926   -0.504335
  H     -4.860265    1.727228   -0.967581
  C     -2.928611    3.552341    0.095905
  O     -5.543357    2.208923    1.479393
  N     -1.668278    1.378875    0.138079
  O     -3.720189    4.304642   -0.695017
  H     -0.813672    1.931267    0.094207
  H     -4.304544    0.822174    2.902756
  H     -2.571026    2.204943   -1.542529
  H     -1.868221    1.225859    1.125976

----------------------------
CARTESIAN COORDINATES (A.U.)
----------------------------
  NO LB      ZA    FRAG     MASS         X           Y           Z
   0 C     6.0000    0    12.011   -8.785272    2.757506    2.147822
   1 C     6.0000    0    12.011   -7.758598    2.518319   -0.531038
   2 O     8.0000    0    15.999   -4.582012    7.454197    2.139260
   3 H     1.0000    0     1.008   -7.306209    9.772962   -0.521406
   4 O     8.0000    0    15.999   -7.507735    1.253201    3.781252
   5 C     6.0000    0    12.011   -5.224568    4.004168   -0.873138
   6 H     1.0000    0     1.008   -7.366886    0.525203   -0.953055
   7 H     1.0000    0     1.008   -9.184570    3.263987   -1.828463
   8 C     6.0000    0    12.011   -5.534273    6.712951    0.181234
   9 O     8.0000    0    15.999  -10.475426    4.174259    2.795649
  10 N     7.0000    0    14.007   -3.152588    2.605697    0.260931
  11 O     8.0000    0    15.999   -7.030137    8.134594   -1.313393
  12 H     1.0000    0     1.008   -1.537617    3.649566    0.178025
  13 H     1.0000    0     1.008   -8.134409    1.553683    5.485414
  14 H     1.0000    0     1.008   -4.858535    4.166738   -2.914957
  15 H     1.0000    0     1.008   -3.530426    2.316539    2.127786

--------------------------------
INTERNAL COORDINATES (ANGSTROEM)
--------------------------------
 C      0   0   0     0.000000000000     0.00000000     0.00000000
 C      1   0   0     1.523401910820     0.00000000     0.00000000
 O      1   2   0     3.335343475146    79.79438221     0.00000000
 H      3   1   2     2.359268243512    88.90460048    72.39626191
 O      1   2   3     1.355677812910   111.51101872   267.44001709
 C      2   1   3     1.564977359967   111.80677879    15.58883214
 H      2   1   3     1.097841489310   109.66059445   134.47462224
 H      2   1   3     1.093839960839   107.94331227   254.83282421
 C      3   1   2     1.217120927115    58.99614364    25.31451489
 O      1   2   3     1.216358400809   125.14892079    84.97023850
 N      6   2   1     1.452583113048   110.06063399    76.71910261
 O      4   3   1     0.973989331424    72.67361786   306.54896737
 H     11   6   2     1.018534499332   109.83058825   185.16122349
 H      5   1   2     0.973912580681   108.94843912   175.80711179
 H      6   2   1     1.101074280584   107.66806512   194.45506312
 H     11   6   2     1.019476201534   109.19430888   301.86515309

---------------------------
INTERNAL COORDINATES (A.U.)
---------------------------
 C      0   0   0     0.000000000000     0.00000000     0.00000000
 C      1   0   0     2.878812403342     0.00000000     0.00000000
 O      1   2   0     6.302885730587    79.79438221     0.00000000
 H      3   1   2     4.458370856696    88.90460048    72.39626191
 O      1   2   3     2.561859792233   111.51101872   267.44001709
 C      2   1   3     2.957378616124   111.80677879    15.58883214
 H      2   1   3     2.074619753252   109.66059445   134.47462224
 H      2   1   3     2.067057960324   107.94331227   254.83282421
 C      3   1   2     2.300025224111    58.99614364    25.31451489
 O      1   2   3     2.298584258223   125.14892079    84.97023850
 N      6   2   1     2.744984270419   110.06063399    76.71910261
 O      4   3   1     1.840573093752    72.67361786   306.54896737
 H     11   6   2     1.924751261688   109.83058825   185.16122349
 H      5   1   2     1.840428055868   108.94843912   175.80711179
 H      6   2   1     2.080728843409   107.66806512   194.45506312
 H     11   6   2     1.926530820950   109.19430888   301.86515309

------------------------------------------------------------------------------
                   ___                                                        
                  /   \      - P O W E R E D   B Y -                         
                 /     \                                                     
                 |  |  |   _    _      __       _____    __    __             
                 |  |  |  | |  | |    /  \     |  _  \  |  |  /  |          
                  \  \/   | |  | |   /    \    | | | |  |  | /  /          
                 / \  \   | |__| |  /  /\  \   | |_| |  |  |/  /          
                |  |  |   |  __  | /  /__\  \  |    /   |      \           
                |  |  |   | |  | | |   __   |  |    \   |  |\   \          
                \     /   | |  | | |  |  |  |  | |\  \  |  | \   \       
                 \___/    |_|  |_| |__|  |__|  |_| \__\ |__|  \__/        
                                                                              
                      - O R C A' S   B I G   F R I E N D -                    
                                      &                                       
                       - I N T E G R A L  F E E D E R -                       
                                                                              
 v1 FN, 2020, v2 2021, v3 2022-2024                                           
------------------------------------------------------------------------------


----------------------
SHARK INTEGRAL PACKAGE
----------------------

Number of atoms                             ...     16
Number of basis functions                   ...    161
Number of shells                            ...     75
Maximum angular momentum                    ...      2
Integral batch strategy                     ... SHARK/LIBINT Hybrid
RI-J (if used) integral strategy            ... SPLIT-RIJ (Revised 2003 algorithm where possible)
Printlevel                                  ...      1
Contraction scheme used                     ... SEGMENTED contraction
Prescreening option                         ... SCHWARTZ
   Thresh                                   ... 2.500e-11
   Tcut                                     ... 2.500e-12
   Tpresel                                  ... 2.500e-12 
Coulomb Range Separation                    ... NOT USED
Exchange Range Separation                   ... NOT USED
Multipole approximations                    ... NOT USED
Finite Nucleus Model                        ... NOT USED
CABS basis                                  ... NOT available
Auxiliary Coulomb fitting basis             ... AVAILABLE
   # of basis functions in Aux-J            ...    518
   # of shells in Aux-J                     ...    170
   Maximum angular momentum in Aux-J        ...      4
Auxiliary J/K fitting basis                 ... NOT available
Auxiliary Correlation fitting basis         ... NOT available
Auxiliary 'external' fitting basis          ... NOT available

Checking pre-screening integrals            ... done (  0.0 sec) Dimension = 75
   => SHARK Basis and OBASIS are compatible. Storing Pre-screening
Shell pair information
Shell pair cut-off parameter TPreSel        ...   2.5e-12
Total number of shell pairs                 ...      2850
Shell pairs after pre-screening             ...      2650
Total number of primitive shell pairs       ...     14745
Primitive shell pairs kept                  ...      9016
          la=0 lb=0:    784 shell pairs
          la=1 lb=0:    948 shell pairs
          la=1 lb=1:    306 shell pairs
          la=2 lb=0:    348 shell pairs
          la=2 lb=1:    219 shell pairs
          la=2 lb=2:     45 shell pairs

Checking whether 4 symmetric matrices of dimension 161 fit in memory
:Max Core in MB      =   4096.00
 MB in use           =      7.25
 MB left             =   4088.75
 MB needed           =      0.40
 Data fit in memory  = YES
[...]

  1 C s       :     3.254984  s :     3.254984
      pz      :     0.941221  p :     2.953298
      px      :     0.967065
      py      :     1.045011
      dz2     :     0.007906  d :     0.032518
      dxz     :     0.008130
      dyz     :     0.004034
      dx2y2   :     0.006730
      dxy     :     0.005718

  2 O s       :     3.872970  s :     3.872970
      pz      :     1.372335  p :     4.519614
      px      :     1.467581
      py      :     1.679699
      dz2     :     0.009318  d :     0.027597
      dxz     :     0.007047
      dyz     :     0.005977
      dx2y2   :     0.002387
      dxy     :     0.002868

  3 H s       :     0.637924  s :     0.637924
      pz      :     0.010437  p :     0.037507
      px      :     0.008573
      py      :     0.018497

  4 O s       :     3.843097  s :     3.843097
      pz      :     1.273699  p :     4.591064
      px      :     1.673533
      py      :     1.643833
      dz2     :     0.004232  d :     0.023078
      dxz     :     0.005152
      dyz     :     0.004030
      dx2y2   :     0.004819
      dxy     :     0.004845

  5 C s       :     3.219184  s :     3.219184
      pz      :     1.025568  p :     2.790299
      px      :     0.871813
      py      :     0.892917
      dz2     :     0.014127  d :     0.056392
      dxz     :     0.008281
      dyz     :     0.006144
      dx2y2   :     0.014289
      dxy     :     0.013551

  6 H s       :     0.834151  s :     0.834151
      pz      :     0.002516  p :     0.011494
      px      :     0.002531
      py      :     0.006447

  7 H s       :     0.834973  s :     0.834973
      pz      :     0.003696  p :     0.011298
      px      :     0.004464
      py      :     0.003138

  8 C s       :     3.003905  s :     3.003905
      pz      :     0.746382  p :     2.371734
      px      :     0.758766
      py      :     0.866586
      dz2     :     0.026645  d :     0.118107
      dxz     :     0.023743
      dyz     :     0.033635
      dx2y2   :     0.018549
      dxy     :     0.015535

  9 O s       :     3.873484  s :     3.873484
      pz      :     1.708235  p :     4.510911
      px      :     1.378928
      py      :     1.423748
      dz2     :     0.003321  d :     0.027606
      dxz     :     0.004310
      dyz     :     0.004067
      dx2y2   :     0.009239
      dxy     :     0.006668

 10 N s       :     3.606351  s :     3.606351
      pz      :     1.233336  p :     3.912707
      px      :     1.092496
      py      :     1.586876
      dz2     :     0.011336  d :     0.028867
      dxz     :     0.002003
      dyz     :     0.002245
      dx2y2   :     0.002610
      dxy     :     0.010674

 11 O s       :     3.841911  s :     3.841911
      pz      :     1.629811  p :     4.593944
      px      :     1.640852
      py      :     1.323282
      dz2     :     0.004631  d :     0.023102
      dxz     :     0.005267
      dyz     :     0.006936
      dx2y2   :     0.004516
      dxy     :     0.001752

 12 H s       :     0.730288  s :     0.730288
      pz      :     0.005354  p :     0.023613
      px      :     0.009872
      py      :     0.008387

 13 H s       :     0.640258  s :     0.640258
      pz      :     0.018694  p :     0.037396
      px      :     0.010229
      py      :     0.008474

 14 H s       :     0.846474  s :     0.846474
      pz      :     0.006540  p :     0.010875
      px      :     0.002054
      py      :     0.002281

 15 H s       :     0.720970  s :     0.720970
      pz      :     0.011833  p :     0.024030
      px      :     0.004827
      py      :     0.007370



                     *******************************
                     * LOEWDIN POPULATION ANALYSIS *
                     *******************************

----------------------
LOEWDIN ATOMIC CHARGES
----------------------
   0 C :    0.136544
   1 C :   -0.137378
   2 O :   -0.222925
   3 H :    0.187156
   4 O :   -0.156612
   5 C :   -0.040257
   6 H :    0.098518
   7 H :    0.098024
   8 C :    0.119598
   9 O :   -0.216781
  10 N :   -0.248974
  11 O :   -0.153197
  12 H :    0.131277
  13 H :    0.185291
  14 H :    0.089608
  15 H :    0.130109

-------------------------------
LOEWDIN REDUCED ORBITAL CHARGES
-------------------------------
  0 C s       :     2.863200  s :     2.863200
      pz      :     0.961016  p :     2.720932
      px      :     0.891049
      py      :     0.868868
      dz2     :     0.049620  d :     0.279323
      dxz     :     0.065373
      dyz     :     0.060180
      dx2y2   :     0.052383
      dxy     :     0.051768

  1 C s       :     2.920294  s :     2.920294
      pz      :     1.033573  p :     3.143936
      px      :     1.034758
      py      :     1.075605
      dz2     :     0.019693  d :     0.073148
      dxz     :     0.018310
      dyz     :     0.008125
      dx2y2   :     0.014039
      dxy     :     0.012981

  2 O s       :     3.567857  s :     3.567857
      pz      :     1.445932  p :     4.598972
      px      :     1.472147
      py      :     1.680892
      dz2     :     0.017216  d :     0.056096
      dxz     :     0.015307
      dyz     :     0.014199
      dx2y2   :     0.004201
      dxy     :     0.005174

  3 H s       :     0.698891  s :     0.698891
      pz      :     0.031410  p :     0.113953
      px      :     0.023832
      py      :     0.058711

  4 O s       :     3.501110  s :     3.501110
      pz      :     1.294908  p :     4.607599
      px      :     1.668303
      py      :     1.644389
      dz2     :     0.011514  d :     0.047903
      dxz     :     0.010978
      dyz     :     0.010637
      dx2y2   :     0.006334
      dxy     :     0.008440

  5 C s       :     2.891963  s :     2.891963
      pz      :     1.052385  p :     3.021796
      px      :     0.971394
      py      :     0.998017
      dz2     :     0.030507  d :     0.126498
      dxz     :     0.017657
      dyz     :     0.013999
      dx2y2   :     0.033110
      dxy     :     0.031225

  6 H s       :     0.860675  s :     0.860675
      pz      :     0.008015  p :     0.040807
      px      :     0.007444
      py      :     0.025348

  7 H s       :     0.861649  s :     0.861649
      pz      :     0.013462  p :     0.040327
      px      :     0.016514
      py      :     0.010351

  8 C s       :     2.873584  s :     2.873584
      pz      :     0.928491  p :     2.726661
      px      :     0.830377
      py      :     0.967793
      dz2     :     0.060475  d :     0.280157
      dxz     :     0.060000
      dyz     :     0.081637
      dx2y2   :     0.043051
      dxy     :     0.034995

  9 O s       :     3.568078  s :     3.568078
      pz      :     1.707124  p :     4.592662
      px      :     1.424432
      py      :     1.461106
      dz2     :     0.007149  d :     0.056042
      dxz     :     0.009621
      dyz     :     0.008314
      dx2y2   :     0.013015
      dxy     :     0.017942

 10 N s       :     3.212647  s :     3.212647
      pz      :     1.255947  p :     3.979102
      px      :     1.143586
      py      :     1.579569
      dz2     :     0.020953  d :     0.057225
      dxz     :     0.006838
      dyz     :     0.003812
      dx2y2   :     0.005747
      dxy     :     0.019875

 11 O s       :     3.494410  s :     3.494410
      pz      :     1.636801  p :     4.610000
      px      :     1.636975
      py      :     1.336225
      dz2     :     0.007245  d :     0.048786
      dxz     :     0.009998
      dyz     :     0.014348
      dx2y2   :     0.010376
      dxy     :     0.006820

 12 H s       :     0.791396  s :     0.791396
      pz      :     0.013751  p :     0.077328
      px      :     0.034669
      py      :     0.028908

 13 H s       :     0.701071  s :     0.701071
      pz      :     0.059317  p :     0.113637
      px      :     0.030305
      py      :     0.024015

 14 H s       :     0.871355  s :     0.871355
      pz      :     0.026073  p :     0.039037
      px      :     0.006494
      py      :     0.006470

 15 H s       :     0.790387  s :     0.790387
      pz      :     0.045579  p :     0.079504
      px      :     0.012515
      py      :     0.021410



                      *****************************
                      * MAYER POPULATION ANALYSIS *
                      *****************************

  NA   - Mulliken gross atomic population
  ZA   - Total nuclear charge
  QA   - Mulliken gross atomic charge
  VA   - Mayer's total valence
  BVA  - Mayer's bonded valence
  FA   - Mayer's free valence

  ATOM       NA         ZA         QA         VA         BVA        FA
  0 C      5.5020     6.0000     0.4980     3.9716     3.9716     0.0000
  1 C      6.2408     6.0000    -0.2408     3.8060     3.8060     0.0000
  2 O      8.4202     8.0000    -0.4202     2.1073     2.1073    -0.0000
  3 H      0.6754     1.0000     0.3246     0.9124     0.9124     0.0000
  4 O      8.4572     8.0000    -0.4572     2.0461     2.0461    -0.0000
  5 C      6.0659     6.0000    -0.0659     3.8900     3.8900     0.0000
  6 H      0.8456     1.0000     0.1544     0.9518     0.9518     0.0000
  7 H      0.8463     1.0000     0.1537     0.9525     0.9525     0.0000
  8 C      5.4937     6.0000     0.5063     3.9154     3.9154     0.0000
  9 O      8.4120     8.0000    -0.4120     2.1025     2.1025     0.0000
 10 N      7.5479     7.0000    -0.5479     2.9000     2.9000     0.0000
 11 O      8.4590     8.0000    -0.4590     2.0329     2.0329    -0.0000
 12 H      0.7539     1.0000     0.2461     0.9213     0.9213     0.0000
 13 H      0.6777     1.0000     0.3223     0.9150     0.9150     0.0000
 14 H      0.8573     1.0000     0.1427     0.9436     0.9436    -0.0000
 15 H      0.7450     1.0000     0.2550     0.9317     0.9317    -0.0000

  Mayer bond orders larger than 0.100000
B(  0-C ,  1-C ) :   0.9546 B(  0-C ,  4-O ) :   1.0712 B(  0-C ,  9-O ) :   1.9076 
B(  1-C ,  5-C ) :   0.9659 B(  1-C ,  6-H ) :   0.9214 B(  1-C ,  7-H ) :   0.9333 
B(  2-O ,  8-C ) :   1.9081 B(  3-H , 11-O ) :   0.8503 B(  4-O , 13-H ) :   0.8516 
B(  5-C ,  8-C ) :   0.8822 B(  5-C , 10-N ) :   1.0675 B(  5-C , 14-H ) :   0.9211 
B(  8-C , 11-O ) :   1.0723 B( 10-N , 12-H ) :   0.9046 B( 10-N , 15-H ) :   0.8856 


-------
TIMINGS
-------

Total SCF time: 0 days 0 hours 0 min 1 sec 

Total time                  ....       1.537 sec
Sum of individual times     ....       1.177 sec  ( 76.6%)

SCF preparation             ....       0.028 sec  (  1.8%)
Fock matrix formation       ....       1.130 sec  ( 73.5%)
  Startup                   ....       0.000 sec  (  0.0% of F)
  Split-RI-J                ....       0.447 sec  ( 39.6% of F)
  XC integration            ....       0.992 sec  ( 87.8% of F)
    Basis function eval.    ....       0.337 sec  ( 34.0% of XC)
    Density eval.           ....       0.218 sec  ( 22.0% of XC)
    XC-Functional eval.     ....       0.184 sec  ( 18.5% of XC)
    XC-Potential eval.      ....       0.228 sec  ( 23.0% of XC)
Diagonalization             ....       0.000 sec  (  0.0%)
Density matrix formation    ....       0.001 sec  (  0.0%)
Total Energy calculation    ....       0.000 sec  (  0.0%)
Population analysis         ....       0.009 sec  (  0.6%)
Orbital Transformation      ....       0.002 sec  (  0.1%)
Orbital Orthonormalization  ....       0.000 sec  (  0.0%)
DIIS solution               ....       0.002 sec  (  0.2%)
SOSCF solution              ....       0.005 sec  (  0.3%)
Finished LeanSCF after   1.5 sec

Maximum memory used throughout the entire LEANSCF-calculation: 18.0 MB



-------------------------------------------------------------------------------
                          DFT DISPERSION CORRECTION                            
-------------------------------------------------------------------------------
Active option DFTDOPT                   ...         2   
Final C6-coefficient scaling factor     ...     1.250
Final VDW-radii scaling factor          ...     1.100
Damping factor alpha                    ...    20.000
-------------------------   ----------------
Dispersion correction           -0.020329927
-------------------------   ----------------


-------------------------   --------------------
FINAL SINGLE POINT ENERGY      -511.998687352265
-------------------------   --------------------

                                *** OPTIMIZATION RUN DONE ***


------------------------------------------------------------------------------
                              ORCA PROPERTY CALCULATIONS
------------------------------------------------------------------------------

GBWName                                 ... 2.gbw
Number of atoms                         ...     16
Number of basis functions               ...    161
Max core memory                         ...   4096 MB

Electric properties:
Dipole moment                           ... YES
Quadrupole moment                       ...  NO
Static polarizability (Dipole/Dipole)   ...  NO
Static polarizability (Dipole/Quad.)    ...  NO
Static polarizability (Quad./Quad.)     ...  NO
Static polarizability (Velocity)        ...  NO
Static hyperpolarizability              ...  NO

Atomic electric properties:
Dipole moment                           ...  NO
Quadrupole moment                       ...  NO
Static polarizability                   ...  NO

Choice of electric origin               ... Center of mass
Position of electric origin             ...    -6.660804     4.420988     1.013171

General magnetic properties:
Magnetizability                         ...  NO

EPR properties:
g-Tensor (aka g-matrix)                 ...  NO
Zero-Field splitting spin-orbit         ...  NO
Zero-field splitting spin-spin          ...  NO
Hyperfine couplings                     ...  NO (   0 nuclei)
Quadrupole couplings                    ...  NO (   0 nuclei)
Contact density                         ...  NO (   0 nuclei)

NMR properties:
Chemical shifts                         ...  NO (   0 nuclei)
Spin-rotation constants                 ...  NO (   0 nuclei)
Spin-spin couplings                     ...  NO (   0 nuclei,    0 pairs)

Choice of magnetic origin               ... GIAO
Position of magnetic origin             ...     0.000000     0.000000     0.000000

Properties with geometric perturbations:
SCF Hessian                             ...  NO
IR spectrum                             ...  NO
VCD spectrum                            ...  NO
X-ray spectroscopy properties:
SCF XES/XAS/RIXS spectra                ...  NO

SCF SOC stabilization energy            ...  NO
Diagonal Born-Oppenheimer correction    ...  NO

-------------
DIPOLE MOMENT
-------------

Method             : SCF
Type of density    : Electron Density
Multiplicity       :   1
Irrep              :   0
Energy             :  -511.9783574249938169 Eh
Basis              : AO
                                X                 Y                 Z
Electronic contribution:     -2.169085656       2.732125495       2.467347727
Nuclear contribution   :      2.279066800      -2.749437281      -2.730877487
                        -----------------------------------------
Total Dipole Moment    :      0.109981144      -0.017311786      -0.263529760
                        -----------------------------------------
Magnitude (a.u.)       :      0.286083003
Magnitude (Debye)      :      0.727165204



--------------------
Rotational spectrum 
--------------------
 
Rotational constants in cm-1:             0.072167             0.045035             0.037240 
Rotational constants in MHz :          2163.500104          1350.117988          1116.415432 

Dipole components along the rotational axes: 
x,y,z [a.u.] :    -0.160659     0.128470     0.198815 
x,y,z [Debye]:    -0.408364     0.326546     0.505348 

 

Dipole moment calculation done in   0.0 sec 

Maximum memory used throughout the entire PROP-calculation: 10.3 MB

--------------------------------
SUGGESTED CITATIONS FOR THIS RUN
--------------------------------

Below you find a list of papers that are relevant to this ORCA run
We neither can nor want to force you to cite these papers, but we appreciate if you do
You receive ORCA, which is the product of decades of hard work by many enthusiastic individuals, for free
The only thing we kindly ask in return is that you cite our papers,
We deeply appreciate it, if you show your appreciation for ORCA by not just citing the generic ORCA reference.

Please note that relegating all ORCA citations to the supporting information does *not* help us.
SI sections are not indexed - citations you put there will not count into any citation statistics
But we need these citations in order to attract the funding resources that allow us to do what we are doing

Therefore, if you are a happy ORCA user, please consider citing a few of the papers listed below in the main body of your paper

In addition to the list printed below, the program has created the file 2.bibtex that contains the list in bibtex format
You can import this file easily into all common literature databanks and citation aid programs


List of essential papers. We consider these as the minimum necessary citations

  1. Neese, F.
     Software update: the ORCA program system, version 6.0
     WIRES Comput. Molec. Sci. 2025 15(1), e70019
     doi.org/10.1002/wcms.7019

List of papers to cite with high priority. The work reported in these papers was absolutely
necessary for this run to complete.
Our perspective: the developers of density functionals and basis sets usually get cited in chemistry papers
Good! But without the algorithms to do something with them, the functionals or basis sets would not do anything.
Hence, in our opinion, the algorithm design and method developments papers are equally worthy of getting cited

  1. Neese, F.
     An improvement of the resolution of the identity approximation for the formation of the Coulomb matrix
     J. Comp. Chem. 2003 24(14), 1740-1747
     doi.org/10.1002/jcc.10318
  2. Grimme, S.
     Semiempirical GGA-type density functional constructed with a long-range dispersion correction
     J.Comput.Chem. 2006 27(15), 1787-1799
     doi.org/10.1002/jcc.20495
  3. Neese, F.
     The SHARK Integral Generation and Digestion System
     J. Comp. Chem. 2022 44(3), 381
     doi.org/10.1002/jcc.26942

List of suggested additional citations. These are papers that are important in the 'surrounding' of 
of this run, or papers that preceded the highly important papers. If you like your results we are grateful for a citation.

  1. Neese, F.
     The ORCA program system
     WIRES Comput. Molec. Sci. 2012 2(1), 73-78
     doi.org/10.1002/wcms.81
  2. Neese, F.
     Software update: the ORCA program system, version 4.0
     WIRES Comput. Molec. Sci. 2018 8(1), 1-6
     doi.org/10.1002/wcms.1327
  3. Neese, F.; Wennmohs, F.; Becker, U.; Riplinger, C.
     The ORCA quantum chemistry program package
     J. Chem. Phys. 2020 152(22), 224108
     doi.org/10.1063/5.0004608
  4. Neese, F.
     Software update: The ORCA program system—Version 5.0
     WIRES Comput. Molec. Sci. 2022 12(1), e1606
     doi.org/10.1002/wcms.1606

List of optional additional citations

  1. Neese, F.
     Approximate second-order SCF convergence for spin unrestricted wavefunctions
     Chem. Phys. Lett. 2000 325(1-3), 93-98
     doi.org/10.1016/s0009-2614(00)00662-x

Timings for individual modules:

Sum of individual times          ...       74.933 sec (=   1.249 min)
Startup calculation              ...        4.473 sec (=   0.075 min)   6.0 %
SCF iterations                   ...       43.288 sec (=   0.721 min)  57.8 %
Property calculations            ...        0.035 sec (=   0.001 min)   0.0 %
SCF Gradient evaluation          ...       27.122 sec (=   0.452 min)  36.2 %
Geometry relaxation              ...        0.015 sec (=   0.000 min)   0.0 %
                             ****ORCA TERMINATED NORMALLY****
TOTAL RUN TIME: 0 days 0 hours 1 minutes 15 seconds 232 msec
