
                                 *****************
                                 * O   R   C   A *
                                 *****************

                                            #,                                       
                                            ###                                      
                                            ####                                     
                                            #####                                    
                                            ######                                   
                                           ########,                                 
                                     ,,################,,,,,                         
                               ,,#################################,,                 
                          ,,##########################################,,             
                       ,#########################################, ''#####,          
                    ,#############################################,,   '####,        
                  ,##################################################,,,,####,       
                ,###########''''           ''''###############################       
              ,#####''   ,,,,##########,,,,          '''####'''          '####       
            ,##' ,,,,###########################,,,                        '##       
           ' ,,###''''                  '''############,,,                           
         ,,##''                                '''############,,,,        ,,,,,,###''
      ,#''                                            '''#######################'''  
     '                                                          ''''####''''         
             ,#######,   #######,   ,#######,      ##                                
            ,#'     '#,  ##    ##  ,#'     '#,    #''#        ,####,    ,#,          
            ##       ##  ##   ,#'  ##            #'  '#       #'       ,# #          
            ##       ##  #######   ##           ,######,      #####,      #          
            '#,     ,#'  ##    ##  '#,     ,#' ,#      #,     #,   #      #          
             '#######'   ##     ##  '#######'  #'      '#     '####' #    #          



                #########################################################
                #                        -***-                          #
                #          Department of theory and spectroscopy        #
                #                                                       #
                #                      Frank Neese                      #
                #                                                       #
                #     Directorship, Architecture, Infrastructure        #
                #                    SHARK, DRIVERS                     #
                #        Core code/Algorithms in most modules           #
                #                                                       #
                #        Max Planck Institute fuer Kohlenforschung      #
                #                Kaiser Wilhelm Platz 1                 #
                #                 D-45470 Muelheim/Ruhr                 #
                #                      Germany                          #
                #                                                       #
                #                  All rights reserved                  #
                #                        -***-                          #
                #########################################################


                         Program Version 6.1.0  -  RELEASE   -
                                (GIT: $679e74b$)
                          ($2025-06-10 18:02:51 +0200$)


 With contributions from (in alphabetic order):
[Max-Planck-Institut fuer Kohlenforschung]                               
  Daniel Aravena         : Magnetic Suceptibility                        
  Michael Atanasov       : Ab Initio Ligand Field Theory (pilot matlab implementation)
  Alexander A. Auer      : GIAO ZORA, VPT2 properties, NMR spectrum      
  Ute Becker             : All parallelization in ORCA, NUMFREQ, NUMCALC 
  Giovanni Bistoni       : ED, misc. LED, open-shell LED, HFLD           
  Dmytro Bykov           : pre 5.0 version of the SCF Hessian            
  Marcos Casanova-Páez   : Triplet and SCS-CIS(D). UHF-(DLPNO)-IP/EA/STEOM-CCSD. UHF-CVS-IP/STEOM-CCSD   
  Vijay G. Chilkuri      : MRCI spin determinant printing, contributions to CSF-ICE 
  Pauline Colinet        : FMM embedding                                 
  Dipayan Datta          : RHF DLPNO-CCSD density                        
  Achintya Kumar Dutta   : EOM-CC, STEOM-CC                              
  Nicolas Foglia         : Exact transition moments, OPA infrastructure, MCD improvements    
  Dmitry Ganyushin       : Spin-Orbit,Spin-Spin,Magnetic field MRCI      
  Miquel Garcia-Rates    : C-PCM and meta-GGA Hessian, CCSD/C-PCM, Gaussian charge scheme 
  Tiago L. C. Gouveia    : GS-ROHF, GS-ROCIS                             
  Yang Guo               : DLPNO-NEVPT2, F12-NEVPT2, CIM, IAO-localization        
  Andreas Hansen         : Spin unrestricted coupled pair/coupled cluster methods 
  Ingolf Harden          : AUTO-CI MPn and infrastructure                
  Benjamin Helmich-Paris : MC-RPA, TRAH-(SCF,CASSCF), AVAS, COSX integrals, SCF dyn. polar., MC-PDFT, srDFT 
  Lee Huntington         : MR-EOM, pCC                                   
  Robert Izsak           : Overlap fitted RIJCOSX, COSX-SCS-MP3, EOM     
  Riya Kayal             : Wick's Theorem for AUTO-CI, AUTO-CI UHF-CCSDT 
  Emily Kempfer          : AUTO-CI RHF CISDT and CCSDT, approximate NEVPT4
  Christian Kollmar      : KDIIS, OOCD, Brueckner-CCSD(T), CCSD density, CASPT2, CASPT2-K, improved NEVPT2 
  Axel Koslowski         : Symmetry handling                             
  Simone Kossmann        : meta-GGA functionals, TD-DFT gradient, OOMP2, (MP2 Hessian; deprecated post 5.0) 
  Lucas Lang             : DCDCAS, Hyperfine gauge corrections, ICE-SOC+SSC
  Marvin Lechner         : AUTO-CI (C++ implementation), FIC-MRCC        
  Spencer Leger          : CASSCF response                               
  Dagmar Lenk            : GEPOL surface, SMD, ORCA-2-JSON               
  Dimitrios Liakos       : Extrapolation schemes; Compound Job, Property file
  Dimitrios Manganas     : Further ROCIS development; embedding schemes. LFT, Crystal Embedding 
  Dimitrios Pantazis     : SARC Basis sets                               
  Anastasios Papadopoulos: AUTO-CI, single reference methods and gradients 
  Taras Petrenko         : pre 6.0 DFT Hessian and TD-DFT gradient,  ECA, NRVS 
  Petra Pikulova         : Analytic Raman intensities                    
  Peter Pinski           : DLPNO-MP2, DLPNO-MP2 Gradient                 
  Shashank Vittal Rao    : ES-AILFT, MagRelax                            
  Christoph Reimann      : Effective Core Potentials                     
  Marius Retegan         : Local ZFS, SOC                                
  Christoph Riplinger    : Optimizer, TS searches, QM/MM, DLPNO-CCSD(T), (RO)-DLPNO pert. Triples 
  Michael Roemelt        : Original ROCIS implementation, recursive CI coupling coefficients
  Masaaki Saitow         : Open-shell DLPNO-CCSD energy and density      
  Barbara Sandhoefer     : DKH picture change effects                    
  Yorick L. A. Schmerwitz: GMF and freeze-and-release deltaSCF, NEB S-IDPP initial path                    
  Kantharuban Sivalingam : CASSCF convergence/infrastructure, NEVPT2, NEVPT3, NEVPT4(SD), FIC-MRCI and CEPA variants
  Bernardo de Souza      : ESD, SOC TD-DFT                               
  Georgi L. Stoychev     : AutoAux, RI-MP2 NMR, DLPNO-MP2 response, X2C  
  Van Anh Tran           : RI-MP2 g-tensors                              
  Willem Van den Heuvel  : Paramagnetic NMR                              
  Zikuan Wang            : NOTCH, Electric field optimization            
  Frank Wennmohs         : Technical directorship and infrastructure     
  Hang Xu                : AUTO-CI-Response properties                   
                                                                         
[FACCTs GmbH]                                                            
  Markus Bursch, Nicolas Foglia, Miquel Garcia-Rates, Ingolf Harden, Hagen Neugebauer, Anastasios Papadopoulos, 
  Christoph Riplinger, Bernardo de Souza, Georgi L. Stoychev                                                    
                                                                 
  APM, various basis sets, CI-OPT, improved COSX, DLPNO-Multilevel,           
  DOCKER, DRACO, updates on ESD, Fragmentator, GOAT, IRC, LR-CPCM, L-BFGS, MBIS, meta-GGA TD-DFT gradient, ML-optimized integration grids, 
  MM, NACMEs, nearIR, NEB, NEB-TS, NL-DFT gradient (VV10), 2- and 3-layer-ONIOM, interface openCOSMO-RS, QMMM,   
  Crystal-QMMM, RESP, rigid body optimization, SF, symmetry and pop. for TD-DFT, various functionals, SOLVATOR                                   
                                                                         
[Other institutions]                                                     
  V. Asgeirsson          : NEB                                           
  Christoph Bannwarth    : sTDA-DFT, sTD-DFT, PBEh-3c, B97-3c, D3        
  Giovanni Bistoni       : ETS/NOCV, ADLD/ADEX, COVALED                  
  Martin Brehm           : Molecular dynamics                            
  Ronald Cardenas        : ETS/NOCV                                      
  Martina Colucci        : COVALED                                       
  Sebastian Ehlert       : rSCAN, r2SCAN, r2SCAN-3c, D4, dhf basis sets  
  Marvin Friede          : D4 for Fr, Ra, Ac-Lr                          
  Lars Goerigk           : TD-DFT with DH, B97 family of functionals     
  Stefan Grimme          : VdW corrections, initial TS optimization, DFT functionals, gCP, sTDA/sTD-DF 
  Waldemar Hujo          : DFT-NL                                        
  H. Jonsson             : NEB                                           
  Holger Kruse           : gCP                                           
  Marcel Mueller         : wB97X-3c, vDZP basis set                      
  Hagen Neugebauer       : wr2SCAN, Native XTB                           
  Gianluca Regni         : ADLD/ADEX                                     
  Tobias Risthaus        : pre 6.0 range-separated hybrid DFT and stability analysis
  Lukas Wittmann         : regularized MP2, r2SCAN double-hybrids, wr2SCAN        
                                                                         
We gratefully acknowledge several colleagues who have allowed us to      
interface, adapt or use parts of their codes:                            
  Ed Valeev, F. Pavosevic, A. Kumar             : LibInt (2-el integral package), F12 methods 
  Garnet Chan, S. Sharma, J. Yang, R. Olivares  : DMRG                   
  Ulf Ekstrom                                   : XCFun DFT Library      
  Mihaly Kallay                                 : mrcc  (arbitrary order and MRCC methods)
  Frank Weinhold                                : gennbo (NPA and NBO analysis)           
  Simon Mueller                                 : openCOSMO-RS                            
  Christopher J. Cramer and Donald G. Truhlar   : smd solvation model                     
  S Lehtola, MJT Oliveira, MAL Marques          : LibXC Library                           
  Liviu Ungur et al                             : ANISO software                          


 Your calculation uses the libint2 library for the computation of 2-el integrals
 For citations please refer to: http://libint.valeyev.net

 Your ORCA version has been built with support for libXC version: 7.0.0
 For citations please refer to: https://libxc.gitlab.io

 This ORCA versions uses:
   CBLAS   interface :  Fast vector & matrix operations
   LAPACKE interface :  Fast linear algebra routines
   SCALAPACK package :  Parallel linear algebra routines
   Shared memory     :  Shared parallel matrices
   BLAS/LAPACK       :  OpenBLAS 0.3.29  USE64BITINT DYNAMIC_ARCH NO_AFFINITY Haswell SINGLE_THREADED
        Core in use  :  Haswell
   Copyright (c) 2011-2014, The OpenBLAS Project


  ***********************************
  * Starting time: Sat Aug 30 15:26:57 2025
  * Host name:     chemlab03
  * Process ID:    78586
  * Working dir.:  /home/vivek/mm-project/vivek/xtb-goat/B97-D-opt/e/2
  ***********************************



***************************************
The coordinates will be read from file: /home/vivek/mm-project/vivek/xtb-goat/xtb-goat/e/E_CONF/2.xyz
***************************************


Your calculation utilizes empirical dispersion correction


Warning: RI is on but no J-basis has been assigned. Assigning Def2/J (nothing to worry about!)
================================================================================

----- Orbital basis set information -----
Your calculation utilizes the basis: 6-31G**
   H-He, Li-Ne : W. J. Hehre, R. Ditchfield and J.A. Pople, J. Chem. Phys. 56, 2257 (1972).
                 Note: He and Ne are unpublished basis sets taken from the Gaussian program.
                 Note: Li and B from J. D. Dill and J. A. Pople, J. Chem. Phys. 62, 2921 (1975).
   Na - Ar     : M. M. Francl, W. J. Pietro, W. J. Hehre, J. S. Binkley, M. S. Gordon, 
                 D. J. DeFrees and J. A. Pople, J. Chem. Phys. 77, 3654 (1982).
   K - Zn      : V. A. Rassolov, J. A. Pople, M. A. Ratner, and T. L. Windus, J. Chem. Phys. 109, 1223 (1998).

----- AuxJ basis set information -----
Your calculation utilizes the auxiliary basis: def2/J
   H-Rn: F. Weigend, Phys. Chem. Chem. Phys. 8, 1057 (2006).
   Fr-Lr: K. Eichkorn, F. Weigend, O. Treutler, R. Ahlrichs; Theor. Chem. Acc. 97, 119 (1997).

================================================================================
                                        WARNINGS
                       Please study these warnings very carefully!
================================================================================


WARNING: Geometry Optimization
  ===> : Switching off AutoStart
         For restart on a previous wavefunction, please use MOREAD

INFO   : The exchange functional is Grimme's B97(-D)
         As described in S. Grimme, J. Comput. Chem. 27, 1787 (2006).
         Note that this functional defaults to a pure GGA. 

INFO   : The correlation functional is Grimme's B97(-D)
         As described in S. Grimme, J. Comput. Chem. 27, 1787 (2006).

================================================================================
                                       INPUT FILE
================================================================================
NAME = 2.inp
|  1> ! B97-D 6-31G** opt
|  2> 
|  3> * xyzfile 0 1 /home/vivek/mm-project/vivek/xtb-goat/xtb-goat/e/E_CONF/2.xyz
|  4> 
|  5>                          ****END OF INPUT****
================================================================================

                       *****************************
                       * Geometry Optimization Run *
                       *****************************

Geometry optimization settings:
Update method            Update   .... BFGS
Choice of coordinates    CoordSys .... (2022) Redundant Internals
Initial Hessian          InHess   .... Almloef's Model
Max. no of cycles        MaxIter  .... 57

Convergence Tolerances:
Energy Change            TolE     ....  5.0000e-06 Eh
Max. Gradient            TolMAXG  ....  3.0000e-04 Eh/bohr
RMS Gradient             TolRMSG  ....  1.0000e-04 Eh/bohr
Max. Displacement        TolMAXD  ....  4.0000e-03 bohr
RMS Displacement         TolRMSD  ....  2.0000e-03 bohr
Strict Convergence                .... False

------------------------------------------------------------------------------
                        ORCA OPTIMIZATION COORDINATE SETUP
------------------------------------------------------------------------------

The optimization will be done in redundant internal coordinates (2022)
Making redundant internal coordinates   ...  (2022 redundants) done
Evaluating the initial hessian          ...  (Almloef) done
Evaluating the coordinates              ...  done
Calculating the B-matrix                .... done
Calculating the G-matrix                .... done
The number of degrees of freedom        ....   78

    -----------------------------------------------------------------
                    Redundant Internal Coordinates


    -----------------------------------------------------------------
         Definition                    Initial Value    Approx d2E/dq
    -----------------------------------------------------------------
      1. B(C   1,C   0)                  1.5110         0.400562   
      2. B(O   4,C   0)                  1.3327         0.690823   
      3. B(C   5,C   1)                  1.5251         0.380383   
      4. B(H   6,C   1)                  1.0900         0.360093   
      5. B(H   7,C   1)                  1.0931         0.355971   
      6. B(C   8,C   5)                  1.5392         0.361109   
      7. B(H   9,C   5)                  1.0899         0.360267   
      8. B(H  10,C   5)                  1.0921         0.357311   
      9. B(C  11,C   8)                  1.5263         0.378677   
     10. B(O  12,C  11)                  1.2038         1.109052   
     11. B(N  13,C   8)                  1.4505         0.448137   
     12. B(N  13,H   3)                  1.0141         0.426219   
     13. B(N  13,H   2)                  1.0148         0.425076   
     14. B(H  14,O   4)                  0.9702         0.500805   
     15. B(O  15,C  11)                  1.3334         0.688907   
     16. B(H  16,C   8)                  1.0962         0.352020   
     17. B(O  17,C   0)                  1.2029         1.112750   
     18. B(H  18,O  15)                  0.9695         0.502150   
     19. A(O   4,C   0,O  17)          122.8632         0.486053   
     20. A(C   1,C   0,O  17)          125.4853         0.442886   
     21. A(C   1,C   0,O   4)          111.6212         0.406691   
     22. A(C   0,C   1,H   6)          108.3771         0.328062   
     23. A(C   0,C   1,H   7)          106.5642         0.327440   
     24. A(C   5,C   1,H   7)          109.6909         0.324667   
     25. A(H   6,C   1,H   7)          107.9598         0.290312   
     26. A(C   0,C   1,C   5)          112.2667         0.368859   
     27. A(C   5,C   1,H   6)          111.7601         0.325282   
     28. A(C   0,O   4,H  14)          110.7710         0.374647   
     29. A(C   8,C   5,H  10)          108.7386         0.322108   
     30. A(C   1,C   5,H  10)          109.1063         0.324867   
     31. A(C   8,C   5,H   9)          107.1736         0.322543   
     32. A(H   9,C   5,H  10)          108.5883         0.290506   
     33. A(C   1,C   5,H   9)          110.2647         0.325308   
     34. A(C   1,C   5,C   8)          112.8665         0.362367   
     35. A(C   5,C   8,C  11)          108.3544         0.362089   
     36. A(N  13,C   8,H  16)          108.4214         0.330950   
     37. A(C  11,C   8,H  16)          107.6258         0.323833   
     38. A(C   5,C   8,H  16)          109.2657         0.321322   
     39. A(C  11,C   8,N  13)          114.3809         0.373407   
     40. A(C   5,C   8,N  13)          108.7055         0.370366   
     41. A(C   8,C  11,O  12)          124.6646         0.438151   
     42. A(O  12,C  11,O  15)          123.1399         0.485505   
     43. A(C   8,C  11,O  15)          112.1955         0.402479   
     44. A(H   3,N  13,C   8)          110.6269         0.338710   
     45. A(H   2,N  13,C   8)          109.7218         0.338558   
     46. A(H   2,N  13,H   3)          107.6943         0.301667   
     47. A(C  11,O  15,H  18)          110.5218         0.374640   
     48. D(C   5,C   1,C   0,O  17)     25.5071         0.011906   
     49. D(H   6,C   1,C   0,O  17)    149.4347         0.011906   
     50. D(H   6,C   1,C   0,O   4)    -32.5272         0.011906   
     51. D(H   7,C   1,C   0,O   4)     83.4364         0.011906   
     52. D(C   5,C   1,C   0,O   4)   -156.4548         0.011906   
     53. D(H  14,O   4,C   0,O  17)     -3.4795         0.035649   
     54. D(H  14,O   4,C   0,C   1)    178.4223         0.035649   
     55. D(H   9,C   5,C   1,H   7)    -45.8781         0.011531   
     56. D(H   9,C   5,C   1,H   6)     73.8232         0.011531   
     57. D(H   9,C   5,C   1,C   0)   -164.1545         0.011531   
     58. D(C   8,C   5,C   1,H   7)   -165.6997         0.011531   
     59. D(C   8,C   5,C   1,H   6)    -45.9984         0.011531   
     60. D(C   8,C   5,C   1,C   0)     76.0239         0.011531   
     61. D(C  11,C   8,C   5,H   9)    177.0157         0.010457   
     62. D(C  11,C   8,C   5,C   1)    -61.3986         0.010457   
     63. D(N  13,C   8,C   5,H  10)    -65.0439         0.010457   
     64. D(N  13,C   8,C   5,H   9)     52.1598         0.010457   
     65. D(N  13,C   8,C   5,C   1)    173.7455         0.010457   
     66. D(C  11,C   8,C   5,H  10)     59.8120         0.010457   
     67. D(O  15,C  11,C   8,N  13)     35.3914         0.010705   
     68. D(O  15,C  11,C   8,C   5)    -86.0310         0.010705   
     69. D(O  12,C  11,C   8,H  16)    -24.0371         0.010705   
     70. D(O  12,C  11,C   8,N  13)   -144.5696         0.010705   
     71. D(O  12,C  11,C   8,C   5)     94.0081         0.010705   
     72. D(H   3,N  13,C   8,C  11)     60.2042         0.017130   
     73. D(H   3,N  13,C   8,C   5)   -178.5668         0.017130   
     74. D(H   2,N  13,C   8,H  16)   -178.5663         0.017130   
     75. D(H   2,N  13,C   8,C  11)    -58.4767         0.017130   
     76. D(H   2,N  13,C   8,C   5)     62.7523         0.017130   
     77. D(H  18,O  15,C  11,O  12)     -6.6758         0.035433   
     78. D(H  18,O  15,C  11,C   8)    173.3625         0.035433   
    -----------------------------------------------------------------

Number of atoms                         .... 19
Number of degrees of freedom            .... 78


         *************************************************************
         *                GEOMETRY OPTIMIZATION CYCLE   1            *
         *************************************************************
---------------------------------
CARTESIAN COORDINATES (ANGSTROEM)
---------------------------------
  C     -2.797156   -0.445423   -0.094750
  C     -2.360665    0.612925   -1.080924
  H     -0.016679    2.943180    1.328215
  H      1.422605    2.422080    0.744387
  O     -2.957408   -1.629771   -0.684331
  C     -1.634813    1.770281   -0.403026
  H     -1.741922    0.138568   -1.842668
  H     -3.268830    0.980933   -1.565444
  C     -0.190708    1.418447   -0.002993
  H     -1.583130    2.627988   -1.073467
  H     -2.186064    2.061929    0.493512
  C     -0.236102    0.265666    0.996332
  O     -0.138847   -0.898056    0.704072
  N      0.459326    2.616190    0.493707
  H     -3.213434   -2.304894   -0.036274
  O     -0.396910    0.691528    2.249634
  H      0.354847    1.069679   -0.887491
  O     -3.016425   -0.263023    1.073837
  H     -0.526658   -0.058904    2.849567

----------------------------
CARTESIAN COORDINATES (A.U.)
----------------------------
  NO LB      ZA    FRAG     MASS         X           Y           Z
   0 C     6.0000    0    12.011   -5.285860   -0.841727   -0.179052
   1 C     6.0000    0    12.011   -4.461011    1.158260   -2.042650
   2 H     1.0000    0     1.008   -0.031519    5.561803    2.509963
   3 H     1.0000    0     1.008    2.688334    4.577067    1.406687
   4 O     8.0000    0    15.999   -5.588692   -3.079821   -1.293199
   5 C     6.0000    0    12.011   -3.089349    3.345346   -0.761609
   6 H     1.0000    0     1.008   -3.291755    0.261855   -3.482137
   7 H     1.0000    0     1.008   -6.177193    1.853696   -2.958261
   8 C     6.0000    0    12.011   -0.360386    2.680476   -0.005655
   9 H     1.0000    0     1.008   -2.991681    4.966178   -2.028559
  10 H     1.0000    0     1.008   -4.131063    3.896482    0.932603
  11 C     6.0000    0    12.011   -0.446169    0.502037    1.882795
  12 O     8.0000    0    15.999   -0.262383   -1.697081    1.330504
  13 N     7.0000    0    14.007    0.868001    4.943882    0.932971
  14 H     1.0000    0     1.008   -6.072510   -4.355618   -0.068548
  15 O     8.0000    0    15.999   -0.750052    1.306798    4.251193
  16 H     1.0000    0     1.008    0.670563    2.021401   -1.677114
  17 O     8.0000    0    15.999   -5.700218   -0.497041    2.029258
  18 H     1.0000    0     1.008   -0.995239   -0.111312    5.384902

--------------------------------
INTERNAL COORDINATES (ANGSTROEM)
--------------------------------
 C      0   0   0     0.000000000000     0.00000000     0.00000000
 C      1   0   0     1.511013479041     0.00000000     0.00000000
 H      2   1   0     4.090025539119   100.38015832     0.00000000
 H      3   2   1     1.638273651541    96.45107773   104.41620356
 O      1   2   3     1.332654450627   111.62122980   212.70520500
 C      2   1   3     1.525083678573   112.26671334   350.84001971
 H      2   1   3     1.090005526821   108.37710930   114.76763025
 H      2   1   3     1.093139147010   106.56423151   230.73118056
 C      6   2   1     1.539238148529   112.86650355    76.02386654
 H      6   2   1     1.089873442991   110.26469214   195.84546346
 H      6   2   1     1.092116213229   109.10625249   315.02217345
 C      9   6   2     1.526307005526   108.35443342   298.60144667
 O     12   9   6     1.203796042623   124.66462204    94.00807045
 N      4   3   2     1.014112899462    36.16790459    33.28485128
 H      5   1   2     0.970215418122   110.77095467   178.42234292
 O     12   9   6     1.333410493701   112.19548901   273.96900976
 H      9   6   2     1.096177667202   109.26574687    55.59670448
 O      1   2   3     1.202890067958   125.48531827    34.66709371
 H     16  12   9     0.969485232995   110.52184925   173.36252758

---------------------------
INTERNAL COORDINATES (A.U.)
---------------------------
 C      0   0   0     0.000000000000     0.00000000     0.00000000
 C      1   0   0     2.855401660051     0.00000000     0.00000000
 H      2   1   0     7.729028149678   100.38015832     0.00000000
 H      3   2   1     3.095888533831    96.45107773   104.41620356
 O      1   2   3     2.518351942837   111.62122980   212.70520500
 C      2   1   3     2.881990483815   112.26671334   350.84001971
 H      2   1   3     2.059811930152   108.37710930   114.76763025
 H      2   1   3     2.065733614117   106.56423151   230.73118056
 C      6   2   1     2.908738555604   112.86650355    76.02386654
 H      6   2   1     2.059562327886   110.26469214   195.84546346
 H      6   2   1     2.063800549418   109.10625249   315.02217345
 C      9   6   2     2.884302236730   108.35443342   298.60144667
 O     12   9   6     2.274844841656   124.66462204    94.00807045
 N      4   3   2     1.916395648860    36.16790459    33.28485128
 H      5   1   2     1.833441431159   110.77095467   178.42234292
 O     12   9   6     2.519780657191   112.19548901   273.96900976
 H      9   6   2     2.071475585133   109.26574687    55.59670448
 O      1   2   3     2.273132797655   125.48531827    34.66709371
 H     16  12   9     1.832061581242   110.52184925   173.36252758

---------------------
BASIS SET INFORMATION
---------------------
There are 4 groups of distinct atoms

 Group   1 Type C   : 10s4p1d contracted to 3s2p1d pattern {631/31/1}
 Group   2 Type H   : 4s1p contracted to 2s1p pattern {31/1}
 Group   3 Type O   : 10s4p1d contracted to 3s2p1d pattern {631/31/1}
 Group   4 Type N   : 10s4p1d contracted to 3s2p1d pattern {631/31/1}

Atom   0C    basis set group =>   1
Atom   1C    basis set group =>   1
Atom   2H    basis set group =>   2
Atom   3H    basis set group =>   2
Atom   4O    basis set group =>   3
Atom   5C    basis set group =>   1
Atom   6H    basis set group =>   2
Atom   7H    basis set group =>   2
Atom   8C    basis set group =>   1
Atom   9H    basis set group =>   2
Atom  10H    basis set group =>   2
Atom  11C    basis set group =>   1
Atom  12O    basis set group =>   3
Atom  13N    basis set group =>   4
Atom  14H    basis set group =>   2
Atom  15O    basis set group =>   3
Atom  16H    basis set group =>   2
Atom  17O    basis set group =>   3
Atom  18H    basis set group =>   2
---------------------------------
AUXILIARY/J BASIS SET INFORMATION
---------------------------------
There are 4 groups of distinct atoms

 Group   1 Type C   : 12s5p4d2f1g contracted to 6s4p3d1f1g pattern {711111/2111/211/2/1}
 Group   2 Type H   : 5s2p1d contracted to 3s1p1d pattern {311/2/1}
 Group   3 Type O   : 12s5p4d2f1g contracted to 6s4p3d1f1g pattern {711111/2111/211/2/1}
 Group   4 Type N   : 12s5p4d2f1g contracted to 6s4p3d1f1g pattern {711111/2111/211/2/1}

Atom   0C    basis set group =>   1
Atom   1C    basis set group =>   1
Atom   2H    basis set group =>   2
Atom   3H    basis set group =>   2
Atom   4O    basis set group =>   3
Atom   5C    basis set group =>   1
Atom   6H    basis set group =>   2
Atom   7H    basis set group =>   2
Atom   8C    basis set group =>   1
Atom   9H    basis set group =>   2
Atom  10H    basis set group =>   2
Atom  11C    basis set group =>   1
Atom  12O    basis set group =>   3
Atom  13N    basis set group =>   4
Atom  14H    basis set group =>   2
Atom  15O    basis set group =>   3
Atom  16H    basis set group =>   2
Atom  17O    basis set group =>   3
Atom  18H    basis set group =>   2
------------------------------------------------------------------------------
                             ORCA STARTUP CALCULATIONS
                           -- RI-GTO INTEGRALS CHOSEN --
------------------------------------------------------------------------------
------------------------------------------------------------------------------
                   ___                                                        
                  /   \      - P O W E R E D   B Y -                         
                 /     \                                                     
                 |  |  |   _    _      __       _____    __    __             
                 |  |  |  | |  | |    /  \     |  _  \  |  |  /  |          
                  \  \/   | |  | |   /    \    | | | |  |  | /  /          
                 / \  \   | |__| |  /  /\  \   | |_| |  |  |/  /          
                |  |  |   |  __  | /  /__\  \  |    /   |      \           
                |  |  |   | |  | | |   __   |  |    \   |  |\   \          
                \     /   | |  | | |  |  |  |  | |\  \  |  | \   \       
                 \___/    |_|  |_| |__|  |__|  |_| \__\ |__|  \__/        
                                                                              
                      - O R C A' S   B I G   F R I E N D -                    
                                      &                                       
                       - I N T E G R A L  F E E D E R -                       
                                                                              
 v1 FN, 2020, v2 2021, v3 2022-2024                                           
------------------------------------------------------------------------------


----------------------
SHARK INTEGRAL PACKAGE
----------------------

Number of atoms                             ...     19
Number of basis functions                   ...    185
Number of shells                            ...     87
Maximum angular momentum                    ...      2
Integral batch strategy                     ... SHARK/LIBINT Hybrid
RI-J (if used) integral strategy            ... SPLIT-RIJ (Revised 2003 algorithm where possible)
Printlevel                                  ...      1
Contraction scheme used                     ... SEGMENTED contraction
Prescreening option                         ... SCHWARTZ
   Thresh                                   ... 2.500e-11
   Tcut                                     ... 2.500e-12
   Tpresel                                  ... 2.500e-12 
Coulomb Range Separation                    ... NOT USED
Exchange Range Separation                   ... NOT USED
Multipole approximations                    ... NOT USED
Finite Nucleus Model                        ... NOT USED
CABS basis                                  ... NOT available
Auxiliary Coulomb fitting basis             ... AVAILABLE
   # of basis functions in Aux-J            ...    589
   # of shells in Aux-J                     ...    195
   Maximum angular momentum in Aux-J        ...      4
Auxiliary J/K fitting basis                 ... NOT available
Auxiliary Correlation fitting basis         ... NOT available
Auxiliary 'external' fitting basis          ... NOT available

Checking pre-screening integrals            ... done (  0.0 sec) Dimension = 87
   => SHARK Basis and OBASIS are compatible. Storing Pre-screening
Shell pair information
Shell pair cut-off parameter TPreSel        ...   2.5e-12
Total number of shell pairs                 ...      3828
Shell pairs after pre-screening             ...      3487
Total number of primitive shell pairs       ...     19347
Primitive shell pairs kept                  ...     11492
          la=0 lb=0:   1056 shell pairs
          la=1 lb=0:   1257 shell pairs
          la=1 lb=1:    400 shell pairs
          la=2 lb=0:    448 shell pairs
          la=2 lb=1:    272 shell pairs
          la=2 lb=2:     54 shell pairs

Checking whether 4 symmetric matrices of dimension 185 fit in memory
:Max Core in MB      =   4096.00
 MB in use           =      8.18
 MB left             =   4087.82
 MB needed           =      0.53
 Data fit in memory  = YES
Calculating RI/J V-Matrix + Cholesky decomp.... done (  0.0 sec)
Calculating Nuclear repulsion               ... done (  0.0 sec) ENN=    582.766122090233 Eh

Diagonalization of the overlap matrix:
Smallest eigenvalue                        ... 3.241e-03
Time for diagonalization                   ...    0.002 sec
Threshold for overlap eigenvalues          ... 1.000e-07
Number of eigenvalues below threshold      ... 0
Time for construction of square roots      ...    0.001 sec
Total time needed                          ...    0.002 sec

-------------------
DFT GRID GENERATION
-------------------

General Integration Accuracy     IntAcc      ... 4.388
Radial Grid Type                 RadialGrid  ... OptM3 with GC (2021)
Angular Grid (max. ang.)         AngularGrid ... 4 (Lebedev-302)
Angular grid pruning method      GridPruning ... 4 (adaptive)
Weight generation scheme         WeightScheme... mBecke (2022)
Basis function cutoff            BFCut       ... 1.0000e-11
Integration weight cutoff        WCut        ... 1.0000e-14
Partially contracted basis set               ... off
Rotationally invariant grid construction     ... off
Angular grids for H and He will be reduced by one unit

Total number of grid points                  ...    89137
Total number of batches                      ...     1401
Average number of points per batch           ...       63
Average number of grid points per atom       ...     4691
Grids setup in   0.4 sec
Initializing property integral containers    ... done (  0.0 sec)

SHARK setup successfully completed in   0.4 seconds

Maximum memory used throughout the entire STARTUP-calculation: 37.9 MB
-------------------------------------------------------------------------------
                                 ORCA GUESS
                   Start orbitals & Density for SCF / CASSCF
-------------------------------------------------------------------------------

------------
SCF SETTINGS
------------
Hamiltonian:
 Density Functional     Method          .... DFT(GTOs)
 Exchange Functional    Exchange        .... B97(D)
 Correlation Functional Correlation     .... B97(D)
 Gradients option       PostSCFGGA      .... off
 RI-approximation to the Coulomb term is turned on
   Number of AuxJ basis functions       .... 589


General Settings:
 Integral files         IntName         .... 2
 Hartree-Fock type      HFTyp           .... RHF
 Total Charge           Charge          ....    0
 Multiplicity           Mult            ....    1
 Number of Electrons    NEL             ....   78
 Basis Dimension        Dim             ....  185
 Nuclear Repulsion      ENuc            ....    582.7661220902 Eh

Convergence Acceleration:
 AO-DIIS                CNVDIIS         .... on
   Start iteration      DIISMaxIt       ....    12
   Startup error        DIISStart       ....  0.200000
   # of expansion vecs  DIISMaxEq       ....     5
   Bias factor          DIISBfac        ....   1.050
   Max. coefficient     DIISMaxC        ....  10.000
 MO-DIIS                CNVKDIIS        .... off
 Trust-Rad. Augm. Hess. CNVTRAH         .... auto
   Auto Start mean grad. ratio tolernc. ....  1.125000
   Auto Start start iteration           ....    50
   Auto Start num. interpolation iter.  ....    10
   Max. Number of Micro iterations      ....    24
   Max. Number of Macro iterations      .... Maxiter - #DIIS iter
   Number of Davidson start vectors     ....     2
   Converg. threshold    (grad. norm)   ....   1.000e-05
   Grad. Scal. Fac. for Micro threshold ....   0.100
   Minimum threshold for Micro iter.    ....   1.000e-02
   NR start threshold (gradient norm)   ....   1.000e-04
   Initial trust radius                 ....   0.400
   Minimum AH scaling param. (alpha)    ....   1.000
   Maximum AH scaling param. (alpha)    .... 1000.000
   Quad. conv. algorithm                .... NR
   White noise on init. David. guess    .... on
   Maximum white noise                  ....   0.010
   Pseudo random numbers                .... off
   Inactive MOs                         .... canonical
   Orbital update algorithm             .... Taylor
   Preconditioner                       .... Diag
   Full preconditioner red. dimension   ....   250
 SOSCF                 CNVSOSCF           .... on
   Start iteration     SOSCFMaxIt         ....   150
   Startup grad/error  SOSCFStart         ....  0.003300
   Hessian update      SOSCFHessUp        .... L-BFGS
   Autom. constraints  SOSCFAutoConstrain .... off
 Level Shifting         CNVShift        .... on
   Level shift para.    LevelShift      ....    0.2500
   Turn off err/grad.   ShiftErr        ....    0.0010
 Zerner damping         CNVZerner       .... off
 Static damping         CNVDamp         .... on
   Fraction old density DampFac         ....    0.7000
   Max. Damping (<1)    DampMax         ....    0.9800
   Min. Damping (>=0)   DampMin         ....    0.0000
   Turn off err/grad.   DampErr         ....    0.1000

SCF Procedure:
 Maximum # iterations   MaxIter         ....   125
 SCF integral mode      SCFMode         .... Direct
   Integral package                     .... SHARK and LIBINT hybrid scheme
 Reset frequency        DirectResetFreq ....    20
 Integral Threshold     Thresh          ....  2.500e-11 Eh
 Primitive CutOff       TCut            ....  2.500e-12 Eh

Convergence Tolerance:
 Convergence Check Mode ConvCheckMode   .... Total+1el-Energy
 Convergence forced     ConvForced      .... 0
 Energy Change          TolE            ....  1.000e-08 Eh
 1-El. energy change                    ....  1.000e-05 Eh
 Orbital Gradient       TolG            ....  1.000e-05
 Orbital Rotation angle TolX            ....  1.000e-05
 DIIS Error             TolErr          ....  5.000e-07

------------------------------
INITIAL GUESS: MODEL POTENTIAL
------------------------------
Loading Hartree-Fock densities                     ... done
Calculating cut-offs                               ... done
Initializing the effective Hamiltonian             ... done
Setting up the integral package (SHARK)            ... done
Starting the Coulomb interaction                   ... done (   0.1 sec)
Making the grid                                    ... done (   0.1 sec)
Mapping shells                                     ... done
Starting the XC term evaluation                    ... done (   0.1 sec)
  promolecular density results
     # of electrons  =     77.999077217
     EX              =    -66.732051311
     EC              =     -3.511254433
     EX+EC           =    -70.243305744
Transforming the Hamiltonian                       ... done (   0.0 sec)
Diagonalizing the Hamiltonian                      ... done (   0.0 sec)
Back transforming the eigenvectors                 ... done (   0.0 sec)
Now organizing SCF variables                       ... done
                      ------------------
                      INITIAL GUESS DONE (   0.3 sec)
                      ------------------
             **** ENERGY FILE WAS UPDATED (2.en.tmp) ****
Finished Guess after   0.3 sec
Maximum memory used throughout the entire GUESS-calculation: 13.5 MB

-------------------------------------------------------------------------------------------
                                      ORCA LEAN-SCF
                              memory conserving SCF solver
-------------------------------------------------------------------------------------------

----------------------------------------D-I-I-S--------------------------------------------
Iteration    Energy (Eh)           Delta-E    RMSDP     MaxDP     DIISErr   Damp  Time(sec)
-------------------------------------------------------------------------------------------
               ***  Starting incremental Fock matrix formation  ***
    1    -550.8647242845511300     0.00e+00  3.99e-03  1.08e-01  2.59e-01  0.700   0.6
    2    -551.0629385949016523    -1.98e-01  2.42e-03  5.91e-02  9.39e-02  0.700   0.5
                               ***Turning on AO-DIIS***
    3    -551.1208261692067936    -5.79e-02  8.77e-04  1.51e-02  2.53e-02  0.700   0.5
    4    -551.1600720228841510    -3.92e-02  1.15e-03  1.94e-02  1.69e-02  0.000   0.5
    5    -551.2521597267832476    -9.21e-02  4.03e-04  8.26e-03  9.25e-03  0.000   0.5
                              *** Initializing SOSCF ***
---------------------------------------S-O-S-C-F--------------------------------------
Iteration    Energy (Eh)           Delta-E    RMSDP     MaxDP     MaxGrad    Time(sec)
--------------------------------------------------------------------------------------
    6    -551.2530569894249766    -8.97e-04  1.41e-04  2.40e-03  2.78e-03     0.5
               *** Restarting incremental Fock matrix formation ***
    7    -551.2531206976982503    -6.37e-05  1.26e-04  3.43e-03  5.96e-04     0.6
    8    -551.2530950004993429     2.57e-05  7.06e-05  2.54e-03  1.58e-03     0.5
    9    -551.2531313243769091    -3.63e-05  4.38e-05  9.22e-04  1.88e-04     0.5
   10    -551.2531287661524857     2.56e-06  2.57e-05  5.27e-04  2.41e-04     0.5
   11    -551.2531329614976130    -4.20e-06  9.91e-06  2.94e-04  4.46e-05     0.4
   12    -551.2531327620431512     1.99e-07  6.27e-06  2.00e-04  9.26e-05     0.4
   13    -551.2531330375161360    -2.75e-07  4.65e-06  1.72e-04  3.08e-05     0.4
   14    -551.2531329834298504     5.41e-08  3.20e-06  1.18e-04  5.30e-05     0.4
   15    -551.2531330526985585    -6.93e-08  5.53e-07  1.31e-05  2.88e-06     0.4
   16    -551.2531330529579918    -2.59e-10  3.20e-07  9.81e-06  3.97e-06     0.4
                 **** Energy Check signals convergence ****

               *****************************************************
               *                     SUCCESS                       *
               *           SCF CONVERGED AFTER  16 CYCLES          *
               *****************************************************

             **** ENERGY FILE WAS UPDATED (2.en.tmp) ****

----------------
TOTAL SCF ENERGY
----------------

Total Energy       :       -551.25313305433019 Eh          -15000.36035 eV

Components:
Nuclear Repulsion  :        582.76612209023278 Eh           15857.87238 eV
Electronic Energy  :      -1134.01925514456298 Eh          -30858.23273 eV
One Electron Energy:      -1910.94573503368542 Eh          -51999.47705 eV
Two Electron Energy:        776.92647988912245 Eh           21141.24432 eV

Virial components:
Potential Energy   :      -1099.77680392321281 Eh          -29926.44827 eV
Kinetic Energy     :        548.52367086888273 Eh           14926.08791 eV
Virial Ratio       :          2.00497601531238

DFT components:
N(Alpha)           :       39.000030031920 electrons
N(Beta)            :       39.000030031920 electrons
N(Total)           :       78.000060063840 electrons
E(X)               :      -68.099954139445 Eh       
E(C)               :       -3.499634764929 Eh       
E(XC)              :      -71.599588904374 Eh       

---------------
SCF CONVERGENCE
---------------

  Last Energy change         ...    2.5943e-10  Tolerance :   1.0000e-08
  Last MAX-Density change    ...    9.8086e-06  Tolerance :   1.0000e-07
  Last RMS-Density change    ...    3.1960e-07  Tolerance :   5.0000e-09
  Last DIIS Error            ...    2.7835e-03  Tolerance :   5.0000e-07
  Last Orbital Gradient      ...    3.9730e-06  Tolerance :   1.0000e-05
  Last Orbital Rotation      ...    4.8399e-06  Tolerance :   1.0000e-05


----------------
ORBITAL ENERGIES
----------------

  NO   OCC          E(Eh)            E(eV) 
   0   2.0000     -18.809405      -511.8299 
   1   2.0000     -18.807556      -511.7796 
   2   2.0000     -18.748080      -510.1612 
   3   2.0000     -18.746920      -510.1296 
   4   2.0000     -13.989447      -380.6722 
   5   2.0000     -10.029914      -272.9278 
   6   2.0000     -10.023497      -272.7532 
   7   2.0000      -9.947266      -270.6789 
   8   2.0000      -9.920994      -269.9640 
   9   2.0000      -9.914308      -269.7820 
  10   2.0000      -1.019014       -27.7288 
  11   2.0000      -1.014860       -27.6157 
  12   2.0000      -0.928372       -25.2623 
  13   2.0000      -0.925880       -25.1945 
  14   2.0000      -0.818974       -22.2854 
  15   2.0000      -0.725378       -19.7385 
  16   2.0000      -0.649587       -17.6762 
  17   2.0000      -0.600339       -16.3361 
  18   2.0000      -0.554771       -15.0961 
  19   2.0000      -0.525914       -14.3109 
  20   2.0000      -0.459798       -12.5117 
  21   2.0000      -0.439692       -11.9646 
  22   2.0000      -0.434638       -11.8271 
  23   2.0000      -0.426117       -11.5952 
  24   2.0000      -0.414309       -11.2739 
  25   2.0000      -0.410005       -11.1568 
  26   2.0000      -0.383107       -10.4249 
  27   2.0000      -0.374374       -10.1872 
  28   2.0000      -0.354676        -9.6512 
  29   2.0000      -0.343657        -9.3514 
  30   2.0000      -0.331817        -9.0292 
  31   2.0000      -0.321463        -8.7475 
  32   2.0000      -0.307670        -8.3721 
  33   2.0000      -0.301128        -8.1941 
  34   2.0000      -0.269979        -7.3465 
  35   2.0000      -0.265326        -7.2199 
  36   2.0000      -0.236722        -6.4415 
  37   2.0000      -0.220900        -6.0110 
  38   2.0000      -0.185031        -5.0349 
  39   0.0000      -0.014888        -0.4051 
  40   0.0000      -0.010108        -0.2751 
  41   0.0000       0.051975         1.4143 
  42   0.0000       0.060373         1.6428 
  43   0.0000       0.086408         2.3513 
  44   0.0000       0.091132         2.4798 
  45   0.0000       0.104158         2.8343 
  46   0.0000       0.142292         3.8720 
  47   0.0000       0.144044         3.9196 
  48   0.0000       0.152567         4.1516 
  49   0.0000       0.163982         4.4622 
*Only the first 10 virtual orbitals were printed.

                    ********************************
                    * MULLIKEN POPULATION ANALYSIS *
                    ********************************

-----------------------
MULLIKEN ATOMIC CHARGES
-----------------------
   0 C :    0.529348
   1 C :   -0.274941
   2 H :    0.249294
   3 H :    0.241794
   4 O :   -0.451980
   5 C :   -0.199282
   6 H :    0.142765
   7 H :    0.144340
   8 C :   -0.038883
   9 H :    0.124860
  10 H :    0.133645
  11 C :    0.513564
  12 O :   -0.432226
  13 N :   -0.563191
  14 H :    0.318560
  15 O :   -0.456464
  16 H :    0.127999
  17 O :   -0.431945
  18 H :    0.322742
Sum of atomic charges:   -0.0000000

--------------------------------
MULLIKEN REDUCED ORBITAL CHARGES
--------------------------------
  0 C s       :     2.973907  s :     2.973907
      pz      :     0.800126  p :     2.369254
      px      :     0.793274
      py      :     0.775853
      dz2     :     0.028491  d :     0.127491
      dxz     :     0.023301
      dyz     :     0.048773
      dx2y2   :     0.013318
      dxy     :     0.013608

  1 C s       :     3.245330  s :     3.245330
      pz      :     0.998219  p :     2.995122
      px      :     1.036967
      py      :     0.959936
      dz2     :     0.003325  d :     0.034489
      dxz     :     0.007990
      dyz     :     0.010254
      dx2y2   :     0.006136
      dxy     :     0.006783

  2 H s       :     0.726702  s :     0.726702
      pz      :     0.010547  p :     0.024003
      px      :     0.006194
      py      :     0.007262

  3 H s       :     0.734265  s :     0.734265
      pz      :     0.006600  p :     0.023941
      px      :     0.011240
      py      :     0.006101

  4 O s       :     3.825287  s :     3.825287
      pz      :     1.612827  p :     4.603743
      px      :     1.737043
      py      :     1.253872
      dz2     :     0.003803  d :     0.022951
      dxz     :     0.003733
      dyz     :     0.009820
      dx2y2   :     0.002589
      dxy     :     0.003006

  5 C s       :     3.235815  s :     3.235815
      pz      :     1.030434  p :     2.927772
      px      :     0.921485
      py      :     0.975854
      dz2     :     0.004386  d :     0.035695
      dxz     :     0.008011
      dyz     :     0.009179
      dx2y2   :     0.008259
      dxy     :     0.005859

  6 H s       :     0.845626  s :     0.845626
      pz      :     0.004525  p :     0.011609
      px      :     0.003787
      py      :     0.003297

  7 H s       :     0.843643  s :     0.843643
      pz      :     0.003582  p :     0.012016
      px      :     0.005290
      py      :     0.003144

  8 C s       :     3.202213  s :     3.202213
      pz      :     0.972304  p :     2.779528
      px      :     0.960112
      py      :     0.847112
      dz2     :     0.007585  d :     0.057143
      dxz     :     0.009607
      dyz     :     0.015430
      dx2y2   :     0.013707
      dxy     :     0.010814

  9 H s       :     0.863597  s :     0.863597
      pz      :     0.003902  p :     0.011543
      px      :     0.002412
      py      :     0.005229

 10 H s       :     0.854604  s :     0.854604
      pz      :     0.005423  p :     0.011751
      px      :     0.003610
      py      :     0.002717

 11 C s       :     2.993844  s :     2.993844
      pz      :     0.762186  p :     2.366841
      px      :     0.777129
      py      :     0.827527
      dz2     :     0.029938  d :     0.125751
      dxz     :     0.014486
      dyz     :     0.045787
      dx2y2   :     0.015734
      dxy     :     0.019806

 12 O s       :     3.864011  s :     3.864011
      pz      :     1.746062  p :     4.540237
      px      :     1.423211
      py      :     1.370964
      dz2     :     0.003022  d :     0.027977
      dxz     :     0.000812
      dyz     :     0.007381
      dx2y2   :     0.006954
      dxy     :     0.009808

 13 N s       :     3.589353  s :     3.589353
      pz      :     1.423986  p :     3.945320
      px      :     1.122505
      py      :     1.398828
      dz2     :     0.006648  d :     0.028517
      dxz     :     0.006291
      dyz     :     0.003717
      dx2y2   :     0.006825
      dxy     :     0.005036

 14 H s       :     0.643442  s :     0.643442
      pz      :     0.013880  p :     0.037998
      px      :     0.010200
      py      :     0.013918

 15 O s       :     3.823283  s :     3.823283
      pz      :     1.269681  p :     4.610294
      px      :     1.754743
      py      :     1.585870
      dz2     :     0.004284  d :     0.022887
      dxz     :     0.003123
      dyz     :     0.009136
      dx2y2   :     0.003797
      dxy     :     0.002546

 16 H s       :     0.861265  s :     0.861265
      pz      :     0.005085  p :     0.010736
      px      :     0.003218
      py      :     0.002433

 17 O s       :     3.864077  s :     3.864077
      pz      :     1.350360  p :     4.539855
      px      :     1.447827
      py      :     1.741668
      dz2     :     0.009743  d :     0.028013
      dxz     :     0.009708
      dyz     :     0.007199
      dx2y2   :     0.000675
      dxy     :     0.000689

 18 H s       :     0.639122  s :     0.639122
      pz      :     0.012435  p :     0.038135
      px      :     0.009606
      py      :     0.016094



                     *******************************
                     * LOEWDIN POPULATION ANALYSIS *
                     *******************************

----------------------
LOEWDIN ATOMIC CHARGES
----------------------
   0 C :    0.118608
   1 C :   -0.149707
   2 H :    0.127279
   3 H :    0.125846
   4 O :   -0.129455
   5 C :   -0.112966
   6 H :    0.089937
   7 H :    0.098072
   8 C :   -0.044942
   9 H :    0.080922
  10 H :    0.081325
  11 C :    0.099366
  12 O :   -0.225135
  13 N :   -0.247702
  14 H :    0.183161
  15 O :   -0.132370
  16 H :    0.082592
  17 O :   -0.229845
  18 H :    0.185014

-------------------------------
LOEWDIN REDUCED ORBITAL CHARGES
-------------------------------
  0 C s       :     2.845857  s :     2.845857
      pz      :     1.015917  p :     2.733300
      px      :     0.803756
      py      :     0.913628
      dz2     :     0.070336  d :     0.302235
      dxz     :     0.049989
      dyz     :     0.122485
      dx2y2   :     0.030990
      dxy     :     0.028436

  1 C s       :     2.904734  s :     2.904734
      pz      :     1.058038  p :     3.166963
      px      :     1.068800
      py      :     1.040125
      dz2     :     0.006694  d :     0.078010
      dxz     :     0.017654
      dyz     :     0.025001
      dx2y2   :     0.012652
      dxy     :     0.016010

  2 H s       :     0.793110  s :     0.793110
      pz      :     0.038538  p :     0.079611
      px      :     0.018674
      py      :     0.022399

  3 H s       :     0.795159  s :     0.795159
      pz      :     0.019330  p :     0.078996
      px      :     0.040955
      py      :     0.018710

  4 O s       :     3.467040  s :     3.467040
      pz      :     1.617750  p :     4.611506
      px      :     1.701829
      py      :     1.291927
      dz2     :     0.006252  d :     0.050909
      dxz     :     0.004448
      dyz     :     0.022713
      dx2y2   :     0.010295
      dxy     :     0.007201

  5 C s       :     2.902755  s :     2.902755
      pz      :     1.076826  p :     3.130232
      px      :     1.010925
      py      :     1.042481
      dz2     :     0.009592  d :     0.079979
      dxz     :     0.017256
      dyz     :     0.019990
      dx2y2   :     0.019344
      dxy     :     0.013796

  6 H s       :     0.868765  s :     0.868765
      pz      :     0.017149  p :     0.041298
      px      :     0.013320
      py      :     0.010829

  7 H s       :     0.861468  s :     0.861468
      pz      :     0.011137  p :     0.040459
      px      :     0.019736
      py      :     0.009587

  8 C s       :     2.883940  s :     2.883940
      pz      :     1.036451  p :     3.030899
      px      :     1.025043
      py      :     0.969404
      dz2     :     0.016150  d :     0.130103
      dxz     :     0.020471
      dyz     :     0.037400
      dx2y2   :     0.032391
      dxy     :     0.023692

  9 H s       :     0.878661  s :     0.878661
      pz      :     0.014130  p :     0.040417
      px      :     0.006948
      py      :     0.019339

 10 H s       :     0.877394  s :     0.877394
      pz      :     0.020699  p :     0.041280
      px      :     0.012330
      py      :     0.008251

 11 C s       :     2.859328  s :     2.859328
      pz      :     0.919797  p :     2.741692
      px      :     0.784162
      py      :     1.037734
      dz2     :     0.072640  d :     0.299614
      dxz     :     0.030962
      dyz     :     0.115090
      dx2y2   :     0.040235
      dxy     :     0.040687

 12 O s       :     3.553093  s :     3.553093
      pz      :     1.728021  p :     4.613929
      px      :     1.407037
      py      :     1.478871
      dz2     :     0.007747  d :     0.058113
      dxz     :     0.001209
      dyz     :     0.015749
      dx2y2   :     0.019615
      dxy     :     0.013793

 13 N s       :     3.194149  s :     3.194149
      pz      :     1.428567  p :     3.995464
      px      :     1.153730
      py      :     1.413167
      dz2     :     0.011309  d :     0.058088
      dxz     :     0.011598
      dyz     :     0.007759
      dx2y2   :     0.015723
      dxy     :     0.011699

 14 H s       :     0.701345  s :     0.701345
      pz      :     0.044493  p :     0.115494
      px      :     0.029258
      py      :     0.041744

 15 O s       :     3.463515  s :     3.463515
      pz      :     1.308621  p :     4.617630
      px      :     1.719988
      py      :     1.589020
      dz2     :     0.015509  d :     0.051225
      dxz     :     0.006809
      dyz     :     0.021089
      dx2y2   :     0.005273
      dxy     :     0.002545

 16 H s       :     0.878916  s :     0.878916
      pz      :     0.019959  p :     0.038492
      px      :     0.011383
      py      :     0.007151

 17 O s       :     3.552269  s :     3.552269
      pz      :     1.461060  p :     4.619813
      px      :     1.435905
      py      :     1.722848
      dz2     :     0.026203  d :     0.057763
      dxz     :     0.015124
      dyz     :     0.014260
      dx2y2   :     0.001125
      dxy     :     0.001052

 18 H s       :     0.698819  s :     0.698819
      pz      :     0.037020  p :     0.116167
      px      :     0.027015
      py      :     0.052131



                      *****************************
                      * MAYER POPULATION ANALYSIS *
                      *****************************

  NA   - Mulliken gross atomic population
  ZA   - Total nuclear charge
  QA   - Mulliken gross atomic charge
  VA   - Mayer's total valence
  BVA  - Mayer's bonded valence
  FA   - Mayer's free valence

  ATOM       NA         ZA         QA         VA         BVA        FA
  0 C      5.4707     6.0000     0.5293     3.9975     3.9975    -0.0000
  1 C      6.2749     6.0000    -0.2749     3.8301     3.8301     0.0000
  2 H      0.7507     1.0000     0.2493     0.9266     0.9266    -0.0000
  3 H      0.7582     1.0000     0.2418     0.9193     0.9193    -0.0000
  4 O      8.4520     8.0000    -0.4520     2.0576     2.0576    -0.0000
  5 C      6.1993     6.0000    -0.1993     3.8603     3.8603     0.0000
  6 H      0.8572     1.0000     0.1428     0.9538     0.9538    -0.0000
  7 H      0.8557     1.0000     0.1443     0.9479     0.9479    -0.0000
  8 C      6.0389     6.0000    -0.0389     3.8892     3.8892    -0.0000
  9 H      0.8751     1.0000     0.1249     0.9565     0.9565     0.0000
 10 H      0.8664     1.0000     0.1336     0.9625     0.9625     0.0000
 11 C      5.4864     6.0000     0.5136     3.9413     3.9413     0.0000
 12 O      8.4322     8.0000    -0.4322     2.0733     2.0733     0.0000
 13 N      7.5632     7.0000    -0.5632     2.8963     2.8963    -0.0000
 14 H      0.6814     1.0000     0.3186     0.9168     0.9168    -0.0000
 15 O      8.4565     8.0000    -0.4565     2.0603     2.0603     0.0000
 16 H      0.8720     1.0000     0.1280     0.9514     0.9514     0.0000
 17 O      8.4319     8.0000    -0.4319     2.0902     2.0902    -0.0000
 18 H      0.6773     1.0000     0.3227     0.9165     0.9165     0.0000

  Mayer bond orders larger than 0.100000
B(  0-C ,  1-C ) :   0.9518 B(  0-C ,  4-O ) :   1.1092 B(  0-C , 17-O ) :   1.8766 
B(  1-C ,  5-C ) :   0.9854 B(  1-C ,  6-H ) :   0.9319 B(  1-C ,  7-H ) :   0.9301 
B(  2-H , 13-N ) :   0.8988 B(  3-H , 13-N ) :   0.9095 B(  4-O , 14-H ) :   0.8536 
B(  5-C ,  8-C ) :   0.9861 B(  5-C ,  9-H ) :   0.9364 B(  5-C , 10-H ) :   0.9304 
B(  8-C , 11-C ) :   0.9064 B(  8-C , 13-N ) :   1.0350 B(  8-C , 16-H ) :   0.9339 
B( 11-C , 12-O ) :   1.8601 B( 11-C , 15-O ) :   1.1016 B( 15-O , 18-H ) :   0.8514 


-------
TIMINGS
-------

Total SCF time: 0 days 0 hours 0 min 8 sec 

Total time                  ....       8.057 sec
Sum of individual times     ....       7.604 sec  ( 94.4%)

SCF preparation             ....       0.032 sec  (  0.4%)
Fock matrix formation       ....       7.509 sec  ( 93.2%)
  Startup                   ....       0.001 sec  (  0.0% of F)
  Split-RI-J                ....       2.656 sec  ( 35.4% of F)
  XC integration            ....       5.229 sec  ( 69.6% of F)
    XC Preparation          ....       0.000 sec  (  0.0% of XC)
    Basis function eval.    ....       1.864 sec  ( 35.6% of XC)
    Density eval.           ....       1.156 sec  ( 22.1% of XC)
    XC-Functional eval.     ....       0.926 sec  ( 17.7% of XC)
    XC-Potential eval.      ....       1.148 sec  ( 22.0% of XC)
Diagonalization             ....       0.000 sec  (  0.0%)
Density matrix formation    ....       0.006 sec  (  0.1%)
Total Energy calculation    ....       0.001 sec  (  0.0%)
Population analysis         ....       0.002 sec  (  0.0%)
Orbital Transformation      ....       0.006 sec  (  0.1%)
Orbital Orthonormalization  ....       0.000 sec  (  0.0%)
DIIS solution               ....       0.025 sec  (  0.3%)
SOSCF solution              ....       0.024 sec  (  0.3%)
Finished LeanSCF after   8.1 sec

Maximum memory used throughout the entire LEANSCF-calculation: 20.8 MB



-------------------------------------------------------------------------------
                          DFT DISPERSION CORRECTION                            
-------------------------------------------------------------------------------
Active option DFTDOPT                   ...         2   
Final C6-coefficient scaling factor     ...     1.250
Final VDW-radii scaling factor          ...     1.100
Damping factor alpha                    ...    20.000
-------------------------   ----------------
Dispersion correction           -0.027863447
-------------------------   ----------------


-------------------------   --------------------
FINAL SINGLE POINT ENERGY      -551.280996501559
-------------------------   --------------------

------------------------------------------------------------------------------
                         ORCA SCF GRADIENT CALCULATION
------------------------------------------------------------------------------

Nuc. rep. gradient        (SHARK) ... done (  0.0 sec)
HCore & Overlap gradient  (SHARK) ... done (  0.1 sec)
Split-RIJ-J gradient      (SHARK) ... done (  0.6 sec)
XC gradient                       ... done (  2.5 sec)
Dispersion correction             ... done (  0.0 sec)

-------------------
DISPERSION GRADIENT
-------------------

   1   C   :    0.000407621   -0.000046448   -0.000571692
   2   C   :   -0.000252541    0.000657675    0.000520422
   3   H   :    0.000834038    0.000553688    0.000246461
   4   H   :    0.000375323    0.000766281    0.000212066
   5   O   :   -0.000401511   -0.000329273   -0.000049056
   6   C   :   -0.000227821   -0.000879946   -0.000875565
   7   H   :   -0.001343262   -0.000028411   -0.000221532
   8   H   :    0.000280373   -0.000329876   -0.000330924
   9   C   :    0.000015746    0.000826557    0.000448145
  10   H   :   -0.000333915    0.000120053    0.000439496
  11   H   :   -0.000412793    0.000679261   -0.001010744
  12   C   :   -0.000622256   -0.000224020   -0.000472548
  13   O   :    0.000557347   -0.000327684    0.001083793
  14   N   :    0.000261328   -0.000670427    0.000135391
  15   H   :   -0.000134935    0.000177129    0.000272310
  16   O   :    0.000834455   -0.000061177    0.000488283
  17   H   :    0.000524947    0.000254065    0.000171054
  18   O   :   -0.000643222   -0.000795489   -0.000480246
  19   H   :    0.000281076   -0.000341960   -0.000005115

Difference to translation invariance:
           :    0.0000000000   -0.0000000000    0.0000000000

Difference to rotation invariance:
           :    0.0000000000    0.0000000000    0.0000000000

Norm of the Dispersion gradient    ...    0.0039579240
RMS gradient                       ...    0.0005242398
MAX gradient                       ...    0.0013432617

------------------
CARTESIAN GRADIENT
------------------

   1   C   :    0.001269525   -0.000916799    0.010734222
   2   C   :    0.000273775   -0.000353796   -0.000409824
   3   H   :    0.000404133    0.000090834   -0.003847921
   4   H   :   -0.002946297    0.001269412   -0.002909007
   5   O   :    0.000236984    0.018985904    0.023159426
   6   C   :   -0.001576593    0.001398907    0.002871211
   7   H   :   -0.002605265    0.000818554    0.005578888
   8   H   :    0.004272691   -0.001287597    0.003868921
   9   C   :    0.002195813   -0.003764934   -0.004615665
  10   H   :   -0.000510401   -0.004584298    0.003330816
  11   H   :    0.002556659   -0.002133982   -0.003876707
  12   C   :   -0.007939246   -0.007962639    0.005689924
  13   O   :   -0.004679008    0.031330130    0.010279305
  14   N   :   -0.003125147   -0.012235869    0.006918001
  15   H   :    0.000993454   -0.002587145   -0.006511554
  16   O   :    0.002371791   -0.019679363   -0.022147656
  17   H   :   -0.000266996    0.003321428    0.001061685
  18   O   :    0.008723305   -0.007874740   -0.032216668
  19   H   :    0.000350826    0.006165991    0.003042603

Difference to translation invariance:
           :    0.0000000000   -0.0000000000   -0.0000000000

Difference to rotation invariance:
           :   -0.0004166631   -0.0000053389   -0.0002068062

Norm of the Cartesian gradient     ...    0.0698429447
RMS gradient                       ...    0.0092509240
MAX gradient                       ...    0.0322166678

-------
TIMINGS
-------

Total SCF gradient time     ....        3.264 sec

Densities                   ....       0.000 sec  (  0.0%)
One electron gradient       ....       0.119 sec  (  3.7%)
RI-J Coulomb gradient       ....       0.648 sec  ( 19.9%)
XC gradient                 ....       2.496 sec  ( 76.5%)

Maximum memory used throughout the entire SCFGRAD-calculation: 26.8 MB
------------------------------------------------------------------------------
                         ORCA GEOMETRY RELAXATION STEP
------------------------------------------------------------------------------

Reading the OPT-File                    .... done
Getting information on internals        .... done
Copying old internal coords+grads       .... done
Making the new internal coordinates     .... (2022 redundants) done
Validating the new internal coordinates .... (2022 redundants) done
Calculating the B-matrix                .... done
Calculating the G,G- and P matrices     .... done
Transforming gradient to internals      .... done
Projecting the internal gradient        .... done
Number of atoms                         ....  19
Number of internal coordinates          ....  78
Current Energy                          ....  -551.280996502 Eh
Current gradient norm                   ....     0.069842945 Eh/bohr
Maximum allowed component of the step   ....  0.300
Current trust radius                    ....  0.300
Evaluating the initial hessian          ....  (Almloef) done
Projecting the Hessian                  .... done
Forming the augmented Hessian           .... done
Diagonalizing the augmented Hessian     .... done
Last element of RFO vector              ....  0.925896951
Lowest eigenvalues of augmented Hessian:
 -0.015618200  0.010458212  0.010733995  0.011883747  0.014270544
Length of the computed step             ....  0.408011033
Warning: the length of the step is outside the trust region - taking restricted step instead
The input lambda is                     ....     0.009457
   iter:   5  x=   -0.003519  g=  168.375390 f(x)=     0.826144
   iter:  10  x=   -0.029904  g=    3.039011 f(x)=     0.001589
The output lambda is                    ....    -0.029913 (13 iterations)
The final length of the internal step   ....  0.300000000
Converting the step to Cartesian space:
 Initial RMS(Int)=    0.0339683110
Transforming coordinates:
 Iter   0:  RMS(Cart)=    0.1902714041 RMS(Int)=    0.7086890449
 Iter   5:  RMS(Cart)=    0.0000018404 RMS(Int)=    0.0000011131
done
Storing new coordinates                 .... done

                                .--------------------.
          ----------------------|Geometry convergence|-------------------------
          Item                value                   Tolerance       Converged
          ---------------------------------------------------------------------
          RMS gradient        0.0087902682            0.0001000000      NO
          MAX gradient        0.0340856523            0.0003000000      NO
          RMS step            0.0339683110            0.0020000000      NO
          MAX step            0.1194862446            0.0040000000      NO
          -------------------------------------------------------------------------
          ........................................................
          Max(Bonds)      0.0192      Max(Angles)    3.26
          Max(Dihed)        6.85      Max(Improp)    0.00
          ---------------------------------------------------------------------

The optimization has not yet converged - more geometry cycles are needed


    ---------------------------------------------------------------------------
                         Redundant Internal Coordinates
                            (Angstroem and degrees)

        Definition                    Value    dE/dq     Step     New-Value
    ----------------------------------------------------------------------------
     1. B(C   1,C   0)                1.5110 -0.011735  0.0144    1.5254   
     2. B(O   4,C   0)                1.3327 -0.022077  0.0162    1.3489   
     3. B(C   5,C   1)                1.5251 -0.013279  0.0171    1.5422   
     4. B(H   6,C   1)                1.0900 -0.005737  0.0078    1.0978   
     5. B(H   7,C   1)                1.0931 -0.005696  0.0078    1.1010   
     6. B(C   8,C   5)                1.5392 -0.014152  0.0192    1.5584   
     7. B(H   9,C   5)                1.0899 -0.005683  0.0077    1.0976   
     8. B(H  10,C   5)                1.0921 -0.005037  0.0069    1.0990   
     9. B(C  11,C   8)                1.5263 -0.009200  0.0119    1.5382   
    10. B(O  12,C  11)                1.2038 -0.033159  0.0154    1.2192   
    11. B(N  13,C   8)                1.4505 -0.011461  0.0127    1.4631   
    12. B(N  13,H   3)                1.0141 -0.003763  0.0044    1.0185   
    13. B(N  13,H   2)                1.0148 -0.003317  0.0039    1.0187   
    14. B(H  14,O   4)                0.9702 -0.002817  0.0028    0.9730   
    15. B(O  15,C  11)                1.3334 -0.022613  0.0166    1.3501   
    16. B(H  16,C   8)                1.0962 -0.002049  0.0028    1.0990   
    17. B(O  17,C   0)                1.2029 -0.034086  0.0158    1.2187   
    18. B(H  18,O  15)                0.9695 -0.002933  0.0029    0.9724   
    19. A(O   4,C   0,O  17)          122.86 -0.004083    0.45    123.31   
    20. A(C   1,C   0,O  17)          125.49  0.000794   -0.10    125.39   
    21. A(C   1,C   0,O   4)          111.62  0.003363   -0.45    111.18   
    22. A(C   0,C   1,H   6)          108.38 -0.000981    0.97    109.35   
    23. A(C   0,C   1,H   7)          106.56  0.007525   -1.57    104.99   
    24. A(C   5,C   1,H   7)          109.69  0.002735   -0.85    108.84   
    25. A(H   6,C   1,H   7)          107.96 -0.000436   -0.65    107.31   
    26. A(C   0,C   1,C   5)          112.27 -0.013451    2.31    114.57   
    27. A(C   5,C   1,H   6)          111.76  0.005113   -0.36    111.40   
    28. A(C   0,O   4,H  14)          110.77  0.011895   -1.68    109.09   
    29. A(C   8,C   5,H  10)          108.74  0.001740    0.03    108.77   
    30. A(C   1,C   5,H  10)          109.11  0.005186   -0.04    109.07   
    31. A(C   8,C   5,H   9)          107.17  0.009536   -2.11    105.07   
    32. A(H   9,C   5,H  10)          108.59 -0.001247   -0.09    108.50   
    33. A(C   1,C   5,H   9)          110.26  0.006196   -1.15    109.11   
    34. A(C   1,C   5,C   8)          112.87 -0.020919    3.25    116.12   
    35. A(C   5,C   8,C  11)          108.35 -0.014407    3.26    111.62   
    36. A(N  13,C   8,H  16)          108.42 -0.001824   -0.44    107.98   
    37. A(C  11,C   8,H  16)          107.63  0.004765   -1.44    106.19   
    38. A(C   5,C   8,H  16)          109.27  0.002335   -0.83    108.44   
    39. A(C  11,C   8,N  13)          114.38  0.001310    0.23    114.61   
    40. A(C   5,C   8,N  13)          108.71  0.007909   -0.85    107.86   
    41. A(C   8,C  11,O  12)          124.66  0.001955   -0.22    124.45   
    42. A(O  12,C  11,O  15)          123.14 -0.003744    0.43    123.57   
    43. A(C   8,C  11,O  15)          112.20  0.001790   -0.22    111.98   
    44. A(H   3,N  13,C   8)          110.63  0.000727   -0.27    110.35   
    45. A(H   2,N  13,C   8)          109.72  0.000731   -0.28    109.44   
    46. A(H   2,N  13,H   3)          107.69  0.001211   -0.57    107.13   
    47. A(C  11,O  15,H  18)          110.52  0.011360   -1.61    108.91   
    48. D(C   5,C   1,C   0,O  17)     25.51 -0.000939    2.27     27.77   
    49. D(H   6,C   1,C   0,O  17)    149.43 -0.004216    4.07    153.51   
    50. D(H   6,C   1,C   0,O   4)    -32.53 -0.001876    0.96    -31.56   
    51. D(H   7,C   1,C   0,O   4)     83.44  0.001003   -0.12     83.32   
    52. D(C   5,C   1,C   0,O   4)   -156.45  0.001400   -0.84   -157.30   
    53. D(H  14,O   4,C   0,O  17)     -3.48  0.000795   -1.17     -4.65   
    54. D(H  14,O   4,C   0,C   1)    178.42 -0.001579    1.86    180.28   
    55. D(H   9,C   5,C   1,H   7)    -45.88 -0.002900    4.45    -41.43   
    56. D(H   9,C   5,C   1,H   6)     73.82  0.001639    2.84     76.66   
    57. D(H   9,C   5,C   1,C   0)   -164.15 -0.005669    5.53   -158.63   
    58. D(C   8,C   5,C   1,H   7)   -165.70 -0.005413    5.76   -159.94   
    59. D(C   8,C   5,C   1,H   6)    -46.00 -0.000874    4.16    -41.84   
    60. D(C   8,C   5,C   1,C   0)     76.02 -0.008182    6.85     82.87   
    61. D(C  11,C   8,C   5,H   9)    177.02 -0.000054    0.60    177.62   
    62. D(C  11,C   8,C   5,C   1)    -61.40  0.001216   -0.26    -61.66   
    63. D(N  13,C   8,C   5,H  10)    -65.04 -0.002051   -0.00    -65.05   
    64. D(N  13,C   8,C   5,H   9)     52.16  0.002540   -1.23     50.93   
    65. D(N  13,C   8,C   5,C   1)    173.75  0.003810   -2.10    171.65   
    66. D(C  11,C   8,C   5,H  10)     59.81 -0.004645    1.83     61.64   
    67. D(O  15,C  11,C   8,N  13)     35.39 -0.000609    1.82     37.21   
    68. D(O  15,C  11,C   8,C   5)    -86.03 -0.001064    0.36    -85.67   
    69. D(O  12,C  11,C   8,H  16)    -24.04  0.000569    0.80    -23.24   
    70. D(O  12,C  11,C   8,N  13)   -144.57 -0.001350    2.24   -142.33   
    71. D(O  12,C  11,C   8,C   5)     94.01 -0.001805    0.79     94.79   
    72. D(H   3,N  13,C   8,C  11)     60.20  0.007352   -2.58     57.62   
    73. D(H   3,N  13,C   8,C   5)   -178.57 -0.004490    1.14   -177.42   
    74. D(H   2,N  13,C   8,H  16)   -178.57 -0.000658    0.46   -178.11   
    75. D(H   2,N  13,C   8,C  11)    -58.48  0.004956   -1.54    -60.02   
    76. D(H   2,N  13,C   8,C   5)     62.75 -0.006886    2.18     64.94   
    77. D(H  18,O  15,C  11,O  12)     -6.68  0.000757   -0.55     -7.23   
    78. D(H  18,O  15,C  11,C   8)    173.36  0.000027   -0.14    173.23   
    ----------------------------------------------------------------------------

Geometry step timings:
Preparation and reading OPT file:      0.000 s ( 0.852 %)
Internal coordinates            :      0.000 s ( 0.923 %)
B/P matrices and projection     :      0.000 s (30.256 %)
Hessian update/contruction      :      0.000 s ( 8.665 %)
Making the step                 :      0.001 s (43.253 %)
Converting the step to Cartesian:      0.000 s ( 3.622 %)
Storing new data                :      0.000 s ( 1.136 %)
Checking convergence            :      0.000 s ( 0.994 %)
Final printing                  :      0.000 s (10.298 %)
Total time                      :      0.001 s

Time for energy+gradient        :     12.130 s
Time for complete geometry iter :     12.144 s

         *************************************************************
         *                GEOMETRY OPTIMIZATION CYCLE   2            *
         *************************************************************
---------------------------------
CARTESIAN COORDINATES (ANGSTROEM)
---------------------------------
  C     -2.961444   -0.480829   -0.142273
  C     -2.363029    0.556803   -1.086828
  H     -0.051074    3.004787    1.338667
  H      1.410324    2.564935    0.741263
  O     -3.140691   -1.662355   -0.767814
  C     -1.626025    1.714520   -0.383316
  H     -1.713850    0.053571   -1.815158
  H     -3.221522    0.966339   -1.641230
  C     -0.151825    1.434230    0.037101
  H     -1.570455    2.572826   -1.065157
  H     -2.196342    2.013571    0.507249
  C     -0.061244    0.281140    1.051156
  O      0.152657   -0.882128    0.755340
  N      0.430523    2.695651    0.495902
  H     -3.526683   -2.298810   -0.141147
  O     -0.237460    0.708685    2.319544
  H      0.406504    1.106066   -0.850826
  O     -3.328023   -0.266435    1.000016
  H     -0.279315   -0.063244    2.909409

----------------------------
CARTESIAN COORDINATES (A.U.)
----------------------------
  NO LB      ZA    FRAG     MASS         X           Y           Z
   0 C     6.0000    0    12.011   -5.596317   -0.908636   -0.268857
   1 C     6.0000    0    12.011   -4.465477    1.052206   -2.053808
   2 H     1.0000    0     1.008   -0.096516    5.678224    2.529714
   3 H     1.0000    0     1.008    2.665126    4.847024    1.400784
   4 O     8.0000    0    15.999   -5.935045   -3.141396   -1.450959
   5 C     6.0000    0    12.011   -3.072742    3.239973   -0.724363
   6 H     1.0000    0     1.008   -3.238706    0.101234   -3.430152
   7 H     1.0000    0     1.008   -6.087795    1.826116   -3.101475
   8 C     6.0000    0    12.011   -0.286907    2.710303    0.070111
   9 H     1.0000    0     1.008   -2.967730    4.861936   -2.012855
  10 H     1.0000    0     1.008   -4.150485    3.805098    0.958562
  11 C     6.0000    0    12.011   -0.115735    0.531278    1.986397
  12 O     8.0000    0    15.999    0.288479   -1.666980    1.427385
  13 N     7.0000    0    14.007    0.813570    5.094042    0.937118
  14 H     1.0000    0     1.008   -6.664465   -4.344121   -0.266729
  15 O     8.0000    0    15.999   -0.448735    1.339221    4.383303
  16 H     1.0000    0     1.008    0.768182    2.090163   -1.607828
  17 O     8.0000    0    15.999   -6.289052   -0.503489    1.889756
  18 H     1.0000    0     1.008   -0.527830   -0.119514    5.497985

--------------------------------
INTERNAL COORDINATES (ANGSTROEM)
--------------------------------
 C      0   0   0     0.000000000000     0.00000000     0.00000000
 C      1   0   0     1.525439727222     0.00000000     0.00000000
 H      2   1   0     4.149793222048   104.94575935     0.00000000
[...]
      px      :     0.979501
      py      :     0.827857
      dz2     :     0.007348  d :     0.055523
      dxz     :     0.009520
      dyz     :     0.014735
      dx2y2   :     0.014630
      dxy     :     0.009290

  9 H s       :     0.861244  s :     0.861244
      pz      :     0.003959  p :     0.011384
      px      :     0.002368
      py      :     0.005057

 10 H s       :     0.855782  s :     0.855782
      pz      :     0.005165  p :     0.011595
      px      :     0.003732
      py      :     0.002698

 11 C s       :     3.013023  s :     3.013023
      pz      :     0.739024  p :     2.349084
      px      :     0.780951
      py      :     0.829109
      dz2     :     0.031340  d :     0.118395
      dxz     :     0.014375
      dyz     :     0.040664
      dx2y2   :     0.014797
      dxy     :     0.017219

 12 O s       :     3.876243  s :     3.876243
      pz      :     1.730191  p :     4.531294
      px      :     1.421680
      py      :     1.379423
      dz2     :     0.003199  d :     0.027199
      dxz     :     0.001164
      dyz     :     0.007275
      dx2y2   :     0.006551
      dxy     :     0.009011

 13 N s       :     3.615154  s :     3.615154
      pz      :     1.391087  p :     3.916474
      px      :     1.132377
      py      :     1.393009
      dz2     :     0.006740  d :     0.029117
      dxz     :     0.007435
      dyz     :     0.003327
      dx2y2   :     0.007408
      dxy     :     0.004206

 14 H s       :     0.642983  s :     0.642983
      pz      :     0.014708  p :     0.037533
      px      :     0.011133
      py      :     0.011693

 15 O s       :     3.841229  s :     3.841229
      pz      :     1.292817  p :     4.601794
      px      :     1.768449
      py      :     1.540528
      dz2     :     0.005407  d :     0.023249
      dxz     :     0.003231
      dyz     :     0.008086
      dx2y2   :     0.004472
      dxy     :     0.002053

 16 H s       :     0.856955  s :     0.856955
      pz      :     0.005053  p :     0.010740
      px      :     0.003441
      py      :     0.002246

 17 O s       :     3.877418  s :     3.877418
      pz      :     1.344700  p :     4.528499
      px      :     1.483504
      py      :     1.700295
      dz2     :     0.009678  d :     0.027244
      dxz     :     0.008960
      dyz     :     0.007324
      dx2y2   :     0.000581
      dxy     :     0.000701

 18 H s       :     0.639156  s :     0.639156
      pz      :     0.010485  p :     0.037567
      px      :     0.009217
      py      :     0.017865



                     *******************************
                     * LOEWDIN POPULATION ANALYSIS *
                     *******************************

----------------------
LOEWDIN ATOMIC CHARGES
----------------------
   0 C :    0.144489
   1 C :   -0.154220
   2 H :    0.129713
   3 H :    0.128116
   4 O :   -0.152590
   5 C :   -0.113176
   6 H :    0.097016
   7 H :    0.098540
   8 C :   -0.045190
   9 H :    0.083330
  10 H :    0.081894
  11 C :    0.124460
  12 O :   -0.233678
  13 N :   -0.253732
  14 H :    0.184135
  15 O :   -0.154466
  16 H :    0.084256
  17 O :   -0.235338
  18 H :    0.186439

-------------------------------
LOEWDIN REDUCED ORBITAL CHARGES
-------------------------------
  0 C s       :     2.860822  s :     2.860822
      pz      :     1.005421  p :     2.714204
      px      :     0.819960
      py      :     0.888824
      dz2     :     0.065593  d :     0.280484
      dxz     :     0.054576
      dyz     :     0.106714
      dx2y2   :     0.028789
      dxy     :     0.024812

  1 C s       :     2.913453  s :     2.913453
      pz      :     1.056933  p :     3.165395
      px      :     1.068586
      py      :     1.039876
      dz2     :     0.004989  d :     0.075372
      dxz     :     0.020022
      dyz     :     0.022541
      dx2y2   :     0.010225
      dxy     :     0.017596

  2 H s       :     0.792589  s :     0.792589
      pz      :     0.037895  p :     0.077698
      px      :     0.019823
      py      :     0.019980

  3 H s       :     0.794747  s :     0.794747
      pz      :     0.019053  p :     0.077137
      px      :     0.040159
      py      :     0.017926

  4 O s       :     3.495152  s :     3.495152
      pz      :     1.596312  p :     4.608937
      px      :     1.651146
      py      :     1.361479
      dz2     :     0.006420  d :     0.048501
      dxz     :     0.007119
      dyz     :     0.019161
      dx2y2   :     0.007746
      dxy     :     0.008054

  5 C s       :     2.910453  s :     2.910453
      pz      :     1.076043  p :     3.125722
      px      :     1.009087
      py      :     1.040593
      dz2     :     0.008209  d :     0.077001
      dxz     :     0.017569
      dyz     :     0.019580
      dx2y2   :     0.019563
      dxy     :     0.012079

  6 H s       :     0.862410  s :     0.862410
      pz      :     0.013519  p :     0.040573
      px      :     0.015086
      py      :     0.011968

  7 H s       :     0.861892  s :     0.861892
      pz      :     0.014210  p :     0.039568
      px      :     0.016783
      py      :     0.008574

  8 C s       :     2.892484  s :     2.892484
      pz      :     1.036124  p :     3.027629
      px      :     1.034684
      py      :     0.956822
      dz2     :     0.015342  d :     0.125076
      dxz     :     0.019948
      dyz     :     0.035503
      dx2y2   :     0.035108
      dxy     :     0.019175

  9 H s       :     0.877276  s :     0.877276
      pz      :     0.014408  p :     0.039394
      px      :     0.006628
      py      :     0.018358

 10 H s       :     0.877786  s :     0.877786
      pz      :     0.019401  p :     0.040320
      px      :     0.012812
      py      :     0.008107

 11 C s       :     2.875284  s :     2.875284
      pz      :     0.906267  p :     2.721605
      px      :     0.783376
      py      :     1.031961
      dz2     :     0.076197  d :     0.278652
      dxz     :     0.029963
      dyz     :     0.100568
      dx2y2   :     0.037225
      dxy     :     0.034698

 12 O s       :     3.568628  s :     3.568628
      pz      :     1.720184  p :     4.609386
      px      :     1.407607
      py      :     1.481595
      dz2     :     0.007555  d :     0.055664
      dxz     :     0.001675
      dyz     :     0.015757
      dx2y2   :     0.018035
      dxy     :     0.012641

 13 N s       :     3.219035  s :     3.219035
      pz      :     1.401769  p :     3.977487
      px      :     1.161083
      py      :     1.414635
      dz2     :     0.011152  d :     0.057210
      dxz     :     0.013311
      dyz     :     0.006969
      dx2y2   :     0.016472
      dxy     :     0.009306

 14 H s       :     0.701969  s :     0.701969
      pz      :     0.046863  p :     0.113896
      px      :     0.032637
      py      :     0.034396

 15 O s       :     3.493371  s :     3.493371
      pz      :     1.331625  p :     4.612384
      px      :     1.734441
      py      :     1.546317
      dz2     :     0.016557  d :     0.048711
      dxz     :     0.006208
      dyz     :     0.017732
      dx2y2   :     0.006605
      dxy     :     0.001609

 16 H s       :     0.877448  s :     0.877448
      pz      :     0.019762  p :     0.038296
      px      :     0.012158
      py      :     0.006376

 17 O s       :     3.568126  s :     3.568126
      pz      :     1.452590  p :     4.611903
      px      :     1.472241
      py      :     1.687072
      dz2     :     0.025459  d :     0.055309
      dxz     :     0.014033
      dyz     :     0.013795
      dx2y2   :     0.001004
      dxy     :     0.001018

 18 H s       :     0.699313  s :     0.699313
      pz      :     0.030452  p :     0.114248
      px      :     0.025887
      py      :     0.057909



                      *****************************
                      * MAYER POPULATION ANALYSIS *
                      *****************************

  NA   - Mulliken gross atomic population
  ZA   - Total nuclear charge
  QA   - Mulliken gross atomic charge
  VA   - Mayer's total valence
  BVA  - Mayer's bonded valence
  FA   - Mayer's free valence

  ATOM       NA         ZA         QA         VA         BVA        FA
  0 C      5.4659     6.0000     0.5341     3.9583     3.9583    -0.0000
  1 C      6.2822     6.0000    -0.2822     3.8228     3.8228     0.0000
  2 H      0.7504     1.0000     0.2496     0.9232     0.9232    -0.0000
  3 H      0.7578     1.0000     0.2422     0.9187     0.9187     0.0000
  4 O      8.4617     8.0000    -0.4617     2.0419     2.0419    -0.0000
  5 C      6.1915     6.0000    -0.1915     3.8562     3.8562     0.0000
  6 H      0.8464     1.0000     0.1536     0.9542     0.9542     0.0000
  7 H      0.8553     1.0000     0.1447     0.9483     0.9483    -0.0000
  8 C      6.0484     6.0000    -0.0484     3.8865     3.8865     0.0000
  9 H      0.8726     1.0000     0.1274     0.9546     0.9546     0.0000
 10 H      0.8674     1.0000     0.1326     0.9625     0.9625     0.0000
 11 C      5.4805     6.0000     0.5195     3.9037     3.9037    -0.0000
 12 O      8.4347     8.0000    -0.4347     2.0705     2.0705     0.0000
 13 N      7.5607     7.0000    -0.5607     2.8883     2.8883     0.0000
 14 H      0.6805     1.0000     0.3195     0.9166     0.9166    -0.0000
 15 O      8.4663     8.0000    -0.4663     2.0534     2.0534     0.0000
 16 H      0.8677     1.0000     0.1323     0.9490     0.9490     0.0000
 17 O      8.4332     8.0000    -0.4332     2.0926     2.0926     0.0000
 18 H      0.6767     1.0000     0.3233     0.9158     0.9158     0.0000

  Mayer bond orders larger than 0.100000
B(  0-C ,  1-C ) :   0.9503 B(  0-C ,  4-O ) :   1.0875 B(  0-C , 17-O ) :   1.8756 
B(  1-C ,  5-C ) :   0.9804 B(  1-C ,  6-H ) :   0.9267 B(  1-C ,  7-H ) :   0.9291 
B(  2-H , 13-N ) :   0.8987 B(  3-H , 13-N ) :   0.9081 B(  4-O , 14-H ) :   0.8535 
B(  5-C ,  8-C ) :   0.9855 B(  5-C ,  9-H ) :   0.9367 B(  5-C , 10-H ) :   0.9322 
B(  8-C , 11-C ) :   0.9045 B(  8-C , 13-N ) :   1.0299 B(  8-C , 16-H ) :   0.9307 
B( 11-C , 12-O ) :   1.8507 B( 11-C , 15-O ) :   1.0874 B( 15-O , 18-H ) :   0.8515 


-------
TIMINGS
-------

Total SCF time: 0 days 0 hours 0 min 3 sec 

Total time                  ....       3.606 sec
Sum of individual times     ....       3.163 sec  ( 87.7%)

SCF preparation             ....       0.036 sec  (  1.0%)
Fock matrix formation       ....       3.093 sec  ( 85.8%)
  Startup                   ....       0.001 sec  (  0.0% of F)
  Split-RI-J                ....       1.161 sec  ( 37.5% of F)
  XC integration            ....       2.310 sec  ( 74.7% of F)
    XC Preparation          ....       0.000 sec  (  0.0% of XC)
    Basis function eval.    ....       0.858 sec  ( 37.1% of XC)
    Density eval.           ....       0.515 sec  ( 22.3% of XC)
    XC-Functional eval.     ....       0.436 sec  ( 18.9% of XC)
    XC-Potential eval.      ....       0.440 sec  ( 19.0% of XC)
Diagonalization             ....       0.000 sec  (  0.0%)
Density matrix formation    ....       0.002 sec  (  0.1%)
Total Energy calculation    ....       0.000 sec  (  0.0%)
Population analysis         ....       0.010 sec  (  0.3%)
Orbital Transformation      ....       0.003 sec  (  0.1%)
Orbital Orthonormalization  ....       0.000 sec  (  0.0%)
DIIS solution               ....       0.003 sec  (  0.1%)
SOSCF solution              ....       0.015 sec  (  0.4%)
Finished LeanSCF after   3.6 sec

Maximum memory used throughout the entire LEANSCF-calculation: 21.0 MB



-------------------------------------------------------------------------------
                          DFT DISPERSION CORRECTION                            
-------------------------------------------------------------------------------
Active option DFTDOPT                   ...         2   
Final C6-coefficient scaling factor     ...     1.250
Final VDW-radii scaling factor          ...     1.100
Damping factor alpha                    ...    20.000
-------------------------   ----------------
Dispersion correction           -0.026755255
-------------------------   ----------------


-------------------------   --------------------
FINAL SINGLE POINT ENERGY      -551.287844045420
-------------------------   --------------------

                                *** OPTIMIZATION RUN DONE ***


------------------------------------------------------------------------------
                              ORCA PROPERTY CALCULATIONS
------------------------------------------------------------------------------

GBWName                                 ... 2.gbw
Number of atoms                         ...     19
Number of basis functions               ...    185
Max core memory                         ...   4096 MB

Electric properties:
Dipole moment                           ... YES
Quadrupole moment                       ...  NO
Static polarizability (Dipole/Dipole)   ...  NO
Static polarizability (Dipole/Quad.)    ...  NO
Static polarizability (Quad./Quad.)     ...  NO
Static polarizability (Velocity)        ...  NO
Static hyperpolarizability              ...  NO

Atomic electric properties:
Dipole moment                           ...  NO
Quadrupole moment                       ...  NO
Static polarizability                   ...  NO

Choice of electric origin               ... Center of mass
Position of electric origin             ...    -2.511813     0.737921     0.680130

General magnetic properties:
Magnetizability                         ...  NO

EPR properties:
g-Tensor (aka g-matrix)                 ...  NO
Zero-Field splitting spin-orbit         ...  NO
Zero-field splitting spin-spin          ...  NO
Hyperfine couplings                     ...  NO (   0 nuclei)
Quadrupole couplings                    ...  NO (   0 nuclei)
Contact density                         ...  NO (   0 nuclei)

NMR properties:
Chemical shifts                         ...  NO (   0 nuclei)
Spin-rotation constants                 ...  NO (   0 nuclei)
Spin-spin couplings                     ...  NO (   0 nuclei,    0 pairs)

Choice of magnetic origin               ... GIAO
Position of magnetic origin             ...     0.000000     0.000000     0.000000

Properties with geometric perturbations:
SCF Hessian                             ...  NO
IR spectrum                             ...  NO
VCD spectrum                            ...  NO
X-ray spectroscopy properties:
SCF XES/XAS/RIXS spectra                ...  NO

SCF SOC stabilization energy            ...  NO
Diagonal Born-Oppenheimer correction    ...  NO

-------------
DIPOLE MOMENT
-------------

Method             : SCF
Type of density    : Electron Density
Multiplicity       :   1
Irrep              :   0
Energy             :  -551.2610887906348580 Eh
Basis              : AO
                                X                 Y                 Z
Electronic contribution:     -1.172733436      -5.854867428       3.124112585
Nuclear contribution   :      1.111809103       5.873364056      -2.978565397
                        -----------------------------------------
Total Dipole Moment    :     -0.060924332       0.018496628       0.145547188
                        -----------------------------------------
Magnitude (a.u.)       :      0.158864355
Magnitude (Debye)      :      0.403801100



--------------------
Rotational spectrum 
--------------------
 
Rotational constants in cm-1:             0.069149             0.031736             0.027053 
Rotational constants in MHz :          2073.039509           951.434566           811.020179 

Dipole components along the rotational axes: 
x,y,z [a.u.] :    -0.005505     0.069320     0.142837 
x,y,z [Debye]:    -0.013993     0.176196     0.363062 

 

Dipole moment calculation done in   0.0 sec 

Maximum memory used throughout the entire PROP-calculation: 12.0 MB

--------------------------------
SUGGESTED CITATIONS FOR THIS RUN
--------------------------------

Below you find a list of papers that are relevant to this ORCA run
We neither can nor want to force you to cite these papers, but we appreciate if you do
You receive ORCA, which is the product of decades of hard work by many enthusiastic individuals, for free
The only thing we kindly ask in return is that you cite our papers,
We deeply appreciate it, if you show your appreciation for ORCA by not just citing the generic ORCA reference.

Please note that relegating all ORCA citations to the supporting information does *not* help us.
SI sections are not indexed - citations you put there will not count into any citation statistics
But we need these citations in order to attract the funding resources that allow us to do what we are doing

Therefore, if you are a happy ORCA user, please consider citing a few of the papers listed below in the main body of your paper

In addition to the list printed below, the program has created the file 2.bibtex that contains the list in bibtex format
You can import this file easily into all common literature databanks and citation aid programs


List of essential papers. We consider these as the minimum necessary citations

  1. Neese, F.
     Software update: the ORCA program system, version 6.0
     WIRES Comput. Molec. Sci. 2025 15(1), e70019
     doi.org/10.1002/wcms.7019

List of papers to cite with high priority. The work reported in these papers was absolutely
necessary for this run to complete.
Our perspective: the developers of density functionals and basis sets usually get cited in chemistry papers
Good! But without the algorithms to do something with them, the functionals or basis sets would not do anything.
Hence, in our opinion, the algorithm design and method developments papers are equally worthy of getting cited

  1. Neese, F.
     An improvement of the resolution of the identity approximation for the formation of the Coulomb matrix
     J. Comp. Chem. 2003 24(14), 1740-1747
     doi.org/10.1002/jcc.10318
  2. Grimme, S.
     Semiempirical GGA-type density functional constructed with a long-range dispersion correction
     J.Comput.Chem. 2006 27(15), 1787-1799
     doi.org/10.1002/jcc.20495
  3. Neese, F.
     The SHARK Integral Generation and Digestion System
     J. Comp. Chem. 2022 44(3), 381
     doi.org/10.1002/jcc.26942

List of suggested additional citations. These are papers that are important in the 'surrounding' of 
of this run, or papers that preceded the highly important papers. If you like your results we are grateful for a citation.

  1. Neese, F.
     The ORCA program system
     WIRES Comput. Molec. Sci. 2012 2(1), 73-78
     doi.org/10.1002/wcms.81
  2. Neese, F.
     Software update: the ORCA program system, version 4.0
     WIRES Comput. Molec. Sci. 2018 8(1), 1-6
     doi.org/10.1002/wcms.1327
  3. Neese, F.; Wennmohs, F.; Becker, U.; Riplinger, C.
     The ORCA quantum chemistry program package
     J. Chem. Phys. 2020 152(22), 224108
     doi.org/10.1063/5.0004608
  4. Neese, F.
     Software update: The ORCA program system—Version 5.0
     WIRES Comput. Molec. Sci. 2022 12(1), e1606
     doi.org/10.1002/wcms.1606

List of optional additional citations

  1. Neese, F.
     Approximate second-order SCF convergence for spin unrestricted wavefunctions
     Chem. Phys. Lett. 2000 325(1-3), 93-98
     doi.org/10.1016/s0009-2614(00)00662-x

Timings for individual modules:

Sum of individual times          ...      103.682 sec (=   1.728 min)
Startup calculation              ...        5.299 sec (=   0.088 min)   5.1 %
SCF iterations                   ...       62.799 sec (=   1.047 min)  60.6 %
Property calculations            ...        0.044 sec (=   0.001 min)   0.0 %
SCF Gradient evaluation          ...       35.522 sec (=   0.592 min)  34.3 %
Geometry relaxation              ...        0.017 sec (=   0.000 min)   0.0 %
                             ****ORCA TERMINATED NORMALLY****
TOTAL RUN TIME: 0 days 0 hours 1 minutes 43 seconds 954 msec
