
                                 *****************
                                 * O   R   C   A *
                                 *****************

                                            #,                                       
                                            ###                                      
                                            ####                                     
                                            #####                                    
                                            ######                                   
                                           ########,                                 
                                     ,,################,,,,,                         
                               ,,#################################,,                 
                          ,,##########################################,,             
                       ,#########################################, ''#####,          
                    ,#############################################,,   '####,        
                  ,##################################################,,,,####,       
                ,###########''''           ''''###############################       
              ,#####''   ,,,,##########,,,,          '''####'''          '####       
            ,##' ,,,,###########################,,,                        '##       
           ' ,,###''''                  '''############,,,                           
         ,,##''                                '''############,,,,        ,,,,,,###''
      ,#''                                            '''#######################'''  
     '                                                          ''''####''''         
             ,#######,   #######,   ,#######,      ##                                
            ,#'     '#,  ##    ##  ,#'     '#,    #''#        ,####,    ,#,          
            ##       ##  ##   ,#'  ##            #'  '#       #'       ,# #          
            ##       ##  #######   ##           ,######,      #####,      #          
            '#,     ,#'  ##    ##  '#,     ,#' ,#      #,     #,   #      #          
             '#######'   ##     ##  '#######'  #'      '#     '####' #    #          



                #########################################################
                #                        -***-                          #
                #          Department of theory and spectroscopy        #
                #                                                       #
                #                      Frank Neese                      #
                #                                                       #
                #     Directorship, Architecture, Infrastructure        #
                #                    SHARK, DRIVERS                     #
                #        Core code/Algorithms in most modules           #
                #                                                       #
                #        Max Planck Institute fuer Kohlenforschung      #
                #                Kaiser Wilhelm Platz 1                 #
                #                 D-45470 Muelheim/Ruhr                 #
                #                      Germany                          #
                #                                                       #
                #                  All rights reserved                  #
                #                        -***-                          #
                #########################################################


                         Program Version 6.1.0  -  RELEASE   -
                                (GIT: $679e74b$)
                          ($2025-06-10 18:02:51 +0200$)


 With contributions from (in alphabetic order):
[Max-Planck-Institut fuer Kohlenforschung]                               
  Daniel Aravena         : Magnetic Suceptibility                        
  Michael Atanasov       : Ab Initio Ligand Field Theory (pilot matlab implementation)
  Alexander A. Auer      : GIAO ZORA, VPT2 properties, NMR spectrum      
  Ute Becker             : All parallelization in ORCA, NUMFREQ, NUMCALC 
  Giovanni Bistoni       : ED, misc. LED, open-shell LED, HFLD           
  Dmytro Bykov           : pre 5.0 version of the SCF Hessian            
  Marcos Casanova-Páez   : Triplet and SCS-CIS(D). UHF-(DLPNO)-IP/EA/STEOM-CCSD. UHF-CVS-IP/STEOM-CCSD   
  Vijay G. Chilkuri      : MRCI spin determinant printing, contributions to CSF-ICE 
  Pauline Colinet        : FMM embedding                                 
  Dipayan Datta          : RHF DLPNO-CCSD density                        
  Achintya Kumar Dutta   : EOM-CC, STEOM-CC                              
  Nicolas Foglia         : Exact transition moments, OPA infrastructure, MCD improvements    
  Dmitry Ganyushin       : Spin-Orbit,Spin-Spin,Magnetic field MRCI      
  Miquel Garcia-Rates    : C-PCM and meta-GGA Hessian, CCSD/C-PCM, Gaussian charge scheme 
  Tiago L. C. Gouveia    : GS-ROHF, GS-ROCIS                             
  Yang Guo               : DLPNO-NEVPT2, F12-NEVPT2, CIM, IAO-localization        
  Andreas Hansen         : Spin unrestricted coupled pair/coupled cluster methods 
  Ingolf Harden          : AUTO-CI MPn and infrastructure                
  Benjamin Helmich-Paris : MC-RPA, TRAH-(SCF,CASSCF), AVAS, COSX integrals, SCF dyn. polar., MC-PDFT, srDFT 
  Lee Huntington         : MR-EOM, pCC                                   
  Robert Izsak           : Overlap fitted RIJCOSX, COSX-SCS-MP3, EOM     
  Riya Kayal             : Wick's Theorem for AUTO-CI, AUTO-CI UHF-CCSDT 
  Emily Kempfer          : AUTO-CI RHF CISDT and CCSDT, approximate NEVPT4
  Christian Kollmar      : KDIIS, OOCD, Brueckner-CCSD(T), CCSD density, CASPT2, CASPT2-K, improved NEVPT2 
  Axel Koslowski         : Symmetry handling                             
  Simone Kossmann        : meta-GGA functionals, TD-DFT gradient, OOMP2, (MP2 Hessian; deprecated post 5.0) 
  Lucas Lang             : DCDCAS, Hyperfine gauge corrections, ICE-SOC+SSC
  Marvin Lechner         : AUTO-CI (C++ implementation), FIC-MRCC        
  Spencer Leger          : CASSCF response                               
  Dagmar Lenk            : GEPOL surface, SMD, ORCA-2-JSON               
  Dimitrios Liakos       : Extrapolation schemes; Compound Job, Property file
  Dimitrios Manganas     : Further ROCIS development; embedding schemes. LFT, Crystal Embedding 
  Dimitrios Pantazis     : SARC Basis sets                               
  Anastasios Papadopoulos: AUTO-CI, single reference methods and gradients 
  Taras Petrenko         : pre 6.0 DFT Hessian and TD-DFT gradient,  ECA, NRVS 
  Petra Pikulova         : Analytic Raman intensities                    
  Peter Pinski           : DLPNO-MP2, DLPNO-MP2 Gradient                 
  Shashank Vittal Rao    : ES-AILFT, MagRelax                            
  Christoph Reimann      : Effective Core Potentials                     
  Marius Retegan         : Local ZFS, SOC                                
  Christoph Riplinger    : Optimizer, TS searches, QM/MM, DLPNO-CCSD(T), (RO)-DLPNO pert. Triples 
  Michael Roemelt        : Original ROCIS implementation, recursive CI coupling coefficients
  Masaaki Saitow         : Open-shell DLPNO-CCSD energy and density      
  Barbara Sandhoefer     : DKH picture change effects                    
  Yorick L. A. Schmerwitz: GMF and freeze-and-release deltaSCF, NEB S-IDPP initial path                    
  Kantharuban Sivalingam : CASSCF convergence/infrastructure, NEVPT2, NEVPT3, NEVPT4(SD), FIC-MRCI and CEPA variants
  Bernardo de Souza      : ESD, SOC TD-DFT                               
  Georgi L. Stoychev     : AutoAux, RI-MP2 NMR, DLPNO-MP2 response, X2C  
  Van Anh Tran           : RI-MP2 g-tensors                              
  Willem Van den Heuvel  : Paramagnetic NMR                              
  Zikuan Wang            : NOTCH, Electric field optimization            
  Frank Wennmohs         : Technical directorship and infrastructure     
  Hang Xu                : AUTO-CI-Response properties                   
                                                                         
[FACCTs GmbH]                                                            
  Markus Bursch, Nicolas Foglia, Miquel Garcia-Rates, Ingolf Harden, Hagen Neugebauer, Anastasios Papadopoulos, 
  Christoph Riplinger, Bernardo de Souza, Georgi L. Stoychev                                                    
                                                                 
  APM, various basis sets, CI-OPT, improved COSX, DLPNO-Multilevel,           
  DOCKER, DRACO, updates on ESD, Fragmentator, GOAT, IRC, LR-CPCM, L-BFGS, MBIS, meta-GGA TD-DFT gradient, ML-optimized integration grids, 
  MM, NACMEs, nearIR, NEB, NEB-TS, NL-DFT gradient (VV10), 2- and 3-layer-ONIOM, interface openCOSMO-RS, QMMM,   
  Crystal-QMMM, RESP, rigid body optimization, SF, symmetry and pop. for TD-DFT, various functionals, SOLVATOR                                   
                                                                         
[Other institutions]                                                     
  V. Asgeirsson          : NEB                                           
  Christoph Bannwarth    : sTDA-DFT, sTD-DFT, PBEh-3c, B97-3c, D3        
  Giovanni Bistoni       : ETS/NOCV, ADLD/ADEX, COVALED                  
  Martin Brehm           : Molecular dynamics                            
  Ronald Cardenas        : ETS/NOCV                                      
  Martina Colucci        : COVALED                                       
  Sebastian Ehlert       : rSCAN, r2SCAN, r2SCAN-3c, D4, dhf basis sets  
  Marvin Friede          : D4 for Fr, Ra, Ac-Lr                          
  Lars Goerigk           : TD-DFT with DH, B97 family of functionals     
  Stefan Grimme          : VdW corrections, initial TS optimization, DFT functionals, gCP, sTDA/sTD-DF 
  Waldemar Hujo          : DFT-NL                                        
  H. Jonsson             : NEB                                           
  Holger Kruse           : gCP                                           
  Marcel Mueller         : wB97X-3c, vDZP basis set                      
  Hagen Neugebauer       : wr2SCAN, Native XTB                           
  Gianluca Regni         : ADLD/ADEX                                     
  Tobias Risthaus        : pre 6.0 range-separated hybrid DFT and stability analysis
  Lukas Wittmann         : regularized MP2, r2SCAN double-hybrids, wr2SCAN        
                                                                         
We gratefully acknowledge several colleagues who have allowed us to      
interface, adapt or use parts of their codes:                            
  Ed Valeev, F. Pavosevic, A. Kumar             : LibInt (2-el integral package), F12 methods 
  Garnet Chan, S. Sharma, J. Yang, R. Olivares  : DMRG                   
  Ulf Ekstrom                                   : XCFun DFT Library      
  Mihaly Kallay                                 : mrcc  (arbitrary order and MRCC methods)
  Frank Weinhold                                : gennbo (NPA and NBO analysis)           
  Simon Mueller                                 : openCOSMO-RS                            
  Christopher J. Cramer and Donald G. Truhlar   : smd solvation model                     
  S Lehtola, MJT Oliveira, MAL Marques          : LibXC Library                           
  Liviu Ungur et al                             : ANISO software                          


 Your calculation uses the libint2 library for the computation of 2-el integrals
 For citations please refer to: http://libint.valeyev.net

 Your ORCA version has been built with support for libXC version: 7.0.0
 For citations please refer to: https://libxc.gitlab.io

 This ORCA versions uses:
   CBLAS   interface :  Fast vector & matrix operations
   LAPACKE interface :  Fast linear algebra routines
   SCALAPACK package :  Parallel linear algebra routines
   Shared memory     :  Shared parallel matrices
   BLAS/LAPACK       :  OpenBLAS 0.3.29  USE64BITINT DYNAMIC_ARCH NO_AFFINITY Haswell SINGLE_THREADED
        Core in use  :  Haswell
   Copyright (c) 2011-2014, The OpenBLAS Project


  ***********************************
  * Starting time: Sun Aug 31 13:22:45 2025
  * Host name:     chemlab03
  * Process ID:    92451
  * Working dir.:  /home/vivek/mm-project/vivek/xtb-goat/MP2-opt/d/1
  ***********************************



***************************************
The coordinates will be read from file: /home/vivek/mm-project/vivek/xtb-goat/xtb-goat/d/D_CONF/1.xyz
***************************************


================================================================================

----- Orbital basis set information -----
Your calculation utilizes the basis: 6-31G**
   H-He, Li-Ne : W. J. Hehre, R. Ditchfield and J.A. Pople, J. Chem. Phys. 56, 2257 (1972).
                 Note: He and Ne are unpublished basis sets taken from the Gaussian program.
                 Note: Li and B from J. D. Dill and J. A. Pople, J. Chem. Phys. 62, 2921 (1975).
   Na - Ar     : M. M. Francl, W. J. Pietro, W. J. Hehre, J. S. Binkley, M. S. Gordon, 
                 D. J. DeFrees and J. A. Pople, J. Chem. Phys. 77, 3654 (1982).
   K - Zn      : V. A. Rassolov, J. A. Pople, M. A. Ratner, and T. L. Windus, J. Chem. Phys. 109, 1223 (1998).

================================================================================
                                        WARNINGS
                       Please study these warnings very carefully!
================================================================================


WARNING: The frozen-core approximation for MP2-gradient calculations is turned on by default.

WARNING: Geometry Optimization
  ===> : Switching off AutoStart
         For restart on a previous wavefunction, please use MOREAD

WARNING: Post HF methods need fully converged wavefunctions
  ===> : Setting SCFConvForced true
         You can overwrite this default with %scf ConvForced false 


================================================================================
                                       INPUT FILE
================================================================================
NAME = 1.inp
|  1> ! MP2 6-31G** opt
|  2> 
|  3> * xyzfile 0 1 /home/vivek/mm-project/vivek/xtb-goat/xtb-goat/d/D_CONF/1.xyz
|  4> 
|  5>                          ****END OF INPUT****
================================================================================

                       *****************************
                       * Geometry Optimization Run *
                       *****************************

Geometry optimization settings:
Update method            Update   .... BFGS
Choice of coordinates    CoordSys .... (2022) Redundant Internals
Initial Hessian          InHess   .... Almloef's Model
Max. no of cycles        MaxIter  .... 50

Convergence Tolerances:
Energy Change            TolE     ....  5.0000e-06 Eh
Max. Gradient            TolMAXG  ....  3.0000e-04 Eh/bohr
RMS Gradient             TolRMSG  ....  1.0000e-04 Eh/bohr
Max. Displacement        TolMAXD  ....  4.0000e-03 bohr
RMS Displacement         TolRMSD  ....  2.0000e-03 bohr
Strict Convergence                .... False

------------------------------------------------------------------------------
                        ORCA OPTIMIZATION COORDINATE SETUP
------------------------------------------------------------------------------

The optimization will be done in redundant internal coordinates (2022)
Making redundant internal coordinates   ...  (2022 redundants) done
Evaluating the initial hessian          ...  (Almloef) done
Evaluating the coordinates              ...  done
Calculating the B-matrix                .... done
Calculating the G-matrix                .... done
The number of degrees of freedom        ....   64

    -----------------------------------------------------------------
                    Redundant Internal Coordinates


    -----------------------------------------------------------------
         Definition                    Initial Value    Approx d2E/dq
    -----------------------------------------------------------------
      1. B(C   1,C   0)                  1.5078         0.405293   
      2. B(O   4,C   0)                  1.3338         0.687906   
      3. B(C   5,C   1)                  1.5331         0.369332   
      4. B(H   6,C   1)                  1.0901         0.360011   
      5. B(H   7,C   1)                  1.0905         0.359385   
      6. B(C   8,C   5)                  1.5333         0.369013   
      7. B(C   8,O   2)                  1.2020         1.116258   
      8. B(O   9,C   0)                  1.2028         1.112969   
      9. B(N  10,C   5)                  1.4472         0.453586   
     10. B(O  11,C   8)                  1.3339         0.687716   
     11. B(O  11,H   3)                  0.9697         0.501676   
     12. B(H  12,N  10)                  1.0141         0.426201   
     13. B(H  13,O   4)                  0.9705         0.500190   
     14. B(H  14,C   5)                  1.0986         0.348911   
     15. B(H  15,N  10)                  1.0157         0.423782   
     16. B(H  15,O   9)                  2.3951         0.010000   
     17. A(C   1,C   0,O   9)          125.3464         0.443844   
     18. A(C   1,C   0,O   4)          111.9419         0.407231   
     19. A(O   4,C   0,O   9)          122.7116         0.485691   
     20. A(C   5,C   1,H   7)          110.5307         0.323606   
     21. A(C   0,C   1,H   6)          108.9346         0.328686   
     22. A(H   6,C   1,H   7)          108.7375         0.290737   
     23. A(C   5,C   1,H   6)          110.0567         0.323698   
     24. A(C   0,C   1,C   5)          110.6716         0.367737   
     25. A(C   0,C   1,H   7)          107.8486         0.328592   
     26. A(C   0,O   4,H  13)          110.6453         0.374294   
     27. A(C   8,C   5,N  10)          115.1477         0.372522   
     28. A(C   1,C   5,N  10)          110.2417         0.372578   
     29. A(N  10,C   5,H  14)          107.9710         0.331126   
     30. A(C   8,C   5,H  14)          106.5954         0.321995   
     31. A(C   1,C   5,H  14)          108.6558         0.322040   
     32. A(C   1,C   5,C   8)          108.0158         0.361883   
     33. A(C   5,C   8,O  11)          112.4862         0.400529   
     34. A(O   2,C   8,O  11)          123.1551         0.485931   
     35. A(O   2,C   8,C   5)          124.3256         0.436623   
     36. A(H  12,N  10,H  15)          107.1492         0.301519   
     37. A(C   5,N  10,H  15)          109.1818         0.339069   
     38. A(C   5,N  10,H  12)          110.2027         0.339392   
     39. A(H   3,O  11,C   8)          110.2871         0.374468   
     40. D(H   6,C   1,C   0,O   9)    120.1868         0.012177   
     41. D(C   5,C   1,C   0,O   9)     -0.9411         0.012177   
     42. D(H   6,C   1,C   0,O   4)    -59.8193         0.012177   
     43. D(C   5,C   1,C   0,O   4)    179.0529         0.012177   
     44. D(H   7,C   1,C   0,O   4)     58.0363         0.012177   
     45. D(H  13,O   4,C   0,O   9)      1.0474         0.035321   
     46. D(H  13,O   4,C   0,C   1)   -178.9467         0.035321   
     47. D(N  10,C   5,C   1,H   7)   -168.5865         0.010907   
     48. D(N  10,C   5,C   1,H   6)    -48.4614         0.010907   
     49. D(N  10,C   5,C   1,C   0)     71.9999         0.010907   
     50. D(C   8,C   5,C   1,H   7)     64.8148         0.010907   
     51. D(C   8,C   5,C   1,H   6)   -175.0601         0.010907   
     52. D(C   8,C   5,C   1,C   0)    -54.5987         0.010907   
     53. D(O   2,C   8,C   5,N  10)   -164.6604         0.010201   
     54. D(O   2,C   8,C   5,C   1)    -40.9778         0.010201   
     55. D(O  11,C   8,C   5,N  10)     17.3805         0.010201   
     56. D(O  11,C   8,C   5,C   1)    141.0631         0.010201   
     57. D(O   2,C   8,C   5,H  14)     75.6325         0.010201   
     58. D(H  15,N  10,C   5,C   1)    -62.9691         0.017555   
     59. D(H  12,N  10,C   5,H  14)     61.0432         0.017555   
     60. D(H  12,N  10,C   5,C   8)    -57.9019         0.017555   
     61. D(H  15,N  10,C   5,C   8)     59.5287         0.017555   
     62. D(H  12,N  10,C   5,C   1)    179.6003         0.017555   
     63. D(H   3,O  11,C   8,C   5)   -177.7947         0.035300   
     64. D(H   3,O  11,C   8,O   2)      4.2185         0.035300   
    -----------------------------------------------------------------

Number of atoms                         .... 16
Number of degrees of freedom            .... 64


         *************************************************************
         *                GEOMETRY OPTIMIZATION CYCLE   1            *
         *************************************************************
---------------------------------
CARTESIAN COORDINATES (ANGSTROEM)
---------------------------------
  C     -4.383114    1.357501    1.271349
  C     -3.935311    1.138097   -0.151622
  O     -4.400642    3.933498   -0.477047
  H     -2.687408    5.187029    0.484796
  O     -5.379758    0.539153    1.612005
  C     -2.806563    2.108175   -0.519457
  H     -3.593716    0.108646   -0.260199
  H     -4.798008    1.291261   -0.800910
  C     -3.293833    3.533434   -0.232492
  O     -3.916869    2.165306    2.030876
  N     -1.582192    1.729775    0.152881
  O     -2.336575    4.305567    0.283943
  H     -0.834355    2.367943   -0.095978
  H     -5.663949    0.707423    2.524632
  H     -2.630976    2.048661   -1.602293
  H     -1.716540    1.802853    1.156974

----------------------------
CARTESIAN COORDINATES (A.U.)
----------------------------
  NO LB      ZA    FRAG     MASS         X           Y           Z
   0 C     6.0000    0    12.011   -8.282886    2.565306    2.402501
   1 C     6.0000    0    12.011   -7.436660    2.150692   -0.286524
   2 O     8.0000    0    15.999   -8.316008    7.433234   -0.901488
   3 H     1.0000    0     1.008   -5.078465    9.802064    0.916131
   4 O     8.0000    0    15.999  -10.166269    1.018852    3.046248
   5 C     6.0000    0    12.011   -5.303636    3.983872   -0.981631
   6 H     1.0000    0     1.008   -6.791140    0.205311   -0.491706
   7 H     1.0000    0     1.008   -9.066921    2.440130   -1.513500
   8 C     6.0000    0    12.011   -6.224443    6.677222   -0.439346
   9 O     8.0000    0    15.999   -7.401810    4.091836    3.837800
  10 N     7.0000    0    14.007   -2.989909    3.268802    0.288904
  11 O     8.0000    0    15.999   -4.415486    8.136343    0.536574
  12 H     1.0000    0     1.008   -1.576702    4.474764   -0.181372
  13 H     1.0000    0     1.008  -10.703312    1.336835    4.770863
  14 H     1.0000    0     1.008   -4.971824    3.871408   -3.027894
  15 H     1.0000    0     1.008   -3.243790    3.406899    2.186365

--------------------------------
INTERNAL COORDINATES (ANGSTROEM)
--------------------------------
 C      0   0   0     0.000000000000     0.00000000     0.00000000
 C      1   0   0     1.507817001383     0.00000000     0.00000000
 O      2   1   0     2.852490213147    85.21699938     0.00000000
 H      3   2   1     2.330590214989   111.10590897    76.34942053
 O      1   2   3     1.333806146402   111.94194961   125.72119496
 C      2   1   3     1.533109312540   110.67156053    53.33165581
 H      2   1   3     1.090066963208   108.93455300   174.45954453
 H      2   1   3     1.090540926428   107.84861849   292.31508067
 C      3   2   1     1.202033173287    60.02772173    95.86632316
 O      1   2   3     1.202836389804   125.34644085   305.72724475
 N      6   2   1     1.447173257678   110.24173701    71.99991377
 O      4   3   2     0.969742487731    72.03550149    23.29387257
 H     11   6   2     1.014124529154   110.20274383   179.60033056
 H      5   1   2     0.970549872211   110.64531120   181.05326768
 H      6   2   1     1.098592628651   108.65580643   190.13694592
 H     11   6   2     1.015673641832   109.18179304   297.03093180

---------------------------
INTERNAL COORDINATES (A.U.)
---------------------------
 C      0   0   0     0.000000000000     0.00000000     0.00000000
 C      1   0   0     2.849361192685     0.00000000     0.00000000
 O      2   1   0     5.390425302538    85.21699938     0.00000000
 H      3   2   1     4.404177236725   111.10590897    76.34942053
 O      1   2   3     2.520528332441   111.94194961   125.72119496
 C      2   1   3     2.897156734064   110.67156053    53.33165581
 H      2   1   3     2.059928028099   108.93455300   174.45954453
 H      2   1   3     2.060823688782   107.84861849   292.31508067
 C      3   2   1     2.271513501401    60.02772173    95.86632316
 O      1   2   3     2.273031360644   125.34644085   305.72724475
 N      6   2   1     2.734761125347   110.24173701    71.99991377
 O      4   3   2     1.832547722239    72.03550149    23.29387257
 H     11   6   2     1.916417625793   110.20274383   179.60033056
 H      5   1   2     1.834073457791   110.64531120   181.05326768
 H      6   2   1     2.076039200895   108.65580643   190.13694592
 H     11   6   2     1.919345024505   109.18179304   297.03093180

---------------------
BASIS SET INFORMATION
---------------------
There are 4 groups of distinct atoms

 Group   1 Type C   : 10s4p1d contracted to 3s2p1d pattern {631/31/1}
 Group   2 Type O   : 10s4p1d contracted to 3s2p1d pattern {631/31/1}
 Group   3 Type H   : 4s1p contracted to 2s1p pattern {31/1}
 Group   4 Type N   : 10s4p1d contracted to 3s2p1d pattern {631/31/1}

Atom   0C    basis set group =>   1
Atom   1C    basis set group =>   1
Atom   2O    basis set group =>   2
Atom   3H    basis set group =>   3
Atom   4O    basis set group =>   2
Atom   5C    basis set group =>   1
Atom   6H    basis set group =>   3
Atom   7H    basis set group =>   3
Atom   8C    basis set group =>   1
Atom   9O    basis set group =>   2
Atom  10N    basis set group =>   4
Atom  11O    basis set group =>   2
Atom  12H    basis set group =>   3
Atom  13H    basis set group =>   3
Atom  14H    basis set group =>   3
Atom  15H    basis set group =>   3
------------------------------------------------------------------------------
                             ORCA STARTUP CALCULATIONS
------------------------------------------------------------------------------
------------------------------------------------------------------------------
                   ___                                                        
                  /   \      - P O W E R E D   B Y -                         
                 /     \                                                     
                 |  |  |   _    _      __       _____    __    __             
                 |  |  |  | |  | |    /  \     |  _  \  |  |  /  |          
                  \  \/   | |  | |   /    \    | | | |  |  | /  /          
                 / \  \   | |__| |  /  /\  \   | |_| |  |  |/  /          
                |  |  |   |  __  | /  /__\  \  |    /   |      \           
                |  |  |   | |  | | |   __   |  |    \   |  |\   \          
                \     /   | |  | | |  |  |  |  | |\  \  |  | \   \       
                 \___/    |_|  |_| |__|  |__|  |_| \__\ |__|  \__/        
                                                                              
                      - O R C A' S   B I G   F R I E N D -                    
                                      &                                       
                       - I N T E G R A L  F E E D E R -                       
                                                                              
 v1 FN, 2020, v2 2021, v3 2022-2024                                           
------------------------------------------------------------------------------


----------------------
SHARK INTEGRAL PACKAGE
----------------------

Number of atoms                             ...     16
Number of basis functions                   ...    161
Number of shells                            ...     75
Maximum angular momentum                    ...      2
Integral batch strategy                     ... SHARK/LIBINT Hybrid
RI-J (if used) integral strategy            ... SPLIT-RIJ (Revised 2003 algorithm where possible)
Printlevel                                  ...      1
Contraction scheme used                     ... SEGMENTED contraction
Prescreening option                         ... SCHWARTZ
   Thresh                                   ... 2.500e-11
   Tcut                                     ... 2.500e-12
   Tpresel                                  ... 2.500e-12 
Coulomb Range Separation                    ... NOT USED
Exchange Range Separation                   ... NOT USED
Multipole approximations                    ... NOT USED
Finite Nucleus Model                        ... NOT USED
CABS basis                                  ... NOT available
Auxiliary Coulomb fitting basis             ... NOT available
Auxiliary J/K fitting basis                 ... NOT available
Auxiliary Correlation fitting basis         ... NOT available
Auxiliary 'external' fitting basis          ... NOT available

Checking pre-screening integrals            ... done (  0.0 sec) Dimension = 75
   => SHARK Basis and OBASIS are compatible. Storing Pre-screening
Shell pair information
Shell pair cut-off parameter TPreSel        ...   2.5e-12
Total number of shell pairs                 ...      2850
Shell pairs after pre-screening             ...      2642
Total number of primitive shell pairs       ...     14745
Primitive shell pairs kept                  ...      9089
          la=0 lb=0:    779 shell pairs
          la=1 lb=0:    949 shell pairs
          la=1 lb=1:    308 shell pairs
          la=2 lb=0:    348 shell pairs
          la=2 lb=1:    214 shell pairs
          la=2 lb=2:     44 shell pairs

Checking whether 4 symmetric matrices of dimension 161 fit in memory
:Max Core in MB      =   4096.00
 MB in use           =      4.89
 MB left             =   4091.11
 MB needed           =      0.40
 Data fit in memory  = YES
Calculating Nuclear repulsion               ... done (  0.0 sec) ENN=    485.336435240437 Eh

Diagonalization of the overlap matrix:
Smallest eigenvalue                        ... 2.754e-03
Time for diagonalization                   ...    0.001 sec
Threshold for overlap eigenvalues          ... 1.000e-07
Number of eigenvalues below threshold      ... 0
Time for construction of square roots      ...    0.000 sec
Total time needed                          ...    0.002 sec

-------------------
DFT GRID GENERATION
-------------------

General Integration Accuracy     IntAcc      ... 4.388
Radial Grid Type                 RadialGrid  ... OptM3 with GC (2021)
Angular Grid (max. ang.)         AngularGrid ... 4 (Lebedev-302)
Angular grid pruning method      GridPruning ... 4 (adaptive)
Weight generation scheme         WeightScheme... mBecke (2022)
Basis function cutoff            BFCut       ... 1.0000e-11
Integration weight cutoff        WCut        ... 1.0000e-14
Partially contracted basis set               ... off
Rotationally invariant grid construction     ... off
Angular grids for H and He will be reduced by one unit

Total number of grid points                  ...    76923
Total number of batches                      ...     1210
Average number of points per batch           ...       63
Average number of grid points per atom       ...     4808
Grids setup in   0.3 sec
Initializing property integral containers    ... done (  0.0 sec)

SHARK setup successfully completed in   0.3 seconds

Maximum memory used throughout the entire STARTUP-calculation: 30.3 MB
-------------------------------------------------------------------------------
                                 ORCA GUESS
                   Start orbitals & Density for SCF / CASSCF
-------------------------------------------------------------------------------

------------
SCF SETTINGS
------------
Hamiltonian:
 Ab initio Hamiltonian  Method          .... Hartree-Fock(GTOs)


General Settings:
 Integral files         IntName         .... 1
 Hartree-Fock type      HFTyp           .... RHF
 Total Charge           Charge          ....    0
 Multiplicity           Mult            ....    1
 Number of Electrons    NEL             ....   70
 Basis Dimension        Dim             ....  161
 Nuclear Repulsion      ENuc            ....    485.3364352404 Eh

Convergence Acceleration:
 AO-DIIS                CNVDIIS         .... on
   Start iteration      DIISMaxIt       ....    12
   Startup error        DIISStart       ....  0.200000
   # of expansion vecs  DIISMaxEq       ....     5
   Bias factor          DIISBfac        ....   1.050
   Max. coefficient     DIISMaxC        ....  10.000
 MO-DIIS                CNVKDIIS        .... off
 Trust-Rad. Augm. Hess. CNVTRAH         .... auto
   Auto Start mean grad. ratio tolernc. ....  1.125000
   Auto Start start iteration           ....    50
   Auto Start num. interpolation iter.  ....    10
   Max. Number of Micro iterations      ....    24
   Max. Number of Macro iterations      .... Maxiter - #DIIS iter
   Number of Davidson start vectors     ....     2
   Converg. threshold    (grad. norm)   ....   1.000e-05
   Grad. Scal. Fac. for Micro threshold ....   0.100
   Minimum threshold for Micro iter.    ....   1.000e-02
   NR start threshold (gradient norm)   ....   1.000e-04
   Initial trust radius                 ....   0.400
   Minimum AH scaling param. (alpha)    ....   1.000
   Maximum AH scaling param. (alpha)    .... 1000.000
   Quad. conv. algorithm                .... NR
   White noise on init. David. guess    .... on
   Maximum white noise                  ....   0.010
   Pseudo random numbers                .... off
   Inactive MOs                         .... canonical
   Orbital update algorithm             .... Taylor
   Preconditioner                       .... Diag
   Full preconditioner red. dimension   ....   250
 SOSCF                 CNVSOSCF           .... on
   Start iteration     SOSCFMaxIt         ....   150
   Startup grad/error  SOSCFStart         ....  0.003300
   Hessian update      SOSCFHessUp        .... L-BFGS
   Autom. constraints  SOSCFAutoConstrain .... off
 Level Shifting         CNVShift        .... on
   Level shift para.    LevelShift      ....    0.2500
   Turn off err/grad.   ShiftErr        ....    0.0010
 Zerner damping         CNVZerner       .... off
 Static damping         CNVDamp         .... on
   Fraction old density DampFac         ....    0.7000
   Max. Damping (<1)    DampMax         ....    0.9800
   Min. Damping (>=0)   DampMin         ....    0.0000
   Turn off err/grad.   DampErr         ....    0.1000

SCF Procedure:
 Maximum # iterations   MaxIter         ....   125
 SCF integral mode      SCFMode         .... Direct
   Integral package                     .... SHARK and LIBINT hybrid scheme
 Reset frequency        DirectResetFreq ....    20
 Integral Threshold     Thresh          ....  2.500e-11 Eh
 Primitive CutOff       TCut            ....  2.500e-12 Eh

Convergence Tolerance:
 Convergence Check Mode ConvCheckMode   .... Total+1el-Energy
 Convergence forced     ConvForced      .... 1
 Energy Change          TolE            ....  1.000e-08 Eh
 1-El. energy change                    ....  1.000e-05 Eh
 Orbital Gradient       TolG            ....  1.000e-05
 Orbital Rotation angle TolX            ....  1.000e-05
 DIIS Error             TolErr          ....  5.000e-07

------------------------------
INITIAL GUESS: MODEL POTENTIAL
------------------------------
Loading Hartree-Fock densities                     ... done
Calculating cut-offs                               ... done
Initializing the effective Hamiltonian             ... done
Setting up the integral package (SHARK)            ... done
Starting the Coulomb interaction                   ... done (   0.0 sec)
Making the grid                                    ... done (   0.1 sec)
Mapping shells                                     ... done
Starting the XC term evaluation                    ... done (   0.0 sec)
Transforming the Hamiltonian                       ... done (   0.0 sec)
Diagonalizing the Hamiltonian                      ... done (   0.0 sec)
Back transforming the eigenvectors                 ... done (   0.0 sec)
Now organizing SCF variables                       ... done
                      ------------------
                      INITIAL GUESS DONE (   0.2 sec)
                      ------------------
             **** ENERGY FILE WAS UPDATED (1.en.tmp) ****
Finished Guess after   0.2 sec
Maximum memory used throughout the entire GUESS-calculation: 9.7 MB

-------------------------------------------------------------------------------------------
                                      ORCA LEAN-SCF
                              memory conserving SCF solver
-------------------------------------------------------------------------------------------

----------------------------------------D-I-I-S--------------------------------------------
Iteration    Energy (Eh)           Delta-E    RMSDP     MaxDP     DIISErr   Damp  Time(sec)
-------------------------------------------------------------------------------------------
               ***  Starting incremental Fock matrix formation  ***
    1    -509.1298257576101491     0.00e+00  2.74e-03  6.67e-02  2.54e-01  0.700   1.3
    2    -509.2655113060108647    -1.36e-01  1.99e-03  4.77e-02  1.55e-01  0.700   1.2
                               ***Turning on AO-DIIS***
    3    -509.3436097868498678    -7.81e-02  1.07e-03  2.05e-02  8.71e-02  0.700   1.2
    4    -509.3928483282520006    -4.92e-02  2.45e-03  4.49e-02  6.12e-02  0.000   1.2
    5    -509.5031269153933522    -1.10e-01  3.26e-04  5.58e-03  5.52e-03  0.000   1.2
    6    -509.5036967420931546    -5.70e-04  1.58e-04  2.35e-03  3.38e-03  0.000   1.2
                              *** Initializing SOSCF ***
---------------------------------------S-O-S-C-F--------------------------------------
Iteration    Energy (Eh)           Delta-E    RMSDP     MaxDP     MaxGrad    Time(sec)
--------------------------------------------------------------------------------------
    7    -509.5038290833742280    -1.32e-04  1.01e-04  1.90e-03  1.66e-03     1.1
               *** Restarting incremental Fock matrix formation ***
    8    -509.5038741298272384    -4.50e-05  4.76e-05  7.17e-04  6.50e-04     1.3
    9    -509.5038840382034664    -9.91e-06  5.22e-05  1.04e-03  3.85e-04     1.0
   10    -509.5038878663429500    -3.83e-06  8.60e-06  2.36e-04  1.04e-04     1.0
   11    -509.5038880895219222    -2.23e-07  3.24e-06  8.32e-05  4.07e-05     1.0
   12    -509.5038881383702005    -4.88e-08  8.26e-07  1.92e-05  1.17e-05     0.9
   13    -509.5038881416516574    -3.28e-09  4.46e-07  9.06e-06  2.19e-06     0.8
                 **** Energy Check signals convergence ****

               *****************************************************
               *                     SUCCESS                       *
               *           SCF CONVERGED AFTER  13 CYCLES          *
               *****************************************************

             **** ENERGY FILE WAS UPDATED (1.en.tmp) ****

----------------
TOTAL SCF ENERGY
----------------

Total Energy       :       -509.50388814279535 Eh          -13864.30564 eV

Components:
Nuclear Repulsion  :        485.33643524043742 Eh           13206.67582 eV
Electronic Energy  :       -994.84032338323277 Eh          -27070.98146 eV
One Electron Energy:      -1662.51060747548649 Eh          -45239.21355 eV
Two Electron Energy:        667.67028409225372 Eh           18168.23209 eV

Virial components:
Potential Energy   :      -1018.24970852739159 Eh          -27707.98322 eV
Kinetic Energy     :        508.74582038459624 Eh           13843.67757 eV
Virial Ratio       :          2.00149007171720

---------------
SCF CONVERGENCE
---------------

  Last Energy change         ...    3.2815e-09  Tolerance :   1.0000e-08
  Last MAX-Density change    ...    9.0553e-06  Tolerance :   1.0000e-07
  Last RMS-Density change    ...    4.4639e-07  Tolerance :   5.0000e-09
  Last DIIS Error            ...    1.6585e-03  Tolerance :   5.0000e-07
  Last Orbital Gradient      ...    2.1904e-06  Tolerance :   1.0000e-05
  Last Orbital Rotation      ...    6.2814e-06  Tolerance :   1.0000e-05


----------------
ORBITAL ENERGIES
----------------

  NO   OCC          E(Eh)            E(eV) 
   0   2.0000     -20.623349      -561.1899 
   1   2.0000     -20.614725      -560.9552 
   2   2.0000     -20.564072      -559.5768 
   3   2.0000     -20.547771      -559.1333 
   4   2.0000     -15.547690      -423.0742 
   5   2.0000     -11.398421      -310.1668 
   6   2.0000     -11.383292      -309.7551 
   7   2.0000     -11.284636      -307.0706 
   8   2.0000     -11.253944      -306.2354 
   9   2.0000      -1.478719       -40.2380 
  10   2.0000      -1.466176       -39.8967 
  11   2.0000      -1.373445       -37.3733 
  12   2.0000      -1.359488       -36.9935 
  13   2.0000      -1.202885       -32.7322 
  14   2.0000      -1.052733       -28.6463 
  15   2.0000      -0.940535       -25.5933 
  16   2.0000      -0.850530       -23.1441 
  17   2.0000      -0.794453       -21.6182 
  18   2.0000      -0.722215       -19.6525 
  19   2.0000      -0.710098       -19.3227 
  20   2.0000      -0.698643       -19.0110 
  21   2.0000      -0.690974       -18.8023 
  22   2.0000      -0.665576       -18.1112 
  23   2.0000      -0.652320       -17.7505 
  24   2.0000      -0.618636       -16.8339 
  25   2.0000      -0.594905       -16.1882 
  26   2.0000      -0.585903       -15.9432 
  27   2.0000      -0.549542       -14.9538 
  28   2.0000      -0.543527       -14.7901 
  29   2.0000      -0.528041       -14.3687 
  30   2.0000      -0.491308       -13.3692 
  31   2.0000      -0.476432       -12.9644 
  32   2.0000      -0.471789       -12.8380 
  33   2.0000      -0.456851       -12.4315 
  34   2.0000      -0.391399       -10.6505 
  35   0.0000       0.178876         4.8675 
  36   0.0000       0.191046         5.1986 
  37   0.0000       0.219182         5.9643 
  38   0.0000       0.223405         6.0792 
  39   0.0000       0.249603         6.7920 
  40   0.0000       0.276472         7.5232 
  41   0.0000       0.293158         7.9772 
  42   0.0000       0.328516         8.9394 
  43   0.0000       0.335453         9.1281 
  44   0.0000       0.392299        10.6750 
  45   0.0000       0.403641        10.9836 
*Only the first 10 virtual orbitals were printed.

                    ********************************
                    * MULLIKEN POPULATION ANALYSIS *
                    ********************************

-----------------------
MULLIKEN ATOMIC CHARGES
-----------------------
   0 C :    0.814344
   1 C :   -0.307180
   2 O :   -0.598216
   3 H :    0.373424
   4 O :   -0.635714
   5 C :   -0.057279
   6 H :    0.187855
   7 H :    0.192546
   8 C :    0.833026
   9 O :   -0.595061
  10 N :   -0.692378
  11 O :   -0.641901
  12 H :    0.284149
  13 H :    0.374446
  14 H :    0.171968
  15 H :    0.295971
Sum of atomic charges:   -0.0000000

--------------------------------
MULLIKEN REDUCED ORBITAL CHARGES
--------------------------------
  0 C s       :     2.937118  s :     2.937118
      pz      :     0.844378  p :     2.099484
      px      :     0.627617
      py      :     0.627488
      dz2     :     0.038637  d :     0.149055
      dxz     :     0.024320
      dyz     :     0.026232
      dx2y2   :     0.029520
      dxy     :     0.030347

  1 C s       :     3.259233  s :     3.259233
      pz      :     0.927962  p :     3.002709
      px      :     1.020969
      py      :     1.053778
      dz2     :     0.013081  d :     0.045238
      dxz     :     0.010783
      dyz     :     0.002653
      dx2y2   :     0.009324
      dxy     :     0.009397

  2 O s       :     3.874014  s :     3.874014
      pz      :     1.528153  p :     4.691470
      px      :     1.403753
      py      :     1.759565
      dz2     :     0.003518  d :     0.032731
      dxz     :     0.010535
      dyz     :     0.002060
      dx2y2   :     0.009215
      dxy     :     0.007403

  3 H s       :     0.584906  s :     0.584906
      pz      :     0.009385  p :     0.041670
      px      :     0.008808
      py      :     0.023477

  4 O s       :     3.840636  s :     3.840636
      pz      :     1.478918  p :     4.769323
      px      :     1.578905
      py      :     1.711500
      dz2     :     0.008495  d :     0.025755
      dxz     :     0.001798
      dyz     :     0.003244
      dx2y2   :     0.004670
      dxy     :     0.007548

  5 C s       :     3.216455  s :     3.216455
      pz      :     1.068124  p :     2.770447
      px      :     0.833964
      py      :     0.868360
      dz2     :     0.018450  d :     0.070377
      dxz     :     0.012206
      dyz     :     0.004456
      dx2y2   :     0.015812
      dxy     :     0.019453

  6 H s       :     0.799230  s :     0.799230
      pz      :     0.001829  p :     0.012916
      px      :     0.002540
      py      :     0.008547

  7 H s       :     0.794434  s :     0.794434
      pz      :     0.004553  p :     0.013020
      px      :     0.006543
      py      :     0.001924

  8 C s       :     2.937084  s :     2.937084
      pz      :     0.609266  p :     2.082437
      px      :     0.665108
      py      :     0.808063
      dz2     :     0.014291  d :     0.147453
      dxz     :     0.032870
      dyz     :     0.011891
      dx2y2   :     0.037106
      dxy     :     0.051295

  9 O s       :     3.879416  s :     3.879416
      pz      :     1.612097  p :     4.683034
      px      :     1.614048
      py      :     1.456889
      dz2     :     0.005912  d :     0.032610
      dxz     :     0.006607
      dyz     :     0.007871
      dx2y2   :     0.007479
      dxy     :     0.004742

 10 N s       :     3.600319  s :     3.600319
      pz      :     1.220239  p :     4.057758
      px      :     1.137392
      py      :     1.700127
      dz2     :     0.012056  d :     0.034301
      dxz     :     0.005155
      dyz     :     0.002827
      dx2y2   :     0.003102
      dxy     :     0.011160

 11 O s       :     3.837964  s :     3.837964
      pz      :     1.765986  p :     4.778316
      px      :     1.650933
      py      :     1.361397
      dz2     :     0.003701  d :     0.025622
      dxz     :     0.005598
      dyz     :     0.001156
      dx2y2   :     0.004886
      dxy     :     0.010281

 12 H s       :     0.689700  s :     0.689700
      pz      :     0.004788  p :     0.026151
      px      :     0.011047
      py      :     0.010316

 13 H s       :     0.583910  s :     0.583910
      pz      :     0.024692  p :     0.041643
      px      :     0.009109
      py      :     0.007842

 14 H s       :     0.815756  s :     0.815756
      pz      :     0.009092  p :     0.012276
      px      :     0.001395
      py      :     0.001789

 15 H s       :     0.677641  s :     0.677641
      pz      :     0.015921  p :     0.026388
      px      :     0.003841
      py      :     0.006627



                     *******************************
                     * LOEWDIN POPULATION ANALYSIS *
                     *******************************

----------------------
LOEWDIN ATOMIC CHARGES
----------------------
   0 C :    0.253196
   1 C :   -0.127075
   2 O :   -0.318710
   3 H :    0.202483
   4 O :   -0.199456
   5 C :   -0.019615
   6 H :    0.101714
   7 H :    0.104885
   8 C :    0.234156
   9 O :   -0.311621
  10 N :   -0.281107
  11 O :   -0.202540
  12 H :    0.133706
  13 H :    0.203547
  14 H :    0.090123
  15 H :    0.136313

-------------------------------
LOEWDIN REDUCED ORBITAL CHARGES
-------------------------------
  0 C s       :     2.836060  s :     2.836060
      pz      :     0.991383  p :     2.589305
      px      :     0.785231
      py      :     0.812691
      dz2     :     0.083770  d :     0.321439
      dxz     :     0.048950
      dyz     :     0.056657
      dx2y2   :     0.059940
      dxy     :     0.072122

  1 C s       :     2.896328  s :     2.896328
      pz      :     1.020115  p :     3.145208
      px      :     1.056661
      py      :     1.068433
      dz2     :     0.026158  d :     0.085538
      dxz     :     0.020353
      dyz     :     0.005880
      dx2y2   :     0.015390
      dxy     :     0.017757

  2 O s       :     3.545852  s :     3.545852
      pz      :     1.499359  p :     4.715511
      px      :     1.481769
      py      :     1.734383
      dz2     :     0.007064  d :     0.057347
      dxz     :     0.013597
      dyz     :     0.002466
      dx2y2   :     0.017551
      dxy     :     0.016669

  3 H s       :     0.676835  s :     0.676835
      pz      :     0.028306  p :     0.120683
      px      :     0.028301
      py      :     0.064076

  4 O s       :     3.455490  s :     3.455490
      pz      :     1.446370  p :     4.695975
      px      :     1.562863
      py      :     1.686741
      dz2     :     0.014720  d :     0.047991
      dxz     :     0.007407
      dyz     :     0.005407
      dx2y2   :     0.006675
      dxy     :     0.013782

  5 C s       :     2.868810  s :     2.868810
      pz      :     1.052404  p :     3.010428
      px      :     0.964204
      py      :     0.993820
      dz2     :     0.034029  d :     0.140377
      dxz     :     0.023728
      dyz     :     0.008615
      dx2y2   :     0.032415
      dxy     :     0.041591

  6 H s       :     0.856146  s :     0.856146
      pz      :     0.006941  p :     0.042140
      px      :     0.008761
      py      :     0.026438

  7 H s       :     0.852669  s :     0.852669
      pz      :     0.014643  p :     0.042446
      px      :     0.020435
      py      :     0.007368

  8 C s       :     2.848503  s :     2.848503
      pz      :     0.693165  p :     2.597675
      px      :     0.949602
      py      :     0.954908
      dz2     :     0.029930  d :     0.319667
      dxz     :     0.069988
      dyz     :     0.023770
      dx2y2   :     0.083571
      dxy     :     0.112408

  9 O s       :     3.546317  s :     3.546317
      pz      :     1.629915  p :     4.708260
      px      :     1.593951
      py      :     1.484393
      dz2     :     0.009820  d :     0.057045
      dxz     :     0.009994
      dyz     :     0.017906
      dx2y2   :     0.009398
      dxy     :     0.009927

 10 N s       :     3.182780  s :     3.182780
      pz      :     1.211863  p :     4.037438
      px      :     1.171303
      py      :     1.654272
      dz2     :     0.020889  d :     0.060889
      dxz     :     0.011702
      dyz     :     0.003618
      dx2y2   :     0.006824
      dxy     :     0.017855

 11 O s       :     3.454760  s :     3.454760
      pz      :     1.723278  p :     4.699372
      px      :     1.637584
      py      :     1.338510
      dz2     :     0.005847  d :     0.048408
      dxz     :     0.008231
      dyz     :     0.004667
      dx2y2   :     0.011809
      dxy     :     0.017855

 12 H s       :     0.784189  s :     0.784189
      pz      :     0.014730  p :     0.082105
      px      :     0.033214
      py      :     0.034161

 13 H s       :     0.676172  s :     0.676172
      pz      :     0.068409  p :     0.120281
      px      :     0.026853
      py      :     0.025018

 14 H s       :     0.870712  s :     0.870712
      pz      :     0.026857  p :     0.039165
      px      :     0.005868
      py      :     0.006441

 15 H s       :     0.780074  s :     0.780074
      pz      :     0.048702  p :     0.083613
      px      :     0.012414
      py      :     0.022497



                      *****************************
                      * MAYER POPULATION ANALYSIS *
                      *****************************

  NA   - Mulliken gross atomic population
  ZA   - Total nuclear charge
  QA   - Mulliken gross atomic charge
  VA   - Mayer's total valence
  BVA  - Mayer's bonded valence
  FA   - Mayer's free valence

  ATOM       NA         ZA         QA         VA         BVA        FA
  0 C      5.1857     6.0000     0.8143     3.7197     3.7197     0.0000
  1 C      6.3072     6.0000    -0.3072     3.7369     3.7369    -0.0000
  2 O      8.5982     8.0000    -0.5982     1.8654     1.8654     0.0000
  3 H      0.6266     1.0000     0.3734     0.8713     0.8713    -0.0000
  4 O      8.6357     8.0000    -0.6357     1.8438     1.8438    -0.0000
  5 C      6.0573     6.0000    -0.0573     3.7663     3.7663     0.0000
  6 H      0.8121     1.0000     0.1879     0.9419     0.9419    -0.0000
  7 H      0.8075     1.0000     0.1925     0.9412     0.9412    -0.0000
  8 C      5.1670     6.0000     0.8330     3.6733     3.6733    -0.0000
  9 O      8.5951     8.0000    -0.5951     1.8707     1.8707     0.0000
 10 N      7.6924     7.0000    -0.6924     2.7483     2.7483    -0.0000
 11 O      8.6419     8.0000    -0.6419     1.8456     1.8456    -0.0000
 12 H      0.7159     1.0000     0.2841     0.9041     0.9041     0.0000
 13 H      0.6256     1.0000     0.3744     0.8699     0.8699     0.0000
 14 H      0.8280     1.0000     0.1720     0.9391     0.9391    -0.0000
 15 H      0.7040     1.0000     0.2960     0.9047     0.9047     0.0000

  Mayer bond orders larger than 0.100000
B(  0-C ,  1-C ) :   0.9560 B(  0-C ,  4-O ) :   0.9921 B(  0-C ,  9-O ) :   1.7778 
B(  1-C ,  5-C ) :   0.9534 B(  1-C ,  6-H ) :   0.9479 B(  1-C ,  7-H ) :   0.9447 
B(  2-O ,  8-C ) :   1.7924 B(  3-H , 11-O ) :   0.8403 B(  4-O , 13-H ) :   0.8386 
B(  5-C ,  8-C ) :   0.9108 B(  5-C , 10-N ) :   0.9829 B(  5-C , 14-H ) :   0.9606 
B(  8-C , 11-O ) :   0.9829 B( 10-N , 12-H ) :   0.9046 B( 10-N , 15-H ) :   0.8894 


-------
TIMINGS
-------

Total SCF time: 0 days 0 hours 0 min 15 sec 

Total time                  ....      15.174 sec
Sum of individual times     ....      14.403 sec  ( 94.9%)

SCF preparation             ....       0.016 sec  (  0.1%)
Fock matrix formation       ....      14.346 sec  ( 94.5%)
  Startup                   ....       0.001 sec  (  0.0% of F)
  Coulomb+Exchange Fock     ....      15.095 sec  (105.2% of F)
Diagonalization             ....       0.000 sec  (  0.0%)
Density matrix formation    ....       0.004 sec  (  0.0%)
Total Energy calculation    ....       0.001 sec  (  0.0%)
Population analysis         ....       0.002 sec  (  0.0%)
Orbital Transformation      ....       0.004 sec  (  0.0%)
Orbital Orthonormalization  ....       0.000 sec  (  0.0%)
DIIS solution               ....       0.020 sec  (  0.1%)
SOSCF solution              ....       0.010 sec  (  0.1%)
Finished LeanSCF after  15.2 sec

Maximum memory used throughout the entire LEANSCF-calculation: 13.3 MB

------------------------------------------------------------------------------
                                ORCA  MP2 
------------------------------------------------------------------------------

Freezing NCore=18 chemical core electrons
MP2 will be done in the AO integral direct mode
The Q1-step will be done using symmetric double matrices
Dimension of the basis                    ...  161
Memory devoted for MP2                    ... 4096 MB   
Memory needed for all in one shot         ...  417 MB
Number of MOs that can be treated together...  254      
MP2 density construction                  ... relaxed
The MP2 gradient is requested => amplitudes will be stored on disk
Total number of MOs              ...   26
Number of MOs treated per batch  ...   26 
Number of batches necessary      ...    1 
OPERATORS   0/  0 PASS   0
-----------------------------------------------
 MP2 CORRELATION ENERGY   :     -1.400806338 Eh
-----------------------------------------------


---------------------
MP2 DENSITY FORMATION
---------------------

Completing the external part of the density      ... done
Storing the unrelaxed density                    ... done

Calculating G(D)                                 ... done
Completing the Lagrangian                        ... done
Solving the Z-vector equations                   ... 
-------------------
SHARK CP-SCF DRIVER
-------------------

Dimension of the orbital basis          ...    161
Dimension of the CPSCF-problem          ...   4410
Number of operators                     ...      1
Max. number of iterations               ...    128
Convergence Tolerance                   ... 1.0e-04
Number of perturbations                 ...      1
Perturbation type                       ... REAL

----------------------------
POPLE LINEAR EQUATION SOLVER
----------------------------

  ITERATION   0:   ||err||_max =   1.5720e-01 (   1.6 sec)
  ITERATION   1:   ||err||_max =   3.9574e-02 (   1.6 sec)
  ITERATION   2:   ||err||_max =   1.6089e-02 (   1.7 sec)
  ITERATION   3:   ||err||_max =   4.4954e-03 (   1.6 sec)
  ITERATION   4:   ||err||_max =   1.4401e-03 (   1.7 sec)
  ITERATION   5:   ||err||_max =   4.2689e-04 (   1.6 sec)
  ITERATION   6:   ||err||_max =   1.4502e-04 (   1.7 sec)
  ITERATION   7:   ||err||_max =   5.6052e-05 (   1.7 sec)
                                                 ... done
Finalizing the relaxed density                   ... done
Transforming P to the AO basis                   ... done
Storing the relaxed density                      ... done

------------------------------------
ENERGY WEIGHTED DENSITY FINALIZATION
------------------------------------

Gathering the parts of the W-matrix              ...                                                      done
Forming the Z-density                            ... done
Transforming Z to the AO basis                   ... done
Calculating G(Z)                                 ... done
Finalizing the W-matrix                          ...                                                      done
Transforming W to the AO basis and storing       ... done

                *********************************************
                * UNRELAXED MP2 DENSITY POPULATION ANALYSIS *
                *********************************************

------------------------------------------------------------------------------
                           ORCA POPULATION ANALYSIS
------------------------------------------------------------------------------
Input electron density              ... 1.pmp2ur
BaseName (.gbw .S,...)              ... 1

                    ********************************
                    * MULLIKEN POPULATION ANALYSIS *
                    ********************************

-----------------------
MULLIKEN ATOMIC CHARGES
-----------------------
   0 C :    0.781492
   1 C :   -0.307942
   2 O :   -0.575125
   3 H :    0.370266
   4 O :   -0.622185
   5 C :   -0.062631
   6 H :    0.188186
   7 H :    0.192737
   8 C :    0.798861
   9 O :   -0.571677
  10 N :   -0.684772
  11 O :   -0.628132
  12 H :    0.282814
  13 H :    0.371332
  14 H :    0.172674
  15 H :    0.294104
Sum of atomic charges:   -0.0000000

--------------------------------
MULLIKEN REDUCED ORBITAL CHARGES
--------------------------------
  0 C s       :     2.938672  s :     2.938672
      pz      :     0.844713  p :     2.120437
      px      :     0.638297
      py      :     0.637427
      dz2     :     0.040889  d :     0.159399
      dxz     :     0.026504
      dyz     :     0.028554
      dx2y2   :     0.031394
      dxy     :     0.032059
  1 C s       :     3.255883  s :     3.255883
      pz      :     0.925126  p :     2.990167
      px      :     1.016169
      py      :     1.048872
      dz2     :     0.016080  d :     0.061892
      dxz     :     0.014125
      dyz     :     0.006310
      dx2y2   :     0.012812
      dxy     :     0.012565
  2 O s       :     3.869494  s :     3.869494
      pz      :     1.511935  p :     4.651165
      px      :     1.394226
      py      :     1.745004
      dz2     :     0.007754  d :     0.054467
      dxz     :     0.014756
      dyz     :     0.006484
      dx2y2   :     0.013558
      dxy     :     0.011916
  3 H s       :     0.586926  s :     0.586926
      pz      :     0.009975  p :     0.042808
      px      :     0.009384
      py      :     0.023449
  4 O s       :     3.836529  s :     3.836529
      pz      :     1.469868  p :     4.737052
      px      :     1.567841
      py      :     1.699342
      dz2     :     0.012974  d :     0.048604
      dxz     :     0.006467
      dyz     :     0.007793
      dx2y2   :     0.009430
      dxy     :     0.011940
  5 C s       :     3.213506  s :     3.213506
      pz      :     1.063880  p :     2.763322
      px      :     0.832784
      py      :     0.866657
      dz2     :     0.021365  d :     0.085803
      dxz     :     0.015248
      dyz     :     0.007988
      dx2y2   :     0.018802
      dxy     :     0.022399
  6 H s       :     0.796315  s :     0.796315
      pz      :     0.002841  p :     0.015499
      px      :     0.003490
      py      :     0.009168
  7 H s       :     0.791663  s :     0.791663
      pz      :     0.005407  p :     0.015600
      px      :     0.007282
      py      :     0.002910
  8 C s       :     2.939248  s :     2.939248
      pz      :     0.624786  p :     2.103990
      px      :     0.669337
      py      :     0.809868
      dz2     :     0.016220  d :     0.157901
      dxz     :     0.034577
      dyz     :     0.014246
      dx2y2   :     0.039348
      dxy     :     0.053510
  9 O s       :     3.874860  s :     3.874860
      pz      :     1.599192  p :     4.642279
      px      :     1.599102
      py      :     1.443985
      dz2     :     0.010573  d :     0.054538
      dxz     :     0.010981
      dyz     :     0.012061
      dx2y2   :     0.011818
      dxy     :     0.009104
 10 N s       :     3.595706  s :     3.595706
      pz      :     1.213757  p :     4.032726
      px      :     1.131418
      py      :     1.687551
      dz2     :     0.016279  d :     0.056340
      dxz     :     0.009282
      dyz     :     0.007428
      dx2y2   :     0.007691
      dxy     :     0.015659
 11 O s       :     3.833704  s :     3.833704
      pz      :     1.752913  p :     4.745779
      px      :     1.639736
      py      :     1.353129
      dz2     :     0.008384  d :     0.048649
      dxz     :     0.010131
      dyz     :     0.005894
      dx2y2   :     0.009582
      dxy     :     0.014659
 12 H s       :     0.689030  s :     0.689030
      pz      :     0.005586  p :     0.028156
      px      :     0.011543
      py      :     0.011027
 13 H s       :     0.585896  s :     0.585896
      pz      :     0.024668  p :     0.042772
      px      :     0.009637
      py      :     0.008467
 14 H s       :     0.812388  s :     0.812388
      pz      :     0.009722  p :     0.014939
      px      :     0.002393
      py      :     0.002824
 15 H s       :     0.677511  s :     0.677511
      pz      :     0.016149  p :     0.028385
      px      :     0.004715
      py      :     0.007521


                     *******************************
                     * LOEWDIN POPULATION ANALYSIS *
                     *******************************

----------------------
LOEWDIN ATOMIC CHARGES
----------------------
   0 C :    0.229317
   1 C :   -0.127561
   2 O :   -0.300141
   3 H :    0.200176
   4 O :   -0.190778
   5 C :   -0.023238
   6 H :    0.101671
   7 H :    0.104746
   8 C :    0.209551
   9 O :   -0.292751
  10 N :   -0.276862
  11 O :   -0.193909
  12 H :    0.132962
  13 H :    0.201269
  14 H :    0.090258
  15 H :    0.135289

-------------------------------
LOEWDIN REDUCED ORBITAL CHARGES
-------------------------------
  0 C s       :     2.836807  s :     2.836807
      pz      :     0.989151  p :     2.601227
      px      :     0.792506
      py      :     0.819571
      dz2     :     0.085735  d :     0.332649
      dxz     :     0.051353
      dyz     :     0.059692
      dx2y2   :     0.061469
      dxy     :     0.074400
  1 C s       :     2.896013  s :     2.896013
      pz      :     1.014724  p :     3.126716
      px      :     1.050091
      py      :     1.061900
      dz2     :     0.029809  d :     0.104832
      dxz     :     0.024327
      dyz     :     0.009815
      dx2y2   :     0.019344
      dxy     :     0.021537
  2 O s       :     3.542915  s :     3.542915
      pz      :     1.483976  p :     4.675559
      px      :     1.471356
      py      :     1.720226
      dz2     :     0.011708  d :     0.081668
      dxz     :     0.018395
      dyz     :     0.007012
      dx2y2   :     0.022755
      dxy     :     0.021798
  3 H s       :     0.676699  s :     0.676699
      pz      :     0.028937  p :     0.123125
      px      :     0.029174
      py      :     0.065015
  4 O s       :     3.453555  s :     3.453555
      pz      :     1.437466  p :     4.664907
      px      :     1.552281
      py      :     1.675160
      dz2     :     0.019693  d :     0.072316
      dxz     :     0.012184
      dyz     :     0.009985
      dx2y2   :     0.011574
      dxy     :     0.018879
  5 C s       :     2.869198  s :     2.869198
      pz      :     1.046695  p :     2.995857
      px      :     0.959958
      py      :     0.989204
      dz2     :     0.037650  d :     0.158182
      dxz     :     0.027272
      dyz     :     0.012439
      dx2y2   :     0.035794
      dxy     :     0.045026
  6 H s       :     0.851734  s :     0.851734
      pz      :     0.008226  p :     0.046595
      px      :     0.010084
      py      :     0.028285
  7 H s       :     0.848354  s :     0.848354
      pz      :     0.016135  p :     0.046901
      px      :     0.022109
      py      :     0.008657
  8 C s       :     2.849358  s :     2.849358
      pz      :     0.706421  p :     2.610092
      px      :     0.950056
      py      :     0.953614
      dz2     :     0.032578  d :     0.331000
      dxz     :     0.071581
      dyz     :     0.026427
      dx2y2   :     0.085887
      dxy     :     0.114527
  9 O s       :     3.543269  s :     3.543269
      pz      :     1.616942  p :     4.667889
      px      :     1.579536
      py      :     1.471411
      dz2     :     0.014669  d :     0.081593
      dxz     :     0.014895
      dyz     :     0.023122
      dx2y2   :     0.014177
      dxy     :     0.014730
 10 N s       :     3.180961  s :     3.180961
      pz      :     1.204930  p :     4.011005
      px      :     1.164269
      py      :     1.641805
      dz2     :     0.025772  d :     0.084895
      dxz     :     0.016143
      dyz     :     0.008314
      dx2y2   :     0.011703
      dxy     :     0.022963
 11 O s       :     3.452825  s :     3.452825
      pz      :     1.710724  p :     4.668141
      px      :     1.627023
      py      :     1.330394
      dz2     :     0.010803  d :     0.072943
      dxz     :     0.013081
      dyz     :     0.009518
      dx2y2   :     0.016654
      dxy     :     0.022887
 12 H s       :     0.781263  s :     0.781263
      pz      :     0.015741  p :     0.085775
      px      :     0.034564
      py      :     0.035470
 13 H s       :     0.676031  s :     0.676031
      pz      :     0.069436  p :     0.122699
      px      :     0.027513
      py      :     0.025750
 14 H s       :     0.865882  s :     0.865882
      pz      :     0.028837  p :     0.043860
      px      :     0.007254
      py      :     0.007768
 15 H s       :     0.777458  s :     0.777458
      pz      :     0.050357  p :     0.087253
      px      :     0.013498
      py      :     0.023397


                      *****************************
                      * MAYER POPULATION ANALYSIS *
                      *****************************

  NA   - Mulliken gross atomic population
  ZA   - Total nuclear charge
  QA   - Mulliken gross atomic charge
  VA   - Mayer's total valence
  BVA  - Mayer's bonded valence
  FA   - Mayer's free valence

  ATOM       NA         ZA         QA         VA         BVA        FA
  0 C      5.2185     6.0000     0.7815     3.7803     3.4961     0.2842
  1 C      6.3079     6.0000    -0.3079     3.8262     3.5581     0.2681
  2 O      8.5751     8.0000    -0.5751     2.1325     1.7356     0.3969
  3 H      0.6297     1.0000     0.3703     0.8781     0.8342     0.0439
  4 O      8.6222     8.0000    -0.6222     2.1005     1.7463     0.3542
  5 C      6.0626     6.0000    -0.0626     3.8423     3.5646     0.2777
  6 H      0.8118     1.0000     0.1882     0.9495     0.9032     0.0463
  7 H      0.8073     1.0000     0.1927     0.9488     0.9024     0.0464
  8 C      5.2011     6.0000     0.7989     3.7369     3.4484     0.2886
  9 O      8.5717     8.0000    -0.5717     2.1389     1.7404     0.3984
 10 N      7.6848     7.0000    -0.6848     2.9419     2.6173     0.3246
 11 O      8.6281     8.0000    -0.6281     2.1037     1.7479     0.3558
 12 H      0.7172     1.0000     0.2828     0.9110     0.8660     0.0449
 13 H      0.6287     1.0000     0.3713     0.8766     0.8329     0.0437
 14 H      0.8273     1.0000     0.1727     0.9471     0.8996     0.0475
 15 H      0.7059     1.0000     0.2941     0.9120     0.8669     0.0451

  Mayer bond orders larger than 0.100000
B(  0-C ,  1-C ) :   0.9061 B(  0-C ,  4-O ) :   0.9379 B(  0-C ,  9-O ) :   1.6618 
B(  1-C ,  5-C ) :   0.9004 B(  1-C ,  6-H ) :   0.9118 B(  1-C ,  7-H ) :   0.9085 
B(  2-O ,  8-C ) :   1.6758 B(  3-H , 11-O ) :   0.8056 B(  4-O , 13-H ) :   0.8041 
B(  5-C ,  8-C ) :   0.8609 B(  5-C , 10-N ) :   0.9269 B(  5-C , 14-H ) :   0.9234 
B(  8-C , 11-O ) :   0.9292 B( 10-N , 12-H ) :   0.8682 B( 10-N , 15-H ) :   0.8534 



                *******************************************
                * RELAXED MP2 DENSITY POPULATION ANALYSIS *
                *******************************************

------------------------------------------------------------------------------
                           ORCA POPULATION ANALYSIS
------------------------------------------------------------------------------
Input electron density              ... 1.pmp2re
BaseName (.gbw .S,...)              ... 1

                    ********************************
                    * MULLIKEN POPULATION ANALYSIS *
                    ********************************

-----------------------
MULLIKEN ATOMIC CHARGES
-----------------------
   0 C :    0.594962
   1 C :   -0.295897
   2 O :   -0.442082
   3 H :    0.344824
   4 O :   -0.523331
   5 C :   -0.072573
   6 H :    0.173546
   7 H :    0.175605
   8 C :    0.596383
   9 O :   -0.438518
  10 N :   -0.622876
  11 O :   -0.528196
  12 H :    0.265697
  13 H :    0.346011
  14 H :    0.155156
  15 H :    0.271289
Sum of atomic charges:   -0.0000000

--------------------------------
MULLIKEN REDUCED ORBITAL CHARGES
--------------------------------
  0 C s       :     2.959613  s :     2.959613
      pz      :     0.870226  p :     2.295490
      px      :     0.716220
      py      :     0.709045
      dz2     :     0.038307  d :     0.149935
      dxz     :     0.024160
      dyz     :     0.027204
      dx2y2   :     0.029551
      dxy     :     0.030712
  1 C s       :     3.232271  s :     3.232271
      pz      :     0.953532  p :     3.007908
      px      :     1.012318
      py      :     1.042058
      dz2     :     0.013709  d :     0.055718
      dxz     :     0.012905
      dyz     :     0.006352
      dx2y2   :     0.011985
      dxy     :     0.010767
  2 O s       :     3.843426  s :     3.843426
      pz      :     1.450480  p :     4.546934
      px      :     1.393871
      py      :     1.702582
      dz2     :     0.007482  d :     0.051723
      dxz     :     0.013678
      dyz     :     0.006200
      dx2y2   :     0.012617
      dxy     :     0.011746
  3 H s       :     0.614210  s :     0.614210
      pz      :     0.010173  p :     0.040966
      px      :     0.009538
      py      :     0.021255
  4 O s       :     3.818910  s :     3.818910
      pz      :     1.440006  p :     4.657353
      px      :     1.544341
      py      :     1.673006
      dz2     :     0.012143  d :     0.047069
      dxz     :     0.006757
      dyz     :     0.007665
      dx2y2   :     0.009702
      dxy     :     0.010801
  5 C s       :     3.194075  s :     3.194075
      pz      :     1.048707  p :     2.799780
      px      :     0.850786
      py      :     0.900287
      dz2     :     0.019423  d :     0.078719
      dxz     :     0.013858
      dyz     :     0.007946
      dx2y2   :     0.016963
      dxy     :     0.020529
  6 H s       :     0.811697  s :     0.811697
      pz      :     0.003075  p :     0.014757
      px      :     0.003577
      py      :     0.008105
  7 H s       :     0.809559  s :     0.809559
      pz      :     0.005104  p :     0.014836
      px      :     0.006585
      py      :     0.003147
  8 C s       :     2.965170  s :     2.965170
      pz      :     0.734487  p :     2.290240
      px      :     0.711271
      py      :     0.844482
      dz2     :     0.015258  d :     0.148207
      dxz     :     0.032059
      dyz     :     0.013320
      dx2y2   :     0.036634
      dxy     :     0.050937
  9 O s       :     3.852455  s :     3.852455
      pz      :     1.571696  p :     4.534163
      px      :     1.549765
      py      :     1.412702
      dz2     :     0.010625  d :     0.051901
      dxz     :     0.010077
      dyz     :     0.011215
      dx2y2   :     0.010994
      dxy     :     0.008990
 10 N s       :     3.575334  s :     3.575334
      pz      :     1.194254  p :     3.994170
      px      :     1.129577
      py      :     1.670340
      dz2     :     0.015384  d :     0.053372
      dxz     :     0.008233
      dyz     :     0.007374
      dx2y2   :     0.007537
      dxy     :     0.014844
 11 O s       :     3.814312  s :     3.814312
      pz      :     1.715572  p :     4.666710
      px      :     1.623859
      py      :     1.327278
      dz2     :     0.008354  d :     0.047174
      dxz     :     0.009816
      dyz     :     0.005904
      dx2y2   :     0.009829
      dxy     :     0.013270
 12 H s       :     0.707264  s :     0.707264
      pz      :     0.005787  p :     0.027039
      px      :     0.010604
      py      :     0.010648
 13 H s       :     0.613069  s :     0.613069
      pz      :     0.022355  p :     0.040921
      px      :     0.009739
      py      :     0.008826
 14 H s       :     0.830713  s :     0.830713
      pz      :     0.008526  p :     0.014131
      px      :     0.002536
      py      :     0.003069
 15 H s       :     0.701527  s :     0.701527
      pz      :     0.014226  p :     0.027184
      px      :     0.005048
      py      :     0.007910


                     *******************************
                     * LOEWDIN POPULATION ANALYSIS *
                     *******************************

----------------------
LOEWDIN ATOMIC CHARGES
----------------------
   0 C :    0.149334
   1 C :   -0.145080
   2 O :   -0.226407
   3 H :    0.190449
   4 O :   -0.155701
   5 C :   -0.041953
   6 H :    0.101667
   7 H :    0.103574
   8 C :    0.125224
   9 O :   -0.218811
  10 N :   -0.265782
  11 O :   -0.159939
  12 H :    0.130682
  13 H :    0.191572
  14 H :    0.090574
  15 H :    0.130596

-------------------------------
LOEWDIN REDUCED ORBITAL CHARGES
-------------------------------
  0 C s       :     2.839477  s :     2.839477
      pz      :     0.989088  p :     2.685667
      px      :     0.835661
      py      :     0.860918
      dz2     :     0.083855  d :     0.325523
      dxz     :     0.048954
      dyz     :     0.059409
      dx2y2   :     0.059213
      dxy     :     0.074092
  1 C s       :     2.899541  s :     2.899541
      pz      :     1.030763  p :     3.146721
      px      :     1.052378
      py      :     1.063581
      dz2     :     0.027098  d :     0.098818
      dxz     :     0.023175
      dyz     :     0.010075
      dx2y2   :     0.018734
      dxy     :     0.019736
  2 O s       :     3.545378  s :     3.545378
      pz      :     1.435915  p :     4.599651
      px      :     1.472814
      py      :     1.690921
      dz2     :     0.011665  d :     0.081378
      dxz     :     0.018677
      dyz     :     0.006974
      dx2y2   :     0.022222
      dxy     :     0.021839
  3 H s       :     0.688556  s :     0.688556
      pz      :     0.028709  p :     0.120995
      px      :     0.029491
      py      :     0.062795
  4 O s       :     3.459185  s :     3.459185
      pz      :     1.425416  p :     4.623441
      px      :     1.539453
      py      :     1.658572
      dz2     :     0.019449  d :     0.073074
      dxz     :     0.012435
      dyz     :     0.010023
      dx2y2   :     0.012622
      dxy     :     0.018546
  5 C s       :     2.873302  s :     2.873302
      pz      :     1.048622  p :     3.017018
      px      :     0.963630
      py      :     1.004766
      dz2     :     0.035950  d :     0.151634
      dxz     :     0.025935
      dyz     :     0.012588
      dx2y2   :     0.033637
      dxy     :     0.043524
  6 H s       :     0.852020  s :     0.852020
      pz      :     0.008689  p :     0.046313
      px      :     0.010217
      py      :     0.027407
  7 H s       :     0.849907  s :     0.849907
      pz      :     0.016049  p :     0.046519
      px      :     0.021606
      py      :     0.008864
  8 C s       :     2.853574  s :     2.853574
      pz      :     0.785982  p :     2.697128
      px      :     0.954839
      py      :     0.956307
      dz2     :     0.031663  d :     0.324074
      dxz     :     0.068948
      dyz     :     0.025091
      dx2y2   :     0.083980
      dxy     :     0.114391
  9 O s       :     3.545860  s :     3.545860
      pz      :     1.598282  p :     4.591587
      px      :     1.544823
      py      :     1.448482
      dz2     :     0.015164  d :     0.081364
      dxz     :     0.014607
      dyz     :     0.022376
      dx2y2   :     0.014406
      dxy     :     0.014811
 10 N s       :     3.181775  s :     3.181775
      pz      :     1.202761  p :     4.001244
      px      :     1.165836
      py      :     1.632647
      dz2     :     0.025226  d :     0.082763
      dxz     :     0.015202
      dyz     :     0.008358
      dx2y2   :     0.011480
      dxy     :     0.022498
 11 O s       :     3.458277  s :     3.458277
      pz      :     1.682592  p :     4.627817
      px      :     1.622288
      py      :     1.322937
      dz2     :     0.011369  d :     0.073845
      dxz     :     0.013376
      dyz     :     0.009785
      dx2y2   :     0.017033
      dxy     :     0.022282
 12 H s       :     0.784780  s :     0.784780
      pz      :     0.015638  p :     0.084538
      px      :     0.033585
      py      :     0.035314
 13 H s       :     0.687918  s :     0.687918
      pz      :     0.067152  p :     0.120510
      px      :     0.027390
      py      :     0.025968
 14 H s       :     0.865946  s :     0.865946
      pz      :     0.027780  p :     0.043480
      px      :     0.007485
      py      :     0.008216
 15 H s       :     0.783607  s :     0.783607
      pz      :     0.048461  p :     0.085797
      px      :     0.013731
      py      :     0.023605


                      *****************************
                      * MAYER POPULATION ANALYSIS *
                      *****************************

  NA   - Mulliken gross atomic population
  ZA   - Total nuclear charge
[...]
      dxy     :     0.051724
  9 O s       :     3.866003  s :     3.866003
      pz      :     1.556563  p :     4.533984
      px      :     1.548354
      py      :     1.429067
      dz2     :     0.010641  d :     0.050796
      dxz     :     0.010606
      dyz     :     0.011273
      dx2y2   :     0.010100
      dxy     :     0.008176
 10 N s       :     3.590999  s :     3.590999
      pz      :     1.177575  p :     3.975412
      px      :     1.112810
      py      :     1.685027
      dz2     :     0.013894  d :     0.053954
      dxz     :     0.008568
      dyz     :     0.009258
      dx2y2   :     0.007204
      dxy     :     0.015028
 11 O s       :     3.828459  s :     3.828459
      pz      :     1.766447  p :     4.655843
      px      :     1.592212
      py      :     1.297184
      dz2     :     0.008115  d :     0.047856
      dxz     :     0.009564
      dyz     :     0.005530
      dx2y2   :     0.009890
      dxy     :     0.014758
 12 H s       :     0.707475  s :     0.707475
      pz      :     0.005923  p :     0.027019
      px      :     0.010833
      py      :     0.010263
 13 H s       :     0.614480  s :     0.614480
      pz      :     0.022926  p :     0.040813
      px      :     0.008985
      py      :     0.008901
 14 H s       :     0.828105  s :     0.828105
      pz      :     0.008432  p :     0.014295
      px      :     0.002680
      py      :     0.003184
 15 H s       :     0.696822  s :     0.696822
      pz      :     0.014133  p :     0.027300
      px      :     0.005196
      py      :     0.007970


                     *******************************
                     * LOEWDIN POPULATION ANALYSIS *
                     *******************************

----------------------
LOEWDIN ATOMIC CHARGES
----------------------
   0 C :    0.171507
   1 C :   -0.146062
   2 O :   -0.230097
   3 H :    0.190088
   4 O :   -0.166282
   5 C :   -0.043669
   6 H :    0.102171
   7 H :    0.103904
   8 C :    0.146335
   9 O :   -0.233468
  10 N :   -0.264468
  11 O :   -0.175505
  12 H :    0.131050
  13 H :    0.190464
  14 H :    0.092548
  15 H :    0.131485

-------------------------------
LOEWDIN REDUCED ORBITAL CHARGES
-------------------------------
  0 C s       :     2.848591  s :     2.848591
      pz      :     1.001375  p :     2.672140
      px      :     0.833727
      py      :     0.837037
      dz2     :     0.086400  d :     0.307762
      dxz     :     0.050493
      dyz     :     0.051342
      dx2y2   :     0.052763
      dxy     :     0.066765
  1 C s       :     2.896853  s :     2.896853
      pz      :     1.030543  p :     3.149140
      px      :     1.052223
      py      :     1.066374
      dz2     :     0.028141  d :     0.100069
      dxz     :     0.022500
      dyz     :     0.010348
      dx2y2   :     0.019080
      dxy     :     0.020000
  2 O s       :     3.560128  s :     3.560128
      pz      :     1.407057  p :     4.590943
      px      :     1.473539
      py      :     1.710347
      dz2     :     0.011223  d :     0.079027
      dxz     :     0.017783
      dyz     :     0.006258
      dx2y2   :     0.022397
      dxy     :     0.021366
  3 H s       :     0.689451  s :     0.689451
      pz      :     0.027755  p :     0.120461
      px      :     0.030895
      py      :     0.061811
  4 O s       :     3.478355  s :     3.478355
      pz      :     1.414919  p :     4.615900
      px      :     1.546585
      py      :     1.654396
      dz2     :     0.021311  d :     0.072027
      dxz     :     0.010823
      dyz     :     0.008931
      dx2y2   :     0.012380
      dxy     :     0.018582
  5 C s       :     2.870869  s :     2.870869
      pz      :     1.045749  p :     3.020957
      px      :     0.970676
      py      :     1.004532
      dz2     :     0.035568  d :     0.151843
      dxz     :     0.025527
      dyz     :     0.012701
      dx2y2   :     0.034688
      dxy     :     0.043359
  6 H s       :     0.851641  s :     0.851641
      pz      :     0.009247  p :     0.046189
      px      :     0.009789
      py      :     0.027153
  7 H s       :     0.849341  s :     0.849341
      pz      :     0.015325  p :     0.046755
      px      :     0.021883
      py      :     0.009548
  8 C s       :     2.862015  s :     2.862015
      pz      :     0.773794  p :     2.685452
      px      :     0.951070
      py      :     0.960589
      dz2     :     0.024439  d :     0.306197
      dxz     :     0.059575
      dyz     :     0.019960
      dx2y2   :     0.085935
      dxy     :     0.116289
  9 O s       :     3.561621  s :     3.561621
      pz      :     1.592619  p :     4.593469
      px      :     1.547677
      py      :     1.453172
      dz2     :     0.015776  d :     0.078379
      dxz     :     0.016104
      dyz     :     0.021008
      dx2y2   :     0.012480
      dxy     :     0.013012
 10 N s       :     3.193352  s :     3.193352
      pz      :     1.187815  p :     3.988595
      px      :     1.151042
      py      :     1.649739
      dz2     :     0.023000  d :     0.082521
      dxz     :     0.015929
      dyz     :     0.010754
      dx2y2   :     0.010862
      dxy     :     0.021975
 11 O s       :     3.479947  s :     3.479947
      pz      :     1.729336  p :     4.623329
      px      :     1.598240
      py      :     1.295753
      dz2     :     0.011595  d :     0.072229
      dxz     :     0.011473
      dyz     :     0.007609
      dx2y2   :     0.016652
      dxy     :     0.024901
 12 H s       :     0.784541  s :     0.784541
      pz      :     0.016133  p :     0.084409
      px      :     0.034432
      py      :     0.033844
 13 H s       :     0.689331  s :     0.689331
      pz      :     0.069448  p :     0.120205
      px      :     0.025120
      py      :     0.025637
 14 H s       :     0.863427  s :     0.863427
      pz      :     0.027543  p :     0.044025
      px      :     0.008050
      py      :     0.008432
 15 H s       :     0.781924  s :     0.781924
      pz      :     0.048076  p :     0.086592
      px      :     0.014003
      py      :     0.024513


                      *****************************
                      * MAYER POPULATION ANALYSIS *
                      *****************************

  NA   - Mulliken gross atomic population
  ZA   - Total nuclear charge
  QA   - Mulliken gross atomic charge
  VA   - Mayer's total valence
  BVA  - Mayer's bonded valence
  FA   - Mayer's free valence

  ATOM       NA         ZA         QA         VA         BVA        FA
  0 C      5.3968     6.0000     0.6032     3.9675     3.6948     0.2727
  1 C      6.2905     6.0000    -0.2905     3.8634     3.6000     0.2634
  2 O      8.4448     8.0000    -0.4448     2.3000     1.9107     0.3892
  3 H      0.6553     1.0000     0.3447     0.9007     0.8571     0.0436
  4 O      8.5233     8.0000    -0.5233     2.2174     1.8673     0.3501
  5 C      6.0787     6.0000    -0.0787     3.9109     3.6369     0.2740
  6 H      0.8268     1.0000     0.1732     0.9545     0.9082     0.0463
  7 H      0.8235     1.0000     0.1765     0.9568     0.9105     0.0463
  8 C      5.4007     6.0000     0.5993     3.9402     3.6632     0.2770
  9 O      8.4508     8.0000    -0.4508     2.3016     1.9118     0.3898
 10 N      7.6204     7.0000    -0.6204     3.0123     2.6905     0.3218
 11 O      8.5322     8.0000    -0.5322     2.2196     1.8672     0.3524
 12 H      0.7345     1.0000     0.2655     0.9196     0.8745     0.0452
 13 H      0.6553     1.0000     0.3447     0.8999     0.8566     0.0433
 14 H      0.8424     1.0000     0.1576     0.9494     0.9017     0.0477
 15 H      0.7241     1.0000     0.2759     0.9260     0.8812     0.0448

  Mayer bond orders larger than 0.100000
B(  0-C ,  1-C ) :   0.9126 B(  0-C ,  4-O ) :   1.0099 B(  0-C ,  9-O ) :   1.7629 
B(  1-C ,  5-C ) :   0.9121 B(  1-C ,  6-H ) :   0.9043 B(  1-C ,  7-H ) :   0.9000 
B(  2-O ,  8-C ) :   1.7838 B(  3-H , 11-O ) :   0.8120 B(  4-O , 13-H ) :   0.8117 
B(  5-C ,  8-C ) :   0.8623 B(  5-C , 10-N ) :   0.9637 B(  5-C , 14-H ) :   0.9108 
B(  8-C , 11-O ) :   1.0013 B( 10-N , 12-H ) :   0.8689 B( 10-N , 15-H ) :   0.8540 



----------------------------------
MP2 DERIVATIVE INTEGRAL GENERATION
----------------------------------

Input SCF Electron Density              ... 1.scfp
Input Correlated Electron Density       ... 1.pmp2re
Input Energy Weighted Density           ... 1.wmp2.tmp
Input Wavefunction Amplitudes           ... 1.mp2tsaa.tmp

Nuclear repulsion gradient              ... done (  0.0 sec)
HCore & Overlap gradient  (SHARK)       ... done (  0.1 sec)
Analytic two-electron gradient terms    ... 
  Batch handling in the gradient evaluation:
  General contraction                   ... not used
  Memory available                      ... 4085.1 MB
  Memory per occupied orbital in Q2     ...    5.1 MB
  Memory per occupied orbital in Q3     ...    0.0 MB
  Total memory requirement per |i>      ...    5.2 MB
  Number of orbitals treated per batch  ...     26
  Number of batches to be done          ...      1
done ( 12.4 sec)

---------------------------------------
MP2 TOTAL ENERGY:     -510.909224990 Eh
---------------------------------------

The final MP2 gradient
  0:  -0.00001948  -0.00008624  -0.00003654
  1:  -0.00000271  -0.00000839   0.00003345
  2:  -0.00003043   0.00001715  -0.00002545
  3:   0.00000265   0.00000058   0.00000937
  4:   0.00001680   0.00000636  -0.00000335
  5:   0.00000818   0.00001027  -0.00004221
  6:  -0.00001063   0.00000292  -0.00000714
  7:   0.00000092   0.00001745  -0.00000374
  8:  -0.00000687  -0.00003232   0.00003994
  9:   0.00001878   0.00006397   0.00003539
 10:   0.00000044   0.00002056   0.00000017
 11:   0.00001791   0.00001784  -0.00000478
 12:   0.00000027  -0.00001320  -0.00000469
 13:  -0.00000853   0.00000216   0.00000136
 14:   0.00001440  -0.00001307   0.00001142
 15:  -0.00000171  -0.00000605  -0.00000321

-----------------------------------
NORM OF THE MP2 GRADIENT:  0.000159
-----------------------------------

Maximum memory used throughout the entire MP2-calculation: 455.4 MB

-------------------------   --------------------
FINAL SINGLE POINT ENERGY      -510.909224990243
-------------------------   --------------------

                                *** OPTIMIZATION RUN DONE ***


------------------------------------------------------------------------------
                              ORCA PROPERTY CALCULATIONS
------------------------------------------------------------------------------

GBWName                                 ... 1.gbw
Number of atoms                         ...     16
Number of basis functions               ...    161
Max core memory                         ...   4096 MB

Electric properties:
Dipole moment                           ... YES
Quadrupole moment                       ...  NO
Static polarizability (Dipole/Dipole)   ...  NO
Static polarizability (Dipole/Quad.)    ...  NO
Static polarizability (Quad./Quad.)     ...  NO
Static polarizability (Velocity)        ...  NO
Static hyperpolarizability              ...  NO

Atomic electric properties:
Dipole moment                           ...  NO
Quadrupole moment                       ...  NO
Static polarizability                   ...  NO

Choice of electric origin               ... Center of mass
Position of electric origin             ...    -6.722338     4.376438     0.923151

General magnetic properties:
Magnetizability                         ...  NO

EPR properties:
g-Tensor (aka g-matrix)                 ...  NO
Zero-Field splitting spin-orbit         ...  NO
Zero-field splitting spin-spin          ...  NO
Hyperfine couplings                     ...  NO (   0 nuclei)
Quadrupole couplings                    ...  NO (   0 nuclei)
Contact density                         ...  NO (   0 nuclei)

NMR properties:
Chemical shifts                         ...  NO (   0 nuclei)
Spin-rotation constants                 ...  NO (   0 nuclei)
Spin-spin couplings                     ...  NO (   0 nuclei,    0 pairs)

Choice of magnetic origin               ... GIAO
Position of magnetic origin             ...     0.000000     0.000000     0.000000

Properties with geometric perturbations:
SCF Hessian                             ...  NO
IR spectrum                             ...  NO
VCD spectrum                            ...  NO
X-ray spectroscopy properties:
SCF XES/XAS/RIXS spectra                ...  NO

SCF SOC stabilization energy            ...  NO
Diagonal Born-Oppenheimer correction    ...  NO

-------------
DIPOLE MOMENT
-------------

Method             : SCF
Type of density    : Electron Density
Multiplicity       :   1
Irrep              :   0
Energy             :  -509.5005444467184930 Eh
Basis              : AO
                                X                 Y                 Z
Electronic contribution:     -2.512496143       2.279021929       1.823648923
Nuclear contribution   :      2.755121731      -2.360350865      -2.017915853
                        -----------------------------------------
Total Dipole Moment    :      0.242625589      -0.081328936      -0.194266930
                        -----------------------------------------
Magnitude (a.u.)       :      0.321280581
Magnitude (Debye)      :      0.816630339



--------------------
Rotational spectrum 
--------------------
 
Rotational constants in cm-1:             0.087943             0.039956             0.035555 
Rotational constants in MHz :          2636.462755          1197.840532          1065.899407 

Dipole components along the rotational axes: 
x,y,z [a.u.] :    -0.152416     0.244576     0.142032 
x,y,z [Debye]:    -0.387411     0.621662     0.361017 

 

-------------
DIPOLE MOMENT
-------------

Method             : MP2
Type of density    : Electron Density
Multiplicity       :   1
Level              : Unrelaxed density
Irrep              :   0
Energy             :     0.0000000000000000 Eh
Basis              : AO
                                X                 Y                 Z
Electronic contribution:     -2.531079656       2.311234416       1.855920909
Nuclear contribution   :      2.755121731      -2.360350865      -2.017915853
                        -----------------------------------------
Total Dipole Moment    :      0.224042075      -0.049116449      -0.161994944
                        -----------------------------------------
Magnitude (a.u.)       :      0.280801779
Magnitude (Debye)      :      0.713741399



--------------------
Rotational spectrum 
--------------------
 
Rotational constants in cm-1:             0.087943             0.039956             0.035555 
Rotational constants in MHz :          2636.462755          1197.840532          1065.899407 

Dipole components along the rotational axes: 
x,y,z [a.u.] :    -0.152552     0.210160     0.106819 
x,y,z [Debye]:    -0.387757     0.534184     0.271511 

 

-------------
DIPOLE MOMENT
-------------

Method             : MP2
Type of density    : Electron Density
Multiplicity       :   1
Level              : Relaxed density
Irrep              :   0
Energy             :     0.0000000000000000 Eh
Basis              : AO
                                X                 Y                 Z
Electronic contribution:     -2.618144973       2.446484877       1.983459339
Nuclear contribution   :      2.755121731      -2.360350865      -2.017915853
                        -----------------------------------------
Total Dipole Moment    :      0.136976759       0.086134012      -0.034456514
                        -----------------------------------------
Magnitude (a.u.)       :      0.165435642
Magnitude (Debye)      :      0.420503985



--------------------
Rotational spectrum 
--------------------
 
Rotational constants in cm-1:             0.087943             0.039956             0.035555 
Rotational constants in MHz :          2636.462755          1197.840532          1065.899407 

Dipole components along the rotational axes: 
x,y,z [a.u.] :    -0.151516     0.058479    -0.031496 
x,y,z [Debye]:    -0.385124     0.148641    -0.080055 

 

Dipole moment calculation done in   0.0 sec 

Maximum memory used throughout the entire PROP-calculation: 8.2 MB

--------------------------------
SUGGESTED CITATIONS FOR THIS RUN
--------------------------------

Below you find a list of papers that are relevant to this ORCA run
We neither can nor want to force you to cite these papers, but we appreciate if you do
You receive ORCA, which is the product of decades of hard work by many enthusiastic individuals, for free
The only thing we kindly ask in return is that you cite our papers,
We deeply appreciate it, if you show your appreciation for ORCA by not just citing the generic ORCA reference.

Please note that relegating all ORCA citations to the supporting information does *not* help us.
SI sections are not indexed - citations you put there will not count into any citation statistics
But we need these citations in order to attract the funding resources that allow us to do what we are doing

Therefore, if you are a happy ORCA user, please consider citing a few of the papers listed below in the main body of your paper

In addition to the list printed below, the program has created the file 1.bibtex that contains the list in bibtex format
You can import this file easily into all common literature databanks and citation aid programs


List of essential papers. We consider these as the minimum necessary citations

  1. Neese, F.
     Software update: the ORCA program system, version 6.0
     WIRES Comput. Molec. Sci. 2025 15(1), e70019
     doi.org/10.1002/wcms.7019

List of papers to cite with high priority. The work reported in these papers was absolutely
necessary for this run to complete.
Our perspective: the developers of density functionals and basis sets usually get cited in chemistry papers
Good! But without the algorithms to do something with them, the functionals or basis sets would not do anything.
Hence, in our opinion, the algorithm design and method developments papers are equally worthy of getting cited

  1. Neese, F.
     The SHARK Integral Generation and Digestion System
     J. Comp. Chem. 2022 44(3), 381
     doi.org/10.1002/jcc.26942

List of suggested additional citations. These are papers that are important in the 'surrounding' of 
of this run, or papers that preceded the highly important papers. If you like your results we are grateful for a citation.

  1. Neese, F.
     The ORCA program system
     WIRES Comput. Molec. Sci. 2012 2(1), 73-78
     doi.org/10.1002/wcms.81
  2. Neese, F.
     Software update: the ORCA program system, version 4.0
     WIRES Comput. Molec. Sci. 2018 8(1), 1-6
     doi.org/10.1002/wcms.1327
  3. Neese, F.; Wennmohs, F.; Becker, U.; Riplinger, C.
     The ORCA quantum chemistry program package
     J. Chem. Phys. 2020 152(22), 224108
     doi.org/10.1063/5.0004608
  4. Neese, F.
     Software update: The ORCA program system—Version 5.0
     WIRES Comput. Molec. Sci. 2022 12(1), e1606
     doi.org/10.1002/wcms.1606

List of optional additional citations

  1. Neese, F.
     Approximate second-order SCF convergence for spin unrestricted wavefunctions
     Chem. Phys. Lett. 2000 325(1-3), 93-98
     doi.org/10.1016/s0009-2614(00)00662-x

Timings for individual modules:

Sum of individual times          ...      488.257 sec (=   8.138 min)
Startup calculation              ...        3.524 sec (=   0.059 min)   0.7 %
SCF iterations                   ...      107.846 sec (=   1.797 min)  22.1 %
Property calculations            ...        0.037 sec (=   0.001 min)   0.0 %
MP2 module                       ...      376.839 sec (=   6.281 min)  77.2 %
Geometry relaxation              ...        0.011 sec (=   0.000 min)   0.0 %
                             ****ORCA TERMINATED NORMALLY****
TOTAL RUN TIME: 0 days 0 hours 8 minutes 8 seconds 453 msec
