
                                 *****************
                                 * O   R   C   A *
                                 *****************

                                            #,                                       
                                            ###                                      
                                            ####                                     
                                            #####                                    
                                            ######                                   
                                           ########,                                 
                                     ,,################,,,,,                         
                               ,,#################################,,                 
                          ,,##########################################,,             
                       ,#########################################, ''#####,          
                    ,#############################################,,   '####,        
                  ,##################################################,,,,####,       
                ,###########''''           ''''###############################       
              ,#####''   ,,,,##########,,,,          '''####'''          '####       
            ,##' ,,,,###########################,,,                        '##       
           ' ,,###''''                  '''############,,,                           
         ,,##''                                '''############,,,,        ,,,,,,###''
      ,#''                                            '''#######################'''  
     '                                                          ''''####''''         
             ,#######,   #######,   ,#######,      ##                                
            ,#'     '#,  ##    ##  ,#'     '#,    #''#        ,####,    ,#,          
            ##       ##  ##   ,#'  ##            #'  '#       #'       ,# #          
            ##       ##  #######   ##           ,######,      #####,      #          
            '#,     ,#'  ##    ##  '#,     ,#' ,#      #,     #,   #      #          
             '#######'   ##     ##  '#######'  #'      '#     '####' #    #          



                #########################################################
                #                        -***-                          #
                #          Department of theory and spectroscopy        #
                #                                                       #
                #                      Frank Neese                      #
                #                                                       #
                #     Directorship, Architecture, Infrastructure        #
                #                    SHARK, DRIVERS                     #
                #        Core code/Algorithms in most modules           #
                #                                                       #
                #        Max Planck Institute fuer Kohlenforschung      #
                #                Kaiser Wilhelm Platz 1                 #
                #                 D-45470 Muelheim/Ruhr                 #
                #                      Germany                          #
                #                                                       #
                #                  All rights reserved                  #
                #                        -***-                          #
                #########################################################


                         Program Version 6.1.0  -  RELEASE   -
                                (GIT: $679e74b$)
                          ($2025-06-10 18:02:51 +0200$)


 With contributions from (in alphabetic order):
[Max-Planck-Institut fuer Kohlenforschung]                               
  Daniel Aravena         : Magnetic Suceptibility                        
  Michael Atanasov       : Ab Initio Ligand Field Theory (pilot matlab implementation)
  Alexander A. Auer      : GIAO ZORA, VPT2 properties, NMR spectrum      
  Ute Becker             : All parallelization in ORCA, NUMFREQ, NUMCALC 
  Giovanni Bistoni       : ED, misc. LED, open-shell LED, HFLD           
  Dmytro Bykov           : pre 5.0 version of the SCF Hessian            
  Marcos Casanova-Páez   : Triplet and SCS-CIS(D). UHF-(DLPNO)-IP/EA/STEOM-CCSD. UHF-CVS-IP/STEOM-CCSD   
  Vijay G. Chilkuri      : MRCI spin determinant printing, contributions to CSF-ICE 
  Pauline Colinet        : FMM embedding                                 
  Dipayan Datta          : RHF DLPNO-CCSD density                        
  Achintya Kumar Dutta   : EOM-CC, STEOM-CC                              
  Nicolas Foglia         : Exact transition moments, OPA infrastructure, MCD improvements    
  Dmitry Ganyushin       : Spin-Orbit,Spin-Spin,Magnetic field MRCI      
  Miquel Garcia-Rates    : C-PCM and meta-GGA Hessian, CCSD/C-PCM, Gaussian charge scheme 
  Tiago L. C. Gouveia    : GS-ROHF, GS-ROCIS                             
  Yang Guo               : DLPNO-NEVPT2, F12-NEVPT2, CIM, IAO-localization        
  Andreas Hansen         : Spin unrestricted coupled pair/coupled cluster methods 
  Ingolf Harden          : AUTO-CI MPn and infrastructure                
  Benjamin Helmich-Paris : MC-RPA, TRAH-(SCF,CASSCF), AVAS, COSX integrals, SCF dyn. polar., MC-PDFT, srDFT 
  Lee Huntington         : MR-EOM, pCC                                   
  Robert Izsak           : Overlap fitted RIJCOSX, COSX-SCS-MP3, EOM     
  Riya Kayal             : Wick's Theorem for AUTO-CI, AUTO-CI UHF-CCSDT 
  Emily Kempfer          : AUTO-CI RHF CISDT and CCSDT, approximate NEVPT4
  Christian Kollmar      : KDIIS, OOCD, Brueckner-CCSD(T), CCSD density, CASPT2, CASPT2-K, improved NEVPT2 
  Axel Koslowski         : Symmetry handling                             
  Simone Kossmann        : meta-GGA functionals, TD-DFT gradient, OOMP2, (MP2 Hessian; deprecated post 5.0) 
  Lucas Lang             : DCDCAS, Hyperfine gauge corrections, ICE-SOC+SSC
  Marvin Lechner         : AUTO-CI (C++ implementation), FIC-MRCC        
  Spencer Leger          : CASSCF response                               
  Dagmar Lenk            : GEPOL surface, SMD, ORCA-2-JSON               
  Dimitrios Liakos       : Extrapolation schemes; Compound Job, Property file
  Dimitrios Manganas     : Further ROCIS development; embedding schemes. LFT, Crystal Embedding 
  Dimitrios Pantazis     : SARC Basis sets                               
  Anastasios Papadopoulos: AUTO-CI, single reference methods and gradients 
  Taras Petrenko         : pre 6.0 DFT Hessian and TD-DFT gradient,  ECA, NRVS 
  Petra Pikulova         : Analytic Raman intensities                    
  Peter Pinski           : DLPNO-MP2, DLPNO-MP2 Gradient                 
  Shashank Vittal Rao    : ES-AILFT, MagRelax                            
  Christoph Reimann      : Effective Core Potentials                     
  Marius Retegan         : Local ZFS, SOC                                
  Christoph Riplinger    : Optimizer, TS searches, QM/MM, DLPNO-CCSD(T), (RO)-DLPNO pert. Triples 
  Michael Roemelt        : Original ROCIS implementation, recursive CI coupling coefficients
  Masaaki Saitow         : Open-shell DLPNO-CCSD energy and density      
  Barbara Sandhoefer     : DKH picture change effects                    
  Yorick L. A. Schmerwitz: GMF and freeze-and-release deltaSCF, NEB S-IDPP initial path                    
  Kantharuban Sivalingam : CASSCF convergence/infrastructure, NEVPT2, NEVPT3, NEVPT4(SD), FIC-MRCI and CEPA variants
  Bernardo de Souza      : ESD, SOC TD-DFT                               
  Georgi L. Stoychev     : AutoAux, RI-MP2 NMR, DLPNO-MP2 response, X2C  
  Van Anh Tran           : RI-MP2 g-tensors                              
  Willem Van den Heuvel  : Paramagnetic NMR                              
  Zikuan Wang            : NOTCH, Electric field optimization            
  Frank Wennmohs         : Technical directorship and infrastructure     
  Hang Xu                : AUTO-CI-Response properties                   
                                                                         
[FACCTs GmbH]                                                            
  Markus Bursch, Nicolas Foglia, Miquel Garcia-Rates, Ingolf Harden, Hagen Neugebauer, Anastasios Papadopoulos, 
  Christoph Riplinger, Bernardo de Souza, Georgi L. Stoychev                                                    
                                                                 
  APM, various basis sets, CI-OPT, improved COSX, DLPNO-Multilevel,           
  DOCKER, DRACO, updates on ESD, Fragmentator, GOAT, IRC, LR-CPCM, L-BFGS, MBIS, meta-GGA TD-DFT gradient, ML-optimized integration grids, 
  MM, NACMEs, nearIR, NEB, NEB-TS, NL-DFT gradient (VV10), 2- and 3-layer-ONIOM, interface openCOSMO-RS, QMMM,   
  Crystal-QMMM, RESP, rigid body optimization, SF, symmetry and pop. for TD-DFT, various functionals, SOLVATOR                                   
                                                                         
[Other institutions]                                                     
  V. Asgeirsson          : NEB                                           
  Christoph Bannwarth    : sTDA-DFT, sTD-DFT, PBEh-3c, B97-3c, D3        
  Giovanni Bistoni       : ETS/NOCV, ADLD/ADEX, COVALED                  
  Martin Brehm           : Molecular dynamics                            
  Ronald Cardenas        : ETS/NOCV                                      
  Martina Colucci        : COVALED                                       
  Sebastian Ehlert       : rSCAN, r2SCAN, r2SCAN-3c, D4, dhf basis sets  
  Marvin Friede          : D4 for Fr, Ra, Ac-Lr                          
  Lars Goerigk           : TD-DFT with DH, B97 family of functionals     
  Stefan Grimme          : VdW corrections, initial TS optimization, DFT functionals, gCP, sTDA/sTD-DF 
  Waldemar Hujo          : DFT-NL                                        
  H. Jonsson             : NEB                                           
  Holger Kruse           : gCP                                           
  Marcel Mueller         : wB97X-3c, vDZP basis set                      
  Hagen Neugebauer       : wr2SCAN, Native XTB                           
  Gianluca Regni         : ADLD/ADEX                                     
  Tobias Risthaus        : pre 6.0 range-separated hybrid DFT and stability analysis
  Lukas Wittmann         : regularized MP2, r2SCAN double-hybrids, wr2SCAN        
                                                                         
We gratefully acknowledge several colleagues who have allowed us to      
interface, adapt or use parts of their codes:                            
  Ed Valeev, F. Pavosevic, A. Kumar             : LibInt (2-el integral package), F12 methods 
  Garnet Chan, S. Sharma, J. Yang, R. Olivares  : DMRG                   
  Ulf Ekstrom                                   : XCFun DFT Library      
  Mihaly Kallay                                 : mrcc  (arbitrary order and MRCC methods)
  Frank Weinhold                                : gennbo (NPA and NBO analysis)           
  Simon Mueller                                 : openCOSMO-RS                            
  Christopher J. Cramer and Donald G. Truhlar   : smd solvation model                     
  S Lehtola, MJT Oliveira, MAL Marques          : LibXC Library                           
  Liviu Ungur et al                             : ANISO software                          


 Your calculation uses the libint2 library for the computation of 2-el integrals
 For citations please refer to: http://libint.valeyev.net

 Your ORCA version has been built with support for libXC version: 7.0.0
 For citations please refer to: https://libxc.gitlab.io

 This ORCA versions uses:
   CBLAS   interface :  Fast vector & matrix operations
   LAPACKE interface :  Fast linear algebra routines
   SCALAPACK package :  Parallel linear algebra routines
   Shared memory     :  Shared parallel matrices
   BLAS/LAPACK       :  OpenBLAS 0.3.29  USE64BITINT DYNAMIC_ARCH NO_AFFINITY Haswell SINGLE_THREADED
        Core in use  :  Haswell
   Copyright (c) 2011-2014, The OpenBLAS Project


  ***********************************
  * Starting time: Thu Aug 14 00:49:27 2025
  * Host name:     CHEMLAB02
  * Process ID:    1542524
  * Working dir.:  /home/vivek/mm-project/vivek/MP2/c/5
  ***********************************



***************************************
The coordinates will be read from file: /home/vivek/mm-project/vivek/xtb-goat/c/C_CONF/5.xyz
***************************************


================================================================================

----- Orbital basis set information -----
Your calculation utilizes the basis: 6-31G**
   H-He, Li-Ne : W. J. Hehre, R. Ditchfield and J.A. Pople, J. Chem. Phys. 56, 2257 (1972).
                 Note: He and Ne are unpublished basis sets taken from the Gaussian program.
                 Note: Li and B from J. D. Dill and J. A. Pople, J. Chem. Phys. 62, 2921 (1975).
   Na - Ar     : M. M. Francl, W. J. Pietro, W. J. Hehre, J. S. Binkley, M. S. Gordon, 
                 D. J. DeFrees and J. A. Pople, J. Chem. Phys. 77, 3654 (1982).
   K - Zn      : V. A. Rassolov, J. A. Pople, M. A. Ratner, and T. L. Windus, J. Chem. Phys. 109, 1223 (1998).

================================================================================
                                        WARNINGS
                       Please study these warnings very carefully!
================================================================================


WARNING: No MP2 level density has been requested!
         To calculate MP2 level properties use
         %mp2 Density relaxed end
         or
         %mp2 Density unrelaxed end

WARNING: Post HF methods need fully converged wavefunctions
  ===> : Setting SCFConvForced true
         You can overwrite this default with %scf ConvForced false 


================================================================================
                                       INPUT FILE
================================================================================
NAME = 5.inp
|  1> ! MP2 6-31G** 
|  2> 
|  3> * xyzfile 0 1 /home/vivek/mm-project/vivek/xtb-goat/c/C_CONF/5.xyz
|  4> 
|  5>                          ****END OF INPUT****
================================================================================

                       ****************************
                       * Single Point Calculation *
                       ****************************

---------------------------------
CARTESIAN COORDINATES (ANGSTROEM)
---------------------------------
  H     -1.634079    2.553527    1.462008
  C     -3.199085    1.808380    0.181055
  H     -3.311330    1.184400   -0.705179
  H     -3.424938   -0.178415    1.430244
  O      0.381629    1.019424    0.692360
  C     -1.726510    2.082174    0.474874
  H     -0.244619    3.258385   -0.294313
  S     -4.047307    0.987122    1.567591
  N     -1.206393    3.019342   -0.507190
  H     -1.235498    2.613583   -1.437036
  C     -0.922010    0.781701    0.515808
  H     -3.713061    2.755794    0.029824
  O     -1.366327   -0.327259    0.376426
  H      0.882793    0.188379    0.708001

----------------------------
CARTESIAN COORDINATES (A.U.)
----------------------------
  NO LB      ZA    FRAG     MASS         X           Y           Z
   0 H     1.0000    0     1.008   -3.087962    4.825466    2.762795
   1 C     6.0000    0    12.011   -6.045394    3.417343    0.342144
   2 H     1.0000    0     1.008   -6.257507    2.238191   -1.332595
   3 H     1.0000    0     1.008   -6.472195   -0.337155    2.702770
   4 O     8.0000    0    15.999    0.721174    1.926431    1.308372
   5 C     6.0000    0    12.011   -3.262631    3.934738    0.897383
   6 H     1.0000    0     1.008   -0.462262    6.157455   -0.556171
   7 S    16.0000    0    32.060   -7.648301    1.865390    2.962318
   8 N     7.0000    0    14.007   -2.279752    5.705730   -0.958449
   9 H     1.0000    0     1.008   -2.334753    4.938957   -2.715604
  10 C     6.0000    0    12.011   -1.742346    1.477200    0.974735
  11 H     1.0000    0     1.008   -7.016668    5.207695    0.056359
  12 O     8.0000    0    15.999   -2.581985   -0.618430    0.711342
  13 H     1.0000    0     1.008    1.668236    0.355984    1.337927

--------------------------------
INTERNAL COORDINATES (ANGSTROEM)
--------------------------------
 H      0   0   0     0.000000000000     0.00000000     0.00000000
 C      1   0   0     2.155302460118     0.00000000     0.00000000
 H      2   1   0     1.089660816409   139.12558949     0.00000000
 H      2   1   3     2.357718852014    92.63664280    87.65784463
 O      1   2   3     2.647434195766   100.35440975   346.41816628
 C      1   2   3     1.097793203659    41.92696973    14.51689083
 H      6   1   2     2.042332655838    91.73565398   141.77438299
 S      4   2   1     1.328413486195    50.23080833    90.36054231
 N      7   6   1     1.013640590891    41.82535844   233.91878178
 H      9   7   6     1.014938919712   108.29402722   238.80955130
 C      5   1   2     1.336845831817    53.05615497   340.26352270
 H      2   1   6     1.088409291779    97.15371838   242.93147154
 O     11   5   1     1.202762072454   122.64947969   204.78407761
 H      5   1   2     0.970590146271   152.20358861   278.84158455

---------------------------
INTERNAL COORDINATES (A.U.)
---------------------------
 H      0   0   0     0.000000000000     0.00000000     0.00000000
 C      1   0   0     4.072931385391     0.00000000     0.00000000
 H      2   1   0     2.059160521878   139.12558949     0.00000000
 H      2   1   3     4.455442931090    92.63664280    87.65784463
 O      1   2   3     5.002925587576   100.35440975   346.41816628
 C      1   2   3     2.074528506596    41.92696973    14.51689083
 H      6   1   2     3.859449393897    91.73565398   141.77438299
 S      4   2   1     2.510337681517    50.23080833    90.36054231
 N      7   6   1     1.915503115011    41.82535844   233.91878178
 H      9   7   6     1.917956600913   108.29402722   238.80955130
 C      5   1   2     2.526272505409    53.05615497   340.26352270
 H      2   1   6     2.056795483077    97.15371838   242.93147154
 O     11   5   1     2.272890921206   122.64947969   204.78407761
 H      5   1   2     1.834149564734   152.20358861   278.84158455

---------------------
BASIS SET INFORMATION
---------------------
There are 5 groups of distinct atoms

 Group   1 Type H   : 4s1p contracted to 2s1p pattern {31/1}
 Group   2 Type C   : 10s4p1d contracted to 3s2p1d pattern {631/31/1}
 Group   3 Type O   : 10s4p1d contracted to 3s2p1d pattern {631/31/1}
 Group   4 Type S   : 16s10p1d contracted to 4s3p1d pattern {6631/631/1}
 Group   5 Type N   : 10s4p1d contracted to 3s2p1d pattern {631/31/1}

Atom   0H    basis set group =>   1
Atom   1C    basis set group =>   2
Atom   2H    basis set group =>   1
Atom   3H    basis set group =>   1
Atom   4O    basis set group =>   3
Atom   5C    basis set group =>   2
Atom   6H    basis set group =>   1
Atom   7S    basis set group =>   4
Atom   8N    basis set group =>   5
Atom   9H    basis set group =>   1
Atom  10C    basis set group =>   2
Atom  11H    basis set group =>   1
Atom  12O    basis set group =>   3
Atom  13H    basis set group =>   1
------------------------------------------------------------------------------
                             ORCA STARTUP CALCULATIONS
------------------------------------------------------------------------------
------------------------------------------------------------------------------
                   ___                                                        
                  /   \      - P O W E R E D   B Y -                         
                 /     \                                                     
                 |  |  |   _    _      __       _____    __    __             
                 |  |  |  | |  | |    /  \     |  _  \  |  |  /  |          
                  \  \/   | |  | |   /    \    | | | |  |  | /  /          
                 / \  \   | |__| |  /  /\  \   | |_| |  |  |/  /          
                |  |  |   |  __  | /  /__\  \  |    /   |      \           
                |  |  |   | |  | | |   __   |  |    \   |  |\   \          
                \     /   | |  | | |  |  |  |  | |\  \  |  | \   \       
                 \___/    |_|  |_| |__|  |__|  |_| \__\ |__|  \__/        
                                                                              
                      - O R C A' S   B I G   F R I E N D -                    
                                      &                                       
                       - I N T E G R A L  F E E D E R -                       
                                                                              
 v1 FN, 2020, v2 2021, v3 2022-2024                                           
------------------------------------------------------------------------------


----------------------
SHARK INTEGRAL PACKAGE
----------------------

Number of atoms                             ...     14
Number of basis functions                   ...    137
Number of shells                            ...     65
Maximum angular momentum                    ...      2
Integral batch strategy                     ... SHARK/LIBINT Hybrid
RI-J (if used) integral strategy            ... SPLIT-RIJ (Revised 2003 algorithm where possible)
Printlevel                                  ...      1
Contraction scheme used                     ... SEGMENTED contraction
Prescreening option                         ... SCHWARTZ
   Thresh                                   ... 1.000e-10
   Tcut                                     ... 1.000e-11
   Tpresel                                  ... 1.000e-11 
Coulomb Range Separation                    ... NOT USED
Exchange Range Separation                   ... NOT USED
Multipole approximations                    ... NOT USED
Finite Nucleus Model                        ... NOT USED
CABS basis                                  ... NOT available
Auxiliary Coulomb fitting basis             ... NOT available
Auxiliary J/K fitting basis                 ... NOT available
Auxiliary Correlation fitting basis         ... NOT available
Auxiliary 'external' fitting basis          ... NOT available

Checking pre-screening integrals            ... done (  0.0 sec) Dimension = 65
   => SHARK Basis and OBASIS are compatible. Storing Pre-screening
Shell pair information
Shell pair cut-off parameter TPreSel        ...   1.0e-11
Total number of shell pairs                 ...      2145
Shell pairs after pre-screening             ...      2007
Total number of primitive shell pairs       ...     11826
Primitive shell pairs kept                  ...      7414
          la=0 lb=0:    618 shell pairs
          la=1 lb=0:    737 shell pairs
          la=1 lb=1:    238 shell pairs
          la=2 lb=0:    239 shell pairs
          la=2 lb=1:    147 shell pairs
          la=2 lb=2:     28 shell pairs

Checking whether 4 symmetric matrices of dimension 137 fit in memory
:Max Core in MB      =   4096.00
 MB in use           =      4.08
 MB left             =   4091.92
 MB needed           =      0.29
 Data fit in memory  = YES
Calculating Nuclear repulsion               ... done (  0.0 sec) ENN=    381.783373434086 Eh

Diagonalization of the overlap matrix:
Smallest eigenvalue                        ... 3.356e-03
Time for diagonalization                   ...    0.001 sec
Threshold for overlap eigenvalues          ... 1.000e-07
Number of eigenvalues below threshold      ... 0
Time for construction of square roots      ...    0.000 sec
Total time needed                          ...    0.001 sec

-------------------
DFT GRID GENERATION
-------------------

General Integration Accuracy     IntAcc      ... 4.388
Radial Grid Type                 RadialGrid  ... OptM3 with GC (2021)
Angular Grid (max. ang.)         AngularGrid ... 4 (Lebedev-302)
Angular grid pruning method      GridPruning ... 4 (adaptive)
Weight generation scheme         WeightScheme... mBecke (2022)
Basis function cutoff            BFCut       ... 1.0000e-10
Integration weight cutoff        WCut        ... 1.0000e-14
Partially contracted basis set               ... off
Rotationally invariant grid construction     ... off
Angular grids for H and He will be reduced by one unit

Total number of grid points                  ...    66137
Total number of batches                      ...     1040
Average number of points per batch           ...       63
Average number of grid points per atom       ...     4724
Grids setup in   0.2 sec
Initializing property integral containers    ... done (  0.0 sec)

SHARK setup successfully completed in   0.3 seconds

Maximum memory used throughout the entire STARTUP-calculation: 25.7 MB
-------------------------------------------------------------------------------
                                 ORCA GUESS
                   Start orbitals & Density for SCF / CASSCF
-------------------------------------------------------------------------------

------------
SCF SETTINGS
------------
Hamiltonian:
 Ab initio Hamiltonian  Method          .... Hartree-Fock(GTOs)


General Settings:
 Integral files         IntName         .... 5
 Hartree-Fock type      HFTyp           .... RHF
 Total Charge           Charge          ....    0
 Multiplicity           Mult            ....    1
 Number of Electrons    NEL             ....   64
 Basis Dimension        Dim             ....  137
 Nuclear Repulsion      ENuc            ....    381.7833734341 Eh

Convergence Acceleration:
 AO-DIIS                CNVDIIS         .... on
   Start iteration      DIISMaxIt       ....    12
   Startup error        DIISStart       ....  0.200000
   # of expansion vecs  DIISMaxEq       ....     5
   Bias factor          DIISBfac        ....   1.050
   Max. coefficient     DIISMaxC        ....  10.000
 MO-DIIS                CNVKDIIS        .... off
 Trust-Rad. Augm. Hess. CNVTRAH         .... auto
   Auto Start mean grad. ratio tolernc. ....  1.125000
   Auto Start start iteration           ....    50
   Auto Start num. interpolation iter.  ....    10
   Max. Number of Micro iterations      ....    24
   Max. Number of Macro iterations      .... Maxiter - #DIIS iter
   Number of Davidson start vectors     ....     2
   Converg. threshold    (grad. norm)   ....   5.000e-05
   Grad. Scal. Fac. for Micro threshold ....   0.100
   Minimum threshold for Micro iter.    ....   1.000e-02
   NR start threshold (gradient norm)   ....   1.000e-04
   Initial trust radius                 ....   0.400
   Minimum AH scaling param. (alpha)    ....   1.000
   Maximum AH scaling param. (alpha)    .... 1000.000
   Quad. conv. algorithm                .... NR
   White noise on init. David. guess    .... on
   Maximum white noise                  ....   0.010
   Pseudo random numbers                .... off
   Inactive MOs                         .... canonical
   Orbital update algorithm             .... Taylor
   Preconditioner                       .... Diag
   Full preconditioner red. dimension   ....   250
 SOSCF                 CNVSOSCF           .... on
   Start iteration     SOSCFMaxIt         ....   150
   Startup grad/error  SOSCFStart         ....  0.003300
   Hessian update      SOSCFHessUp        .... L-BFGS
   Autom. constraints  SOSCFAutoConstrain .... off
 Level Shifting         CNVShift        .... on
   Level shift para.    LevelShift      ....    0.2500
   Turn off err/grad.   ShiftErr        ....    0.0010
 Zerner damping         CNVZerner       .... off
 Static damping         CNVDamp         .... on
   Fraction old density DampFac         ....    0.7000
   Max. Damping (<1)    DampMax         ....    0.9800
   Min. Damping (>=0)   DampMin         ....    0.0000
   Turn off err/grad.   DampErr         ....    0.1000

SCF Procedure:
 Maximum # iterations   MaxIter         ....   125
 SCF integral mode      SCFMode         .... Direct
   Integral package                     .... SHARK and LIBINT hybrid scheme
 Reset frequency        DirectResetFreq ....    20
 Integral Threshold     Thresh          ....  1.000e-10 Eh
 Primitive CutOff       TCut            ....  1.000e-11 Eh

Convergence Tolerance:
 Convergence Check Mode ConvCheckMode   .... Total+1el-Energy
 Convergence forced     ConvForced      .... 1
 Energy Change          TolE            ....  1.000e-06 Eh
 1-El. energy change                    ....  1.000e-03 Eh
 Orbital Gradient       TolG            ....  5.000e-05
 Orbital Rotation angle TolX            ....  5.000e-05
 DIIS Error             TolErr          ....  1.000e-06

------------------------------
INITIAL GUESS: MODEL POTENTIAL
------------------------------
Loading Hartree-Fock densities                     ... done
Calculating cut-offs                               ... done
Initializing the effective Hamiltonian             ... done
Setting up the integral package (SHARK)            ... done
Starting the Coulomb interaction                   ... done (   0.0 sec)
Making the grid                                    ... done (   0.1 sec)
Mapping shells                                     ... done
Starting the XC term evaluation                    ... done (   0.0 sec)
Transforming the Hamiltonian                       ... done (   0.0 sec)
Diagonalizing the Hamiltonian                      ... done (   0.0 sec)
Back transforming the eigenvectors                 ... done (   0.0 sec)
Now organizing SCF variables                       ... done
                      ------------------
                      INITIAL GUESS DONE (   0.1 sec)
                      ------------------
             **** ENERGY FILE WAS UPDATED (5.en.tmp) ****
Finished Guess after   0.1 sec
Maximum memory used throughout the entire GUESS-calculation: 8.3 MB

-------------------------------------------------------------------------------------------
                                      ORCA LEAN-SCF
                              memory conserving SCF solver
-------------------------------------------------------------------------------------------

----------------------------------------D-I-I-S--------------------------------------------
Iteration    Energy (Eh)           Delta-E    RMSDP     MaxDP     DIISErr   Damp  Time(sec)
-------------------------------------------------------------------------------------------
               ***  Starting incremental Fock matrix formation  ***
    1    -719.1084780501990963     0.00e+00  2.85e-03  6.28e-02  2.54e-01  0.700   0.8
    2    -719.2097877262509655    -1.01e-01  2.14e-03  4.53e-02  1.56e-01  0.700   0.7
                               ***Turning on AO-DIIS***
    3    -719.2684683884202741    -5.87e-02  1.19e-03  2.93e-02  8.98e-02  0.700   0.7
    4    -719.3055025377281027    -3.70e-02  2.74e-03  6.97e-02  6.40e-02  0.000   0.7
    5    -719.3884880163851676    -8.30e-02  3.27e-04  7.24e-03  7.05e-03  0.000   0.7
    6    -719.3888842618040371    -3.96e-04  1.61e-04  2.97e-03  3.70e-03  0.000   0.7
                              *** Initializing SOSCF ***
---------------------------------------S-O-S-C-F--------------------------------------
Iteration    Energy (Eh)           Delta-E    RMSDP     MaxDP     MaxGrad    Time(sec)
--------------------------------------------------------------------------------------
    7    -719.3889719866377845    -8.77e-05  9.36e-05  2.59e-03  2.38e-03     0.7
               *** Restarting incremental Fock matrix formation ***
    8    -719.3889995858734210    -2.76e-05  4.69e-05  9.04e-04  6.44e-04     0.8
    9    -719.3890059994465673    -6.41e-06  5.06e-05  1.51e-03  4.08e-04     0.7
   10    -719.3890083890249798    -2.39e-06  9.13e-06  2.50e-04  1.28e-04     0.7
   11    -719.3890085789070099    -1.90e-07  3.27e-06  7.83e-05  4.20e-05     0.6
                 **** Energy Check signals convergence ****

               *****************************************************
               *                     SUCCESS                       *
               *           SCF CONVERGED AFTER  11 CYCLES          *
               *****************************************************

             **** ENERGY FILE WAS UPDATED (5.en.tmp) ****

----------------
TOTAL SCF ENERGY
----------------

Total Energy       :       -719.38900861310992 Eh          -19575.57013 eV

Components:
Nuclear Repulsion  :        381.78337343408600 Eh           10388.85375 eV
Electronic Energy  :      -1101.17238204719592 Eh          -29964.42388 eV
One Electron Energy:      -1748.30908905895717 Eh          -47573.90892 eV
Two Electron Energy:        647.13670701176125 Eh           17609.48505 eV

Virial components:
Potential Energy   :      -1438.48419994816095 Eh          -39143.14508 eV
Kinetic Energy     :        719.09519133505114 Eh           19567.57495 eV
Virial Ratio       :          2.00040859302301

---------------
SCF CONVERGENCE
---------------

  Last Energy change         ...    1.8988e-07  Tolerance :   1.0000e-06
  Last MAX-Density change    ...    7.8308e-05  Tolerance :   1.0000e-05
  Last RMS-Density change    ...    3.2688e-06  Tolerance :   1.0000e-06
  Last DIIS Error            ...    2.3769e-03  Tolerance :   1.0000e-06
  Last Orbital Gradient      ...    4.2028e-05  Tolerance :   5.0000e-05
  Last Orbital Rotation      ...    3.6360e-05  Tolerance :   5.0000e-05


----------------
ORBITAL ENERGIES
----------------

  NO   OCC          E(Eh)            E(eV) 
   0   2.0000     -91.924620     -2501.3961 
   1   2.0000     -20.630406      -561.3819 
   2   2.0000     -20.569171      -559.7156 
   3   2.0000     -15.565156      -423.5494 
   4   2.0000     -11.397432      -310.1399 
   5   2.0000     -11.288526      -307.1764 
   6   2.0000     -11.264222      -306.5151 
   7   2.0000      -8.941449      -243.3092 
   8   2.0000      -6.623688      -180.2397 
   9   2.0000      -6.622344      -180.2031 
  10   2.0000      -6.620277      -180.1469 
  11   2.0000      -1.482910       -40.3520 
  12   2.0000      -1.377146       -37.4740 
  13   2.0000      -1.214336       -33.0438 
  14   2.0000      -1.060241       -28.8506 
  15   2.0000      -0.958451       -26.0808 
  16   2.0000      -0.878861       -23.9150 
  17   2.0000      -0.803464       -21.8634 
  18   2.0000      -0.724920       -19.7261 
  19   2.0000      -0.713454       -19.4141 
  20   2.0000      -0.677263       -18.4293 
  21   2.0000      -0.649942       -17.6858 
  22   2.0000      -0.616724       -16.7819 
  23   2.0000      -0.605351       -16.4724 
  24   2.0000      -0.569080       -15.4855 
  25   2.0000      -0.530570       -14.4376 
  26   2.0000      -0.523837       -14.2543 
  27   2.0000      -0.493209       -13.4209 
  28   2.0000      -0.485178       -13.2024 
  29   2.0000      -0.448621       -12.2076 
  30   2.0000      -0.405118       -11.0238 
  31   2.0000      -0.351868        -9.5748 
  32   0.0000       0.157895         4.2965 
  33   0.0000       0.194491         5.2924 
  34   0.0000       0.210177         5.7192 
  35   0.0000       0.235928         6.4199 
  36   0.0000       0.254182         6.9166 
  37   0.0000       0.274525         7.4702 
  38   0.0000       0.282056         7.6751 
  39   0.0000       0.301433         8.2024 
  40   0.0000       0.326286         8.8787 
  41   0.0000       0.374607        10.1936 
  42   0.0000       0.432789        11.7768 
*Only the first 10 virtual orbitals were printed.

                    ********************************
                    * MULLIKEN POPULATION ANALYSIS *
                    ********************************

-----------------------
MULLIKEN ATOMIC CHARGES
-----------------------
   0 H :    0.179345
   1 C :   -0.371185
   2 H :    0.164123
   3 H :    0.093800
   4 O :   -0.641599
   5 C :   -0.030699
   6 H :    0.292278
   7 S :   -0.042398
   8 N :   -0.689210
   9 H :    0.270573
  10 C :    0.804574
  11 H :    0.180493
  12 O :   -0.586068
  13 H :    0.375974
Sum of atomic charges:    0.0000000

--------------------------------
MULLIKEN REDUCED ORBITAL CHARGES
--------------------------------
  0 H s       :     0.808398  s :     0.808398
      pz      :     0.007955  p :     0.012257
      px      :     0.001422
      py      :     0.002880

  1 C s       :     3.304623  s :     3.304623
      pz      :     1.000050  p :     3.018885
      px      :     0.917453
      py      :     1.101382
      dz2     :     0.010975  d :     0.047678
      dxz     :     0.006701
      dyz     :     0.010363
      dx2y2   :     0.010210
      dxy     :     0.009429

  2 H s       :     0.822989  s :     0.822989
      pz      :     0.006704  p :     0.012888
      px      :     0.001703
      py      :     0.004481

  3 H s       :     0.887748  s :     0.887748
      pz      :     0.002924  p :     0.018452
      px      :     0.005946
      py      :     0.009581

  4 O s       :     3.837075  s :     3.837075
      pz      :     1.842974  p :     4.779202
      px      :     1.335947
      py      :     1.600281
      dz2     :     0.003542  d :     0.025323
      dxz     :     0.003582
      dyz     :     0.001601
      dx2y2   :     0.009003
      dxy     :     0.007594

  5 C s       :     3.215048  s :     3.215048
      pz      :     1.010714  p :     2.744892
      px      :     0.888157
      py      :     0.846022
      dz2     :     0.015641  d :     0.070758
      dxz     :     0.009062
      dyz     :     0.014796
      dx2y2   :     0.014782
      dxy     :     0.016477

  6 H s       :     0.681432  s :     0.681432
      pz      :     0.004102  p :     0.026290
      px      :     0.014907
      py      :     0.007281

  7 S s       :     5.841718  s :     5.841718
      pz      :     3.414530  p :    10.131640
      px      :     3.642343
      py      :     3.074766
      dz2     :     0.015019  d :     0.069040
      dxz     :     0.012666
      dyz     :     0.010982
      dx2y2   :     0.008789
      dxy     :     0.021584

  8 N s       :     3.609085  s :     3.609085
      pz      :     1.129792  p :     4.045778
      px      :     1.370818
      py      :     1.545167
      dz2     :     0.007915  d :     0.034348
      dxz     :     0.002294
      dyz     :     0.012293
      dx2y2   :     0.009879
      dxy     :     0.001968

  9 H s       :     0.703272  s :     0.703272
      pz      :     0.014201  p :     0.026155
      px      :     0.004975
      py      :     0.006979

 10 C s       :     2.943056  s :     2.943056
      pz      :     0.620002  p :     2.106172
      px      :     0.657190
      py      :     0.828980
      dz2     :     0.009331  d :     0.146197
      dxz     :     0.018737
      dyz     :     0.021627
      dx2y2   :     0.051998
      dxy     :     0.044504

 11 H s       :     0.806592  s :     0.806592
      pz      :     0.001886  p :     0.012915
      px      :     0.003183
      py      :     0.007846

 12 O s       :     3.877212  s :     3.877212
      pz      :     1.475984  p :     4.676261
      px      :     1.769901
      py      :     1.430375
      dz2     :     0.002920  d :     0.032595
      dxz     :     0.001848
      dyz     :     0.011541
      dx2y2   :     0.007914
      dxy     :     0.008372

 13 H s       :     0.582396  s :     0.582396
      pz      :     0.008786  p :     0.041630
      px      :     0.011731
      py      :     0.021113



                     *******************************
                     * LOEWDIN POPULATION ANALYSIS *
                     *******************************

----------------------
LOEWDIN ATOMIC CHARGES
----------------------
   0 H :    0.092766
   1 C :   -0.207106
   2 H :    0.081165
   3 H :    0.046229
   4 O :   -0.208762
   5 C :   -0.031448
   6 H :    0.136565
   7 S :    0.012731
   8 N :   -0.275617
   9 H :    0.128992
  10 C :    0.232743
  11 H :    0.093839
  12 O :   -0.305631
  13 H :    0.203533

-------------------------------
LOEWDIN REDUCED ORBITAL CHARGES
-------------------------------
  0 H s       :     0.867250  s :     0.867250
      pz      :     0.023885  p :     0.039983
      px      :     0.006110
      py      :     0.009988

  1 C s       :     2.937747  s :     2.937747
      pz      :     1.058326  p :     3.180731
      px      :     1.025685
      py      :     1.096720
      dz2     :     0.020026  d :     0.088629
      dxz     :     0.014113
      dyz     :     0.017684
      dx2y2   :     0.019691
      dxy     :     0.017115

  2 H s       :     0.876152  s :     0.876152
      pz      :     0.021890  p :     0.042682
      px      :     0.006612
      py      :     0.014180

  3 H s       :     0.903052  s :     0.903052
      pz      :     0.008015  p :     0.050718
      px      :     0.016030
      py      :     0.026673

  4 O s       :     3.455652  s :     3.455652
      pz      :     1.792398  p :     4.705173
      px      :     1.343938
      py      :     1.568837
      dz2     :     0.006605  d :     0.047936
      dxz     :     0.006071
      dyz     :     0.001200
      dx2y2   :     0.017351
      dxy     :     0.016709

  5 C s       :     2.875880  s :     2.875880
      pz      :     1.029364  p :     3.014383
      px      :     1.008975
      py      :     0.976044
      dz2     :     0.029776  d :     0.141185
      dxz     :     0.017373
      dyz     :     0.028533
      dx2y2   :     0.031750
      dxy     :     0.033752

  6 H s       :     0.780622  s :     0.780622
      pz      :     0.012555  p :     0.082813
      px      :     0.046738
      py      :     0.023521

  7 S s       :     5.621106  s :     5.621106
      pz      :     3.488573  p :    10.289930
      px      :     3.669061
      py      :     3.132296
      dz2     :     0.016456  d :     0.076233
      dxz     :     0.014591
      dyz     :     0.013053
      dx2y2   :     0.009605
      dxy     :     0.022528

  8 N s       :     3.187683  s :     3.187683
      pz      :     1.149915  p :     4.026781
      px      :     1.341958
      py      :     1.534907
      dz2     :     0.016672  d :     0.061153
      dxz     :     0.005620
      dyz     :     0.019826
      dx2y2   :     0.014176
      dxy     :     0.004859

  9 H s       :     0.789255  s :     0.789255
      pz      :     0.041851  p :     0.081753
      px      :     0.015748
      py      :     0.024154

 10 C s       :     2.848930  s :     2.848930
      pz      :     0.662408  p :     2.602012
      px      :     0.886308
      py      :     1.053296
      dz2     :     0.020488  d :     0.316315
      dxz     :     0.039714
      dyz     :     0.040550
      dx2y2   :     0.114557
      dxy     :     0.101007

 11 H s       :     0.863846  s :     0.863846
      pz      :     0.007238  p :     0.042315
      px      :     0.011001
      py      :     0.024076

 12 O s       :     3.547512  s :     3.547512
      pz      :     1.446772  p :     4.700772
      px      :     1.742356
      py      :     1.511645
      dz2     :     0.006811  d :     0.057347
      dxz     :     0.002440
      dyz     :     0.012890
      dx2y2   :     0.018352
      dxy     :     0.016853

 13 H s       :     0.675895  s :     0.675895
      pz      :     0.027231  p :     0.120572
      px      :     0.032673
      py      :     0.060669



                      *****************************
                      * MAYER POPULATION ANALYSIS *
                      *****************************

  NA   - Mulliken gross atomic population
  ZA   - Total nuclear charge
  QA   - Mulliken gross atomic charge
  VA   - Mayer's total valence
  BVA  - Mayer's bonded valence
  FA   - Mayer's free valence

  ATOM       NA         ZA         QA         VA         BVA        FA
  0 H      0.8207     1.0000     0.1793     0.9355     0.9355     0.0000
  1 C      6.3712     6.0000    -0.3712     3.7805     3.7805     0.0000
  2 H      0.8359     1.0000     0.1641     0.9375     0.9375    -0.0000
  3 H      0.9062     1.0000     0.0938     0.9689     0.9689     0.0000
  4 O      8.6416     8.0000    -0.6416     1.8345     1.8345    -0.0000
  5 C      6.0307     6.0000    -0.0307     3.7213     3.7213     0.0000
  6 H      0.7077     1.0000     0.2923     0.8992     0.8992     0.0000
  7 S     16.0424    16.0000    -0.0424     1.9001     1.9001     0.0000
  8 N      7.6892     7.0000    -0.6892     2.7485     2.7485     0.0000
  9 H      0.7294     1.0000     0.2706     0.9048     0.9048    -0.0000
 10 C      5.1954     6.0000     0.8046     3.6711     3.6711     0.0000
 11 H      0.8195     1.0000     0.1805     0.9371     0.9371    -0.0000
 12 O      8.5861     8.0000    -0.5861     1.8815     1.8815     0.0000
 13 H      0.6240     1.0000     0.3760     0.8692     0.8692     0.0000

  Mayer bond orders larger than 0.100000
B(  0-H ,  5-C ) :   0.9489 B(  1-C ,  2-H ) :   0.9529 B(  1-C ,  5-C ) :   0.9487 
B(  1-C ,  7-S ) :   0.9692 B(  1-C , 11-H ) :   0.9576 B(  3-H ,  7-S ) :   0.9497 
B(  4-O , 10-C ) :   0.9826 B(  4-O , 13-H ) :   0.8376 B(  5-C ,  8-N ) :   0.9627 
B(  5-C , 10-C ) :   0.9161 B(  6-H ,  8-N ) :   0.8977 B(  8-N ,  9-H ) :   0.9061 
B( 10-C , 12-O ) :   1.7998 

-------
TIMINGS
-------

Total SCF time: 0 days 0 hours 0 min 8 sec 

Total time                  ....       8.395 sec
Sum of individual times     ....       7.837 sec  ( 93.3%)

SCF preparation             ....       0.014 sec  (  0.2%)
Fock matrix formation       ....       7.796 sec  ( 92.9%)
  Startup                   ....       0.000 sec  (  0.0% of F)
  Coulomb+Exchange Fock     ....       8.347 sec  (107.1% of F)
Diagonalization             ....       0.000 sec  (  0.0%)
Density matrix formation    ....       0.002 sec  (  0.0%)
Total Energy calculation    ....       0.000 sec  (  0.0%)
Population analysis         ....       0.002 sec  (  0.0%)
Orbital Transformation      ....       0.003 sec  (  0.0%)
Orbital Orthonormalization  ....       0.000 sec  (  0.0%)
DIIS solution               ....       0.014 sec  (  0.2%)
SOSCF solution              ....       0.005 sec  (  0.1%)
Finished LeanSCF after   8.4 sec

Maximum memory used throughout the entire LEANSCF-calculation: 11.8 MB

------------------------------------------------------------------------------
                                ORCA  MP2 
------------------------------------------------------------------------------

Freezing NCore=22 chemical core electrons

----------
MP2 ENERGY (disk based algorithm)
----------

Dimension of the basis                      ...  137
Memory devoted to MP2                       ... 4096 MB   
Data format for buffers                     ... DOUBLE
Compression type for matrix containers      ... UNCOMPRESSED

-------------------------
SHARK HALF TRANSFORMATION (Exchange order)
-------------------------

Number of basis functions                   ...    137
Number of operators                         ...      1
   Operator  0:   11-  31 (p-index in (p*|q*))
   Operator  0:   11-  31 (q-index in (p*|q*)
Integral generator used                     ... SHARK
Contraction scheme used                     ... SEGMENTED CONTRACTION
MaxCore in resort                           ...   4096 MB

Half transformed integrals for op=   0      ... 5.SHARK_MNPQ0.tmp
Resorted half transformed integrals         ... 5.KAO_aa.tmp

Half trafo (segmented) done. Total time =  4.2 sec. integrals=  4.0 sec trafo=  0.2 sec

----------------------
SHARK INTEGRAL SORTING (Exchange)
----------------------

Input container                             ... 5.SHARK_MNPQ0.tmp
Output container                            ... 5.KAO_aa.tmp
Range of AO-indices                         ...    0 -  136
Range of bra indices i                      ...   11 -   31
Range of ket indices j                      ...   11 -   31
Symmetric i,j range                         ... YES
Number of (i,j) pairs generated             ...  231
Max Core memory in MB                       ...   4096

Available core memory in MB                 ...   4089.71
MB needed for one item                      ...      0.14
Fixed MB needed                             ...      0.00
Number of items                             ...       231
Number of batches                           ...         1
Items treated per batch                     ...       231
Batch   0                                   ...      0-   230 (   231)
   => Closing output file and leaving
done (  0.0 sec)

SHARK half integral transformation done. Total time =  4.3 sec.


Finished integral transformation - now doing MP2 part

OPERATOR COMBINATION   0   0: ij=( 11.. 31, 11.. 31)
  Internal MO  13
  Internal MO  16
  Internal MO  19
  Internal MO  22
  Internal MO  25
  Internal MO  28
  Internal MO  31
-----------------------------------------------
 MP2 CORRELATION ENERGY   :     -1.054887732 Eh
-----------------------------------------------


-------
TIMINGS
-------
Total time                :    4.328 sec
Integral trafo            :    4.295 sec ( 99.2%)
K(i,j)                    :    0.026 sec (  0.6%)
T(i,j)                    :    0.001 sec (  0.0%)

---------------------------------------
MP2 TOTAL ENERGY:     -720.443896345 Eh
---------------------------------------

Maximum memory used throughout the entire MP2-calculation: 64.4 MB

-------------------------   --------------------
FINAL SINGLE POINT ENERGY      -720.443896344887
-------------------------   --------------------


------------------------------------------------------------------------------
                              ORCA PROPERTY CALCULATIONS
------------------------------------------------------------------------------

GBWName                                 ... 5.gbw
Number of atoms                         ...     14
Number of basis functions               ...    137
Max core memory                         ...   4096 MB

Electric properties:
Dipole moment                           ... YES
Quadrupole moment                       ...  NO
Static polarizability (Dipole/Dipole)   ...  NO
Static polarizability (Dipole/Quad.)    ...  NO
Static polarizability (Quad./Quad.)     ...  NO
Static polarizability (Velocity)        ...  NO
Static hyperpolarizability              ...  NO

Atomic electric properties:
Dipole moment                           ...  NO
Quadrupole moment                       ...  NO
Static polarizability                   ...  NO

Choice of electric origin               ... Center of mass
Position of electric origin             ...    -3.828095     2.395905     1.178082

General magnetic properties:
Magnetizability                         ...  NO

EPR properties:
g-Tensor (aka g-matrix)                 ...  NO
Zero-Field splitting spin-orbit         ...  NO
Zero-field splitting spin-spin          ...  NO
Hyperfine couplings                     ...  NO (   0 nuclei)
Quadrupole couplings                    ...  NO (   0 nuclei)
Contact density                         ...  NO (   0 nuclei)

NMR properties:
Chemical shifts                         ...  NO (   0 nuclei)
Spin-rotation constants                 ...  NO (   0 nuclei)
Spin-spin couplings                     ...  NO (   0 nuclei,    0 pairs)

Choice of magnetic origin               ... GIAO
Position of magnetic origin             ...     0.000000     0.000000     0.000000

Properties with geometric perturbations:
SCF Hessian                             ...  NO
IR spectrum                             ...  NO
VCD spectrum                            ...  NO
X-ray spectroscopy properties:
SCF XES/XAS/RIXS spectra                ...  NO

SCF SOC stabilization energy            ...  NO
Diagonal Born-Oppenheimer correction    ...  NO

-------------
DIPOLE MOMENT
-------------

Method             : SCF
Type of density    : Electron Density
Multiplicity       :   1
Irrep              :   0
Energy             :  -719.3890086131099224 Eh
Basis              : AO
                                X                 Y                 Z
Electronic contribution:     -0.249535295      -3.175647781       2.525820173
Nuclear contribution   :      1.515139253       3.274729065      -3.010539509
                        -----------------------------------------
Total Dipole Moment    :      1.265603958       0.099081284      -0.484719336
                        -----------------------------------------
Magnitude (a.u.)       :      1.358868395
Magnitude (Debye)      :      3.453968968



--------------------
Rotational spectrum 
--------------------
 
Rotational constants in cm-1:             0.110460             0.050215             0.038201 
Rotational constants in MHz :          3311.522053          1505.419138          1145.246871 

Dipole components along the rotational axes: 
x,y,z [a.u.] :     1.354252    -0.050212    -0.100022 
x,y,z [Debye]:     3.442234    -0.127629    -0.254237 

 

Dipole moment calculation done in   0.0 sec 

Maximum memory used throughout the entire PROP-calculation: 6.4 MB

--------------------------------
SUGGESTED CITATIONS FOR THIS RUN
--------------------------------

Below you find a list of papers that are relevant to this ORCA run
We neither can nor want to force you to cite these papers, but we appreciate if you do
You receive ORCA, which is the product of decades of hard work by many enthusiastic individuals, for free
The only thing we kindly ask in return is that you cite our papers,
We deeply appreciate it, if you show your appreciation for ORCA by not just citing the generic ORCA reference.

Please note that relegating all ORCA citations to the supporting information does *not* help us.
SI sections are not indexed - citations you put there will not count into any citation statistics
But we need these citations in order to attract the funding resources that allow us to do what we are doing

Therefore, if you are a happy ORCA user, please consider citing a few of the papers listed below in the main body of your paper

In addition to the list printed below, the program has created the file 5.bibtex that contains the list in bibtex format
You can import this file easily into all common literature databanks and citation aid programs


List of essential papers. We consider these as the minimum necessary citations

  1. Neese, F.
     Software update: the ORCA program system, version 6.0
     WIRES Comput. Molec. Sci. 2025 15(1), e70019
     doi.org/10.1002/wcms.7019

List of papers to cite with high priority. The work reported in these papers was absolutely
necessary for this run to complete.
Our perspective: the developers of density functionals and basis sets usually get cited in chemistry papers
Good! But without the algorithms to do something with them, the functionals or basis sets would not do anything.
Hence, in our opinion, the algorithm design and method developments papers are equally worthy of getting cited

  1. Neese, F.
     The SHARK Integral Generation and Digestion System
     J. Comp. Chem. 2022 44(3), 381
     doi.org/10.1002/jcc.26942

List of suggested additional citations. These are papers that are important in the 'surrounding' of 
of this run, or papers that preceded the highly important papers. If you like your results we are grateful for a citation.

  1. Neese, F.
     The ORCA program system
     WIRES Comput. Molec. Sci. 2012 2(1), 73-78
     doi.org/10.1002/wcms.81
  2. Neese, F.
     Software update: the ORCA program system, version 4.0
     WIRES Comput. Molec. Sci. 2018 8(1), 1-6
     doi.org/10.1002/wcms.1327
  3. Neese, F.; Wennmohs, F.; Becker, U.; Riplinger, C.
     The ORCA quantum chemistry program package
     J. Chem. Phys. 2020 152(22), 224108
     doi.org/10.1063/5.0004608
  4. Neese, F.
     Software update: The ORCA program system—Version 5.0
     WIRES Comput. Molec. Sci. 2022 12(1), e1606
     doi.org/10.1002/wcms.1606

List of optional additional citations

  1. Neese, F.
     Approximate second-order SCF convergence for spin unrestricted wavefunctions
     Chem. Phys. Lett. 2000 325(1-3), 93-98
     doi.org/10.1016/s0009-2614(00)00662-x

Timings for individual modules:

Sum of individual times          ...       13.205 sec (=   0.220 min)
Startup calculation              ...        0.283 sec (=   0.005 min)   2.1 %
SCF iterations                   ...        8.548 sec (=   0.142 min)  64.7 %
Property calculations            ...        0.022 sec (=   0.000 min)   0.2 %
MP2 module                       ...        4.351 sec (=   0.073 min)  32.9 %
                             ****ORCA TERMINATED NORMALLY****
TOTAL RUN TIME: 0 days 0 hours 0 minutes 13 seconds 238 msec
