
                                 *****************
                                 * O   R   C   A *
                                 *****************

                                            #,                                       
                                            ###                                      
                                            ####                                     
                                            #####                                    
                                            ######                                   
                                           ########,                                 
                                     ,,################,,,,,                         
                               ,,#################################,,                 
                          ,,##########################################,,             
                       ,#########################################, ''#####,          
                    ,#############################################,,   '####,        
                  ,##################################################,,,,####,       
                ,###########''''           ''''###############################       
              ,#####''   ,,,,##########,,,,          '''####'''          '####       
            ,##' ,,,,###########################,,,                        '##       
           ' ,,###''''                  '''############,,,                           
         ,,##''                                '''############,,,,        ,,,,,,###''
      ,#''                                            '''#######################'''  
     '                                                          ''''####''''         
             ,#######,   #######,   ,#######,      ##                                
            ,#'     '#,  ##    ##  ,#'     '#,    #''#        ,####,    ,#,          
            ##       ##  ##   ,#'  ##            #'  '#       #'       ,# #          
            ##       ##  #######   ##           ,######,      #####,      #          
            '#,     ,#'  ##    ##  '#,     ,#' ,#      #,     #,   #      #          
             '#######'   ##     ##  '#######'  #'      '#     '####' #    #          



                #########################################################
                #                        -***-                          #
                #          Department of theory and spectroscopy        #
                #                                                       #
                #                      Frank Neese                      #
                #                                                       #
                #     Directorship, Architecture, Infrastructure        #
                #                    SHARK, DRIVERS                     #
                #        Core code/Algorithms in most modules           #
                #                                                       #
                #        Max Planck Institute fuer Kohlenforschung      #
                #                Kaiser Wilhelm Platz 1                 #
                #                 D-45470 Muelheim/Ruhr                 #
                #                      Germany                          #
                #                                                       #
                #                  All rights reserved                  #
                #                        -***-                          #
                #########################################################


                         Program Version 6.1.0  -  RELEASE   -
                                (GIT: $679e74b$)
                          ($2025-06-10 18:02:51 +0200$)


 With contributions from (in alphabetic order):
[Max-Planck-Institut fuer Kohlenforschung]                               
  Daniel Aravena         : Magnetic Suceptibility                        
  Michael Atanasov       : Ab Initio Ligand Field Theory (pilot matlab implementation)
  Alexander A. Auer      : GIAO ZORA, VPT2 properties, NMR spectrum      
  Ute Becker             : All parallelization in ORCA, NUMFREQ, NUMCALC 
  Giovanni Bistoni       : ED, misc. LED, open-shell LED, HFLD           
  Dmytro Bykov           : pre 5.0 version of the SCF Hessian            
  Marcos Casanova-Páez   : Triplet and SCS-CIS(D). UHF-(DLPNO)-IP/EA/STEOM-CCSD. UHF-CVS-IP/STEOM-CCSD   
  Vijay G. Chilkuri      : MRCI spin determinant printing, contributions to CSF-ICE 
  Pauline Colinet        : FMM embedding                                 
  Dipayan Datta          : RHF DLPNO-CCSD density                        
  Achintya Kumar Dutta   : EOM-CC, STEOM-CC                              
  Nicolas Foglia         : Exact transition moments, OPA infrastructure, MCD improvements    
  Dmitry Ganyushin       : Spin-Orbit,Spin-Spin,Magnetic field MRCI      
  Miquel Garcia-Rates    : C-PCM and meta-GGA Hessian, CCSD/C-PCM, Gaussian charge scheme 
  Tiago L. C. Gouveia    : GS-ROHF, GS-ROCIS                             
  Yang Guo               : DLPNO-NEVPT2, F12-NEVPT2, CIM, IAO-localization        
  Andreas Hansen         : Spin unrestricted coupled pair/coupled cluster methods 
  Ingolf Harden          : AUTO-CI MPn and infrastructure                
  Benjamin Helmich-Paris : MC-RPA, TRAH-(SCF,CASSCF), AVAS, COSX integrals, SCF dyn. polar., MC-PDFT, srDFT 
  Lee Huntington         : MR-EOM, pCC                                   
  Robert Izsak           : Overlap fitted RIJCOSX, COSX-SCS-MP3, EOM     
  Riya Kayal             : Wick's Theorem for AUTO-CI, AUTO-CI UHF-CCSDT 
  Emily Kempfer          : AUTO-CI RHF CISDT and CCSDT, approximate NEVPT4
  Christian Kollmar      : KDIIS, OOCD, Brueckner-CCSD(T), CCSD density, CASPT2, CASPT2-K, improved NEVPT2 
  Axel Koslowski         : Symmetry handling                             
  Simone Kossmann        : meta-GGA functionals, TD-DFT gradient, OOMP2, (MP2 Hessian; deprecated post 5.0) 
  Lucas Lang             : DCDCAS, Hyperfine gauge corrections, ICE-SOC+SSC
  Marvin Lechner         : AUTO-CI (C++ implementation), FIC-MRCC        
  Spencer Leger          : CASSCF response                               
  Dagmar Lenk            : GEPOL surface, SMD, ORCA-2-JSON               
  Dimitrios Liakos       : Extrapolation schemes; Compound Job, Property file
  Dimitrios Manganas     : Further ROCIS development; embedding schemes. LFT, Crystal Embedding 
  Dimitrios Pantazis     : SARC Basis sets                               
  Anastasios Papadopoulos: AUTO-CI, single reference methods and gradients 
  Taras Petrenko         : pre 6.0 DFT Hessian and TD-DFT gradient,  ECA, NRVS 
  Petra Pikulova         : Analytic Raman intensities                    
  Peter Pinski           : DLPNO-MP2, DLPNO-MP2 Gradient                 
  Shashank Vittal Rao    : ES-AILFT, MagRelax                            
  Christoph Reimann      : Effective Core Potentials                     
  Marius Retegan         : Local ZFS, SOC                                
  Christoph Riplinger    : Optimizer, TS searches, QM/MM, DLPNO-CCSD(T), (RO)-DLPNO pert. Triples 
  Michael Roemelt        : Original ROCIS implementation, recursive CI coupling coefficients
  Masaaki Saitow         : Open-shell DLPNO-CCSD energy and density      
  Barbara Sandhoefer     : DKH picture change effects                    
  Yorick L. A. Schmerwitz: GMF and freeze-and-release deltaSCF, NEB S-IDPP initial path                    
  Kantharuban Sivalingam : CASSCF convergence/infrastructure, NEVPT2, NEVPT3, NEVPT4(SD), FIC-MRCI and CEPA variants
  Bernardo de Souza      : ESD, SOC TD-DFT                               
  Georgi L. Stoychev     : AutoAux, RI-MP2 NMR, DLPNO-MP2 response, X2C  
  Van Anh Tran           : RI-MP2 g-tensors                              
  Willem Van den Heuvel  : Paramagnetic NMR                              
  Zikuan Wang            : NOTCH, Electric field optimization            
  Frank Wennmohs         : Technical directorship and infrastructure     
  Hang Xu                : AUTO-CI-Response properties                   
                                                                         
[FACCTs GmbH]                                                            
  Markus Bursch, Nicolas Foglia, Miquel Garcia-Rates, Ingolf Harden, Hagen Neugebauer, Anastasios Papadopoulos, 
  Christoph Riplinger, Bernardo de Souza, Georgi L. Stoychev                                                    
                                                                 
  APM, various basis sets, CI-OPT, improved COSX, DLPNO-Multilevel,           
  DOCKER, DRACO, updates on ESD, Fragmentator, GOAT, IRC, LR-CPCM, L-BFGS, MBIS, meta-GGA TD-DFT gradient, ML-optimized integration grids, 
  MM, NACMEs, nearIR, NEB, NEB-TS, NL-DFT gradient (VV10), 2- and 3-layer-ONIOM, interface openCOSMO-RS, QMMM,   
  Crystal-QMMM, RESP, rigid body optimization, SF, symmetry and pop. for TD-DFT, various functionals, SOLVATOR                                   
                                                                         
[Other institutions]                                                     
  V. Asgeirsson          : NEB                                           
  Christoph Bannwarth    : sTDA-DFT, sTD-DFT, PBEh-3c, B97-3c, D3        
  Giovanni Bistoni       : ETS/NOCV, ADLD/ADEX, COVALED                  
  Martin Brehm           : Molecular dynamics                            
  Ronald Cardenas        : ETS/NOCV                                      
  Martina Colucci        : COVALED                                       
  Sebastian Ehlert       : rSCAN, r2SCAN, r2SCAN-3c, D4, dhf basis sets  
  Marvin Friede          : D4 for Fr, Ra, Ac-Lr                          
  Lars Goerigk           : TD-DFT with DH, B97 family of functionals     
  Stefan Grimme          : VdW corrections, initial TS optimization, DFT functionals, gCP, sTDA/sTD-DF 
  Waldemar Hujo          : DFT-NL                                        
  H. Jonsson             : NEB                                           
  Holger Kruse           : gCP                                           
  Marcel Mueller         : wB97X-3c, vDZP basis set                      
  Hagen Neugebauer       : wr2SCAN, Native XTB                           
  Gianluca Regni         : ADLD/ADEX                                     
  Tobias Risthaus        : pre 6.0 range-separated hybrid DFT and stability analysis
  Lukas Wittmann         : regularized MP2, r2SCAN double-hybrids, wr2SCAN        
                                                                         
We gratefully acknowledge several colleagues who have allowed us to      
interface, adapt or use parts of their codes:                            
  Ed Valeev, F. Pavosevic, A. Kumar             : LibInt (2-el integral package), F12 methods 
  Garnet Chan, S. Sharma, J. Yang, R. Olivares  : DMRG                   
  Ulf Ekstrom                                   : XCFun DFT Library      
  Mihaly Kallay                                 : mrcc  (arbitrary order and MRCC methods)
  Frank Weinhold                                : gennbo (NPA and NBO analysis)           
  Simon Mueller                                 : openCOSMO-RS                            
  Christopher J. Cramer and Donald G. Truhlar   : smd solvation model                     
  S Lehtola, MJT Oliveira, MAL Marques          : LibXC Library                           
  Liviu Ungur et al                             : ANISO software                          


 Your calculation uses the libint2 library for the computation of 2-el integrals
 For citations please refer to: http://libint.valeyev.net

 Your ORCA version has been built with support for libXC version: 7.0.0
 For citations please refer to: https://libxc.gitlab.io

 This ORCA versions uses:
   CBLAS   interface :  Fast vector & matrix operations
   LAPACKE interface :  Fast linear algebra routines
   SCALAPACK package :  Parallel linear algebra routines
   Shared memory     :  Shared parallel matrices
   BLAS/LAPACK       :  OpenBLAS 0.3.29  USE64BITINT DYNAMIC_ARCH NO_AFFINITY Haswell SINGLE_THREADED
        Core in use  :  Haswell
   Copyright (c) 2011-2014, The OpenBLAS Project


  ***********************************
  * Starting time: Sun Aug 31 12:37:37 2025
  * Host name:     chemlab03
  * Process ID:    91330
  * Working dir.:  /home/vivek/mm-project/vivek/xtb-goat/MP2-opt/a/4
  ***********************************



***************************************
The coordinates will be read from file: /home/vivek/mm-project/vivek/xtb-goat/xtb-goat/a/A_CONF/4.xyz
***************************************


================================================================================

----- Orbital basis set information -----
Your calculation utilizes the basis: 6-31G**
   H-He, Li-Ne : W. J. Hehre, R. Ditchfield and J.A. Pople, J. Chem. Phys. 56, 2257 (1972).
                 Note: He and Ne are unpublished basis sets taken from the Gaussian program.
                 Note: Li and B from J. D. Dill and J. A. Pople, J. Chem. Phys. 62, 2921 (1975).
   Na - Ar     : M. M. Francl, W. J. Pietro, W. J. Hehre, J. S. Binkley, M. S. Gordon, 
                 D. J. DeFrees and J. A. Pople, J. Chem. Phys. 77, 3654 (1982).
   K - Zn      : V. A. Rassolov, J. A. Pople, M. A. Ratner, and T. L. Windus, J. Chem. Phys. 109, 1223 (1998).

================================================================================
                                        WARNINGS
                       Please study these warnings very carefully!
================================================================================

WARNING: Old DensityContainer found on disk!
         Will remove this file - 
         If you want to keep old densities, please start your calculation with a different basename. 


WARNING: The frozen-core approximation for MP2-gradient calculations is turned on by default.

WARNING: Geometry Optimization
  ===> : Switching off AutoStart
         For restart on a previous wavefunction, please use MOREAD

WARNING: Post HF methods need fully converged wavefunctions
  ===> : Setting SCFConvForced true
         You can overwrite this default with %scf ConvForced false 


================================================================================
                                       INPUT FILE
================================================================================
NAME = 4.inp
|  1> ! MP2 6-31G** opt
|  2> 
|  3> * xyzfile 0 1 /home/vivek/mm-project/vivek/xtb-goat/xtb-goat/a/A_CONF/4.xyz
|  4> 
|  5>                          ****END OF INPUT****
================================================================================

                       *****************************
                       * Geometry Optimization Run *
                       *****************************

Geometry optimization settings:
Update method            Update   .... BFGS
Choice of coordinates    CoordSys .... (2022) Redundant Internals
Initial Hessian          InHess   .... Almloef's Model
Max. no of cycles        MaxIter  .... 50

Convergence Tolerances:
Energy Change            TolE     ....  5.0000e-06 Eh
Max. Gradient            TolMAXG  ....  3.0000e-04 Eh/bohr
RMS Gradient             TolRMSG  ....  1.0000e-04 Eh/bohr
Max. Displacement        TolMAXD  ....  4.0000e-03 bohr
RMS Displacement         TolRMSD  ....  2.0000e-03 bohr
Strict Convergence                .... False

------------------------------------------------------------------------------
                        ORCA OPTIMIZATION COORDINATE SETUP
------------------------------------------------------------------------------

The optimization will be done in redundant internal coordinates (2022)
Making redundant internal coordinates   ...  (2022 redundants) done
Evaluating the initial hessian          ...  (Almloef) done
Evaluating the coordinates              ...  done
Calculating the B-matrix                .... done
Calculating the G-matrix                .... done
The number of degrees of freedom        ....   50

    -----------------------------------------------------------------
                    Redundant Internal Coordinates


    -----------------------------------------------------------------
         Definition                    Initial Value    Approx d2E/dq
    -----------------------------------------------------------------
      1. B(O   1,C   0)                  1.2004         1.122946   
      2. B(O   2,C   0)                  1.3376         0.678364   
      3. B(C   3,C   0)                  1.5189         0.389096   
      4. B(H   4,O   2)                  0.9701         0.501021   
      5. B(C   5,C   3)                  1.5419         0.357641   
      6. B(H   6,C   5)                  1.0888         0.361721   
      7. B(N   7,C   3)                  1.4497         0.449420   
      8. B(H   8,C   5)                  1.0882         0.362455   
      9. B(H   9,C   5)                  1.0868         0.364325   
     10. B(H  10,C   3)                  1.0957         0.352687   
     11. B(H  11,O   2)                  2.3615         0.010000   
     12. B(H  11,N   7)                  1.0143         0.425946   
     13. B(H  12,N   7)                  1.0139         0.426541   
     14. A(O   1,C   0,C   3)          124.8356         0.441294   
     15. A(O   2,C   0,C   3)          112.5683         0.403312   
     16. A(O   1,C   0,O   2)          122.5217         0.485238   
     17. A(C   0,O   2,H   4)          110.0989         0.373500   
     18. A(C   0,C   3,H  10)          107.5194         0.325381   
     19. A(C   0,C   3,N   7)          110.2967         0.375345   
     20. A(C   0,C   3,C   5)          106.9233         0.363173   
     21. A(C   5,C   3,N   7)          114.5139         0.369933   
     22. A(N   7,C   3,H  10)          108.2344         0.331210   
     23. A(C   5,C   3,H  10)          109.1382         0.320914   
     24. A(H   8,C   5,H   9)          108.7588         0.291672   
     25. A(H   6,C   5,H   9)          108.9922         0.291579   
     26. A(C   3,C   5,H   6)          110.0649         0.322246   
     27. A(C   3,C   5,H   9)          110.3361         0.322625   
     28. A(H   6,C   5,H   8)          108.8773         0.291343   
     29. A(C   3,C   5,H   8)          109.7779         0.322353   
     30. A(H  11,N   7,H  12)          108.3249         0.301802   
     31. A(C   3,N   7,H  12)          110.1060         0.338914   
     32. A(C   3,N   7,H  11)          110.1367         0.338835   
     33. D(H   4,O   2,C   0,O   1)      2.2111         0.037848   
     34. D(H   4,O   2,C   0,C   3)    179.2131         0.037848   
     35. D(N   7,C   3,C   0,O   1)   -140.6710         0.011266   
     36. D(N   7,C   3,C   0,O   2)     42.4089         0.011266   
     37. D(C   5,C   3,C   0,O   2)    -82.6864         0.011266   
     38. D(H  10,C   3,C   0,O   1)    -22.8573         0.011266   
     39. D(C   5,C   3,C   0,O   1)     94.2337         0.011266   
     40. D(H   8,C   5,C   3,H  10)    -60.8778         0.010271   
     41. D(H   8,C   5,C   3,N   7)     60.6072         0.010271   
     42. D(H   8,C   5,C   3,C   0)   -176.8958         0.010271   
     43. D(H   6,C   5,C   3,H  10)    179.2952         0.010271   
     44. D(H   6,C   5,C   3,N   7)    -59.2198         0.010271   
     45. D(H   6,C   5,C   3,C   0)     63.2772         0.010271   
     46. D(H  11,N   7,C   3,C   5)     64.6154         0.017230   
     47. D(H  11,N   7,C   3,C   0)    -56.0329         0.017230   
     48. D(H  12,N   7,C   3,C   5)    -54.7801         0.017230   
     49. D(H  12,N   7,C   3,C   0)   -175.4284         0.017230   
     50. D(H  11,N   7,C   3,H  10)   -173.4053         0.017230   
    -----------------------------------------------------------------

Number of atoms                         .... 13
Number of degrees of freedom            .... 50


         *************************************************************
         *                GEOMETRY OPTIMIZATION CYCLE   1            *
         *************************************************************
---------------------------------
CARTESIAN COORDINATES (ANGSTROEM)
---------------------------------
  C     -4.719601    0.260888   -1.558017
  O     -4.676738    1.215289   -0.831203
  O     -3.669724   -0.137086   -2.285046
  C     -5.959353   -0.577665   -1.816774
  H     -2.903433    0.428799   -2.101572
  C     -6.624905   -0.014281   -3.088383
  H     -5.960034   -0.133797   -3.942256
  N     -5.609399   -1.982411   -1.892978
  H     -7.551928   -0.548724   -3.286458
  H     -6.850403    1.041198   -2.960704
  H     -6.635263   -0.438409   -0.965757
  H     -4.900016   -2.127507   -2.603261
  H     -6.424925   -2.531865   -2.140012

----------------------------
CARTESIAN COORDINATES (A.U.)
----------------------------
  NO LB      ZA    FRAG     MASS         X           Y           Z
   0 C     6.0000    0    12.011   -8.918753    0.493007   -2.944226
   1 O     8.0000    0    15.999   -8.837754    2.296563   -1.570746
   2 O     8.0000    0    15.999   -6.934773   -0.259056   -4.318111
   3 C     6.0000    0    12.011  -11.261546   -1.091630   -3.433206
   4 H     1.0000    0     1.008   -5.486693    0.810312   -3.971396
   5 C     6.0000    0    12.011  -12.519255   -0.026987   -5.836198
   6 H     1.0000    0     1.008  -11.262832   -0.252839   -7.449784
   7 N     7.0000    0    14.007  -10.600228   -3.746214   -3.577210
   8 H     1.0000    0     1.008  -14.271075   -1.036937   -6.210506
   9 H     1.0000    0     1.008  -12.945385    1.967579   -5.594920
  10 H     1.0000    0     1.008  -12.538829   -0.828473   -1.825016
  11 H     1.0000    0     1.008   -9.259689   -4.020405   -4.919451
  12 H     1.0000    0     1.008  -12.141348   -4.784532   -4.044037

--------------------------------
INTERNAL COORDINATES (ANGSTROEM)
--------------------------------
 C      0   0   0     0.000000000000     0.00000000     0.00000000
 O      1   0   0     1.200407036535     0.00000000     0.00000000
 O      1   2   0     1.337608332725   122.52171152     0.00000000
 C      1   2   3     1.518918710998   124.83559468   183.37330100
 H      3   1   2     0.970098269945   110.09885776     2.21114937
 C      4   1   2     1.541865441416   106.92334986    94.23370425
 H      6   4   1     1.088777365957   110.06494544    63.27719276
 N      4   1   2     1.449684502518   110.29667021   219.32903007
 H      6   4   1     1.088225443551   109.77790172   183.10419853
 H      6   4   1     1.086824447606   110.33610637   302.95432003
 H      4   1   2     1.095662413329   107.51942486   337.14268684
 H      8   4   1     1.014287664907   110.13667692   303.96707140
 H      8   4   1     1.013907367741   110.10601739   184.57164208

---------------------------
INTERNAL COORDINATES (A.U.)
---------------------------
 C      0   0   0     0.000000000000     0.00000000     0.00000000
 O      1   0   0     2.268440548283     0.00000000     0.00000000
 O      1   2   0     2.527713423301   122.52171152     0.00000000
 C      1   2   3     2.870340383476   124.83559468   183.37330100
 H      3   1   2     1.833220053187   110.09885776     2.21114937
 C      4   1   2     2.913703419634   106.92334986    94.23370425
 H      6   4   1     2.057491042471   110.06494544    63.27719276
 N      4   1   2     2.739506690349   110.29667021   219.32903007
 H      6   4   1     2.056448060277   109.77790172   183.10419853
 H      6   4   1     2.053800561625   110.33610637   302.95432003
 H      4   1   2     2.070501896423   107.51942486   337.14268684
 H      8   4   1     1.916725907689   110.13667692   303.96707140
 H      8   4   1     1.916007250195   110.10601739   184.57164208

---------------------
BASIS SET INFORMATION
---------------------
There are 4 groups of distinct atoms

 Group   1 Type C   : 10s4p1d contracted to 3s2p1d pattern {631/31/1}
 Group   2 Type O   : 10s4p1d contracted to 3s2p1d pattern {631/31/1}
 Group   3 Type H   : 4s1p contracted to 2s1p pattern {31/1}
 Group   4 Type N   : 10s4p1d contracted to 3s2p1d pattern {631/31/1}

Atom   0C    basis set group =>   1
Atom   1O    basis set group =>   2
Atom   2O    basis set group =>   2
Atom   3C    basis set group =>   1
Atom   4H    basis set group =>   3
Atom   5C    basis set group =>   1
Atom   6H    basis set group =>   3
Atom   7N    basis set group =>   4
Atom   8H    basis set group =>   3
Atom   9H    basis set group =>   3
Atom  10H    basis set group =>   3
Atom  11H    basis set group =>   3
Atom  12H    basis set group =>   3
------------------------------------------------------------------------------
                             ORCA STARTUP CALCULATIONS
------------------------------------------------------------------------------
------------------------------------------------------------------------------
                   ___                                                        
                  /   \      - P O W E R E D   B Y -                         
                 /     \                                                     
                 |  |  |   _    _      __       _____    __    __             
                 |  |  |  | |  | |    /  \     |  _  \  |  |  /  |          
                  \  \/   | |  | |   /    \    | | | |  |  | /  /          
                 / \  \   | |__| |  /  /\  \   | |_| |  |  |/  /          
                |  |  |   |  __  | /  /__\  \  |    /   |      \           
                |  |  |   | |  | | |   __   |  |    \   |  |\   \          
                \     /   | |  | | |  |  |  |  | |\  \  |  | \   \       
                 \___/    |_|  |_| |__|  |__|  |_| \__\ |__|  \__/        
                                                                              
                      - O R C A' S   B I G   F R I E N D -                    
                                      &                                       
                       - I N T E G R A L  F E E D E R -                       
                                                                              
 v1 FN, 2020, v2 2021, v3 2022-2024                                           
------------------------------------------------------------------------------


----------------------
SHARK INTEGRAL PACKAGE
----------------------

Number of atoms                             ...     13
Number of basis functions                   ...    119
Number of shells                            ...     57
Maximum angular momentum                    ...      2
Integral batch strategy                     ... SHARK/LIBINT Hybrid
RI-J (if used) integral strategy            ... SPLIT-RIJ (Revised 2003 algorithm where possible)
Printlevel                                  ...      1
Contraction scheme used                     ... SEGMENTED contraction
Prescreening option                         ... SCHWARTZ
   Thresh                                   ... 2.500e-11
   Tcut                                     ... 2.500e-12
   Tpresel                                  ... 2.500e-12 
Coulomb Range Separation                    ... NOT USED
Exchange Range Separation                   ... NOT USED
Multipole approximations                    ... NOT USED
Finite Nucleus Model                        ... NOT USED
CABS basis                                  ... NOT available
Auxiliary Coulomb fitting basis             ... NOT available
Auxiliary J/K fitting basis                 ... NOT available
Auxiliary Correlation fitting basis         ... NOT available
Auxiliary 'external' fitting basis          ... NOT available

Checking pre-screening integrals            ... done (  0.0 sec) Dimension = 57
   => SHARK Basis and OBASIS are compatible. Storing Pre-screening
Shell pair information
Shell pair cut-off parameter TPreSel        ...   2.5e-12
Total number of shell pairs                 ...      1653
Shell pairs after pre-screening             ...      1597
Total number of primitive shell pairs       ...      8022
Primitive shell pairs kept                  ...      5580
          la=0 lb=0:    506 shell pairs
          la=1 lb=0:    583 shell pairs
          la=1 lb=1:    183 shell pairs
          la=2 lb=0:    190 shell pairs
          la=2 lb=1:    114 shell pairs
          la=2 lb=2:     21 shell pairs

Checking whether 4 symmetric matrices of dimension 119 fit in memory
:Max Core in MB      =   4096.00
 MB in use           =      3.43
 MB left             =   4092.57
 MB needed           =      0.22
 Data fit in memory  = YES
Calculating Nuclear repulsion               ... done (  0.0 sec) ENN=    250.876956913001 Eh

Diagonalization of the overlap matrix:
Smallest eigenvalue                        ... 3.882e-03
Time for diagonalization                   ...    0.001 sec
Threshold for overlap eigenvalues          ... 1.000e-07
Number of eigenvalues below threshold      ... 0
Time for construction of square roots      ...    0.000 sec
Total time needed                          ...    0.001 sec

-------------------
DFT GRID GENERATION
-------------------

General Integration Accuracy     IntAcc      ... 4.388
Radial Grid Type                 RadialGrid  ... OptM3 with GC (2021)
Angular Grid (max. ang.)         AngularGrid ... 4 (Lebedev-302)
Angular grid pruning method      GridPruning ... 4 (adaptive)
Weight generation scheme         WeightScheme... mBecke (2022)
Basis function cutoff            BFCut       ... 1.0000e-11
Integration weight cutoff        WCut        ... 1.0000e-14
Partially contracted basis set               ... off
Rotationally invariant grid construction     ... off
Angular grids for H and He will be reduced by one unit

Total number of grid points                  ...    58935
Total number of batches                      ...      929
Average number of points per batch           ...       63
Average number of grid points per atom       ...     4533
Grids setup in   0.2 sec
Initializing property integral containers    ... done (  0.0 sec)

SHARK setup successfully completed in   0.2 seconds

Maximum memory used throughout the entire STARTUP-calculation: 22.7 MB
-------------------------------------------------------------------------------
                                 ORCA GUESS
                   Start orbitals & Density for SCF / CASSCF
-------------------------------------------------------------------------------

------------
SCF SETTINGS
------------
Hamiltonian:
 Ab initio Hamiltonian  Method          .... Hartree-Fock(GTOs)


General Settings:
 Integral files         IntName         .... 4
 Hartree-Fock type      HFTyp           .... RHF
 Total Charge           Charge          ....    0
 Multiplicity           Mult            ....    1
 Number of Electrons    NEL             ....   48
 Basis Dimension        Dim             ....  119
 Nuclear Repulsion      ENuc            ....    250.8769569130 Eh

Convergence Acceleration:
 AO-DIIS                CNVDIIS         .... on
   Start iteration      DIISMaxIt       ....    12
   Startup error        DIISStart       ....  0.200000
   # of expansion vecs  DIISMaxEq       ....     5
   Bias factor          DIISBfac        ....   1.050
   Max. coefficient     DIISMaxC        ....  10.000
 MO-DIIS                CNVKDIIS        .... off
 Trust-Rad. Augm. Hess. CNVTRAH         .... auto
   Auto Start mean grad. ratio tolernc. ....  1.125000
   Auto Start start iteration           ....    50
   Auto Start num. interpolation iter.  ....    10
   Max. Number of Micro iterations      ....    24
   Max. Number of Macro iterations      .... Maxiter - #DIIS iter
   Number of Davidson start vectors     ....     2
   Converg. threshold    (grad. norm)   ....   1.000e-05
   Grad. Scal. Fac. for Micro threshold ....   0.100
   Minimum threshold for Micro iter.    ....   1.000e-02
   NR start threshold (gradient norm)   ....   1.000e-04
   Initial trust radius                 ....   0.400
   Minimum AH scaling param. (alpha)    ....   1.000
   Maximum AH scaling param. (alpha)    .... 1000.000
   Quad. conv. algorithm                .... NR
   White noise on init. David. guess    .... on
   Maximum white noise                  ....   0.010
   Pseudo random numbers                .... off
   Inactive MOs                         .... canonical
   Orbital update algorithm             .... Taylor
   Preconditioner                       .... Diag
   Full preconditioner red. dimension   ....   250
 SOSCF                 CNVSOSCF           .... on
   Start iteration     SOSCFMaxIt         ....   150
   Startup grad/error  SOSCFStart         ....  0.003300
   Hessian update      SOSCFHessUp        .... L-BFGS
   Autom. constraints  SOSCFAutoConstrain .... off
 Level Shifting         CNVShift        .... on
   Level shift para.    LevelShift      ....    0.2500
   Turn off err/grad.   ShiftErr        ....    0.0010
 Zerner damping         CNVZerner       .... off
 Static damping         CNVDamp         .... on
   Fraction old density DampFac         ....    0.7000
   Max. Damping (<1)    DampMax         ....    0.9800
   Min. Damping (>=0)   DampMin         ....    0.0000
   Turn off err/grad.   DampErr         ....    0.1000

SCF Procedure:
 Maximum # iterations   MaxIter         ....   125
 SCF integral mode      SCFMode         .... Direct
   Integral package                     .... SHARK and LIBINT hybrid scheme
 Reset frequency        DirectResetFreq ....    20
 Integral Threshold     Thresh          ....  2.500e-11 Eh
 Primitive CutOff       TCut            ....  2.500e-12 Eh

Convergence Tolerance:
 Convergence Check Mode ConvCheckMode   .... Total+1el-Energy
 Convergence forced     ConvForced      .... 1
 Energy Change          TolE            ....  1.000e-08 Eh
 1-El. energy change                    ....  1.000e-05 Eh
 Orbital Gradient       TolG            ....  1.000e-05
 Orbital Rotation angle TolX            ....  1.000e-05
 DIIS Error             TolErr          ....  5.000e-07

------------------------------
INITIAL GUESS: MODEL POTENTIAL
------------------------------
Loading Hartree-Fock densities                     ... done
Calculating cut-offs                               ... done
Initializing the effective Hamiltonian             ... done
Setting up the integral package (SHARK)            ... done
Starting the Coulomb interaction                   ... done (   0.0 sec)
Making the grid                                    ... done (   0.0 sec)
Mapping shells                                     ... done
Starting the XC term evaluation                    ... done (   0.0 sec)
Transforming the Hamiltonian                       ... done (   0.0 sec)
Diagonalizing the Hamiltonian                      ... done (   0.0 sec)
Back transforming the eigenvectors                 ... done (   0.0 sec)
Now organizing SCF variables                       ... done
                      ------------------
                      INITIAL GUESS DONE (   0.1 sec)
                      ------------------
             **** ENERGY FILE WAS UPDATED (4.en.tmp) ****
Finished Guess after   0.1 sec
Maximum memory used throughout the entire GUESS-calculation: 7.4 MB

-------------------------------------------------------------------------------------------
                                      ORCA LEAN-SCF
                              memory conserving SCF solver
-------------------------------------------------------------------------------------------

----------------------------------------D-I-I-S--------------------------------------------
Iteration    Energy (Eh)           Delta-E    RMSDP     MaxDP     DIISErr   Damp  Time(sec)
-------------------------------------------------------------------------------------------
               ***  Starting incremental Fock matrix formation  ***
    1    -321.5886223728667801     0.00e+00  3.19e-03  6.73e-02  2.54e-01  0.700   0.5
    2    -321.6945358504239039    -1.06e-01  2.36e-03  4.85e-02  1.59e-01  0.700   0.5
                               ***Turning on AO-DIIS***
    3    -321.7561110327942515    -6.16e-02  1.24e-03  2.14e-02  9.05e-02  0.700   0.5
    4    -321.7947416161795218    -3.86e-02  2.81e-03  4.52e-02  6.10e-02  0.000   0.5
    5    -321.8802487833899022    -8.55e-02  3.47e-04  4.95e-03  5.11e-03  0.000   0.5
                              *** Initializing SOSCF ***
---------------------------------------S-O-S-C-F--------------------------------------
Iteration    Energy (Eh)           Delta-E    RMSDP     MaxDP     MaxGrad    Time(sec)
--------------------------------------------------------------------------------------
    6    -321.8806040141922722    -3.55e-04  1.78e-04  3.02e-03  3.14e-03     0.4
               *** Restarting incremental Fock matrix formation ***
    7    -321.8806881304944909    -8.41e-05  1.11e-04  1.89e-03  1.89e-03     0.5
    8    -321.8807150482467705    -2.69e-05  1.25e-04  2.24e-03  4.87e-04     0.4
    9    -321.8807247332462111    -9.68e-06  2.18e-05  2.74e-04  2.06e-04     0.4
   10    -321.8807255217675447    -7.89e-07  8.53e-06  1.03e-04  5.44e-05     0.4
   11    -321.8807256132903376    -9.15e-08  3.12e-06  5.99e-05  1.85e-05     0.4
   12    -321.8807256258852476    -1.26e-08  7.19e-07  1.32e-05  5.49e-06     0.4
   13    -321.8807256269443542    -1.06e-09  1.99e-07  3.40e-06  9.89e-07     0.3
                 **** Energy Check signals convergence ****

               *****************************************************
               *                     SUCCESS                       *
               *           SCF CONVERGED AFTER  13 CYCLES          *
               *****************************************************

             **** ENERGY FILE WAS UPDATED (4.en.tmp) ****

----------------
TOTAL SCF ENERGY
----------------

Total Energy       :       -321.88072562780928 Eh           -8758.81983 eV

Components:
Nuclear Repulsion  :        250.87695691300061 Eh            6826.70906 eV
Electronic Energy  :       -572.75768254080992 Eh          -15585.52889 eV
One Electron Energy:       -937.12101900435925 Eh          -25500.35934 eV
Two Electron Energy:        364.36333646354933 Eh            9914.83045 eV

Virial components:
Potential Energy   :       -643.34712182982014 Eh          -17506.36519 eV
Kinetic Energy     :        321.46639620201086 Eh            8747.54536 eV
Virial Ratio       :          2.00128887320944

---------------
SCF CONVERGENCE
---------------

  Last Energy change         ...    1.0591e-09  Tolerance :   1.0000e-08
  Last MAX-Density change    ...    3.4002e-06  Tolerance :   1.0000e-07
  Last RMS-Density change    ...    1.9915e-07  Tolerance :   5.0000e-09
  Last DIIS Error            ...    3.1402e-03  Tolerance :   5.0000e-07
  Last Orbital Gradient      ...    9.8869e-07  Tolerance :   1.0000e-05
  Last Orbital Rotation      ...    1.6274e-06  Tolerance :   1.0000e-05


----------------
ORBITAL ENERGIES
----------------

  NO   OCC          E(Eh)            E(eV) 
   0   2.0000     -20.618511      -561.0582 
   1   2.0000     -20.550448      -559.2061 
   2   2.0000     -15.550680      -423.1555 
   3   2.0000     -11.383823      -309.7696 
   4   2.0000     -11.276160      -306.8399 
   5   2.0000     -11.229821      -305.5790 
   6   2.0000      -1.469667       -39.9917 
   7   2.0000      -1.360919       -37.0325 
   8   2.0000      -1.200768       -32.6746 
   9   2.0000      -1.018144       -27.7051 
  10   2.0000      -0.907985       -24.7075 
  11   2.0000      -0.813828       -22.1454 
  12   2.0000      -0.711265       -19.3545 
  13   2.0000      -0.687395       -18.7050 
  14   2.0000      -0.649254       -17.6671 
  15   2.0000      -0.638332       -17.3699 
  16   2.0000      -0.600397       -16.3376 
  17   2.0000      -0.583860       -15.8876 
  18   2.0000      -0.572189       -15.5700 
  19   2.0000      -0.541381       -14.7317 
  20   2.0000      -0.517426       -14.0799 
  21   2.0000      -0.476540       -12.9673 
  22   2.0000      -0.444974       -12.1084 
  23   2.0000      -0.393406       -10.7051 
  24   0.0000       0.188862         5.1392 
  25   0.0000       0.206679         5.6240 
  26   0.0000       0.241788         6.5794 
  27   0.0000       0.280463         7.6318 
  28   0.0000       0.287763         7.8304 
  29   0.0000       0.311541         8.4774 
  30   0.0000       0.322001         8.7621 
  31   0.0000       0.342449         9.3185 
  32   0.0000       0.380421        10.3518 
  33   0.0000       0.407515        11.0891 
  34   0.0000       0.463794        12.6205 
*Only the first 10 virtual orbitals were printed.

                    ********************************
                    * MULLIKEN POPULATION ANALYSIS *
                    ********************************

-----------------------
MULLIKEN ATOMIC CHARGES
-----------------------
   0 C :    0.816017
   1 O :   -0.581667
   2 O :   -0.643834
   3 C :   -0.028609
   4 H :    0.375079
   5 C :   -0.353519
   6 H :    0.127173
   7 N :   -0.692956
   8 H :    0.121675
   9 H :    0.137204
  10 H :    0.167339
  11 H :    0.285156
  12 H :    0.270942
Sum of atomic charges:   -0.0000000

--------------------------------
MULLIKEN REDUCED ORBITAL CHARGES
--------------------------------
  0 C s       :     2.938408  s :     2.938408
      pz      :     0.639603  p :     2.098114
      px      :     0.733838
      py      :     0.724673
      dz2     :     0.028614  d :     0.147461
      dxz     :     0.032528
      dyz     :     0.019878
      dx2y2   :     0.026034
      dxy     :     0.040405

  1 O s       :     3.873518  s :     3.873518
      pz      :     1.454410  p :     4.675084
      px      :     1.808519
      py      :     1.412154
      dz2     :     0.009225  d :     0.033065
      dxz     :     0.002887
      dyz     :     0.009187
      dx2y2   :     0.007159
      dxy     :     0.004607

  2 O s       :     3.835301  s :     3.835301
      pz      :     1.742888  p :     4.783476
      px      :     1.316799
      py      :     1.723790
      dz2     :     0.004412  d :     0.025057
      dxz     :     0.006565
      dyz     :     0.003375
      dx2y2   :     0.001820
      dxy     :     0.008886

  3 C s       :     3.209543  s :     3.209543
      pz      :     1.019911  p :     2.748461
      px      :     0.954892
      py      :     0.773658
      dz2     :     0.012955  d :     0.070605
      dxz     :     0.013305
      dyz     :     0.013795
      dx2y2   :     0.013839
      dxy     :     0.016712

  4 H s       :     0.583252  s :     0.583252
      pz      :     0.008264  p :     0.041669
      px      :     0.019337
      py      :     0.014068

  5 C s       :     3.262173  s :     3.262173
      pz      :     0.961068  p :     3.050452
      px      :     1.034911
      py      :     1.054473
      dz2     :     0.009363  d :     0.040894
      dxz     :     0.011741
      dyz     :     0.003922
      dx2y2   :     0.008883
      dxy     :     0.006985

  6 H s       :     0.860193  s :     0.860193
      pz      :     0.006312  p :     0.012634
      px      :     0.004455
      py      :     0.001867

  7 N s       :     3.605203  s :     3.605203
      pz      :     1.654251  p :     4.053782
      px      :     1.259034
      py      :     1.140497
      dz2     :     0.005470  d :     0.033971
      dxz     :     0.009542
      dyz     :     0.003024
      dx2y2   :     0.008041
      dxy     :     0.007894

  8 H s       :     0.865596  s :     0.865596
      pz      :     0.002101  p :     0.012729
      px      :     0.007160
      py      :     0.003469

  9 H s       :     0.850032  s :     0.850032
      pz      :     0.001872  p :     0.012764
      px      :     0.002091
      py      :     0.008802

 10 H s       :     0.820616  s :     0.820616
      pz      :     0.006559  p :     0.012044
      px      :     0.004390
      py      :     0.001095

 11 H s       :     0.688435  s :     0.688435
      pz      :     0.010981  p :     0.026408
      px      :     0.011409
      py      :     0.004018

 12 H s       :     0.702825  s :     0.702825
      pz      :     0.006934  p :     0.026233
      px      :     0.011213
      py      :     0.008087



                     *******************************
                     * LOEWDIN POPULATION ANALYSIS *
                     *******************************

----------------------
LOEWDIN ATOMIC CHARGES
----------------------
   0 C :    0.245751
   1 O :   -0.301279
   2 O :   -0.210945
   3 C :   -0.018022
   4 H :    0.202511
   5 C :   -0.189384
   6 H :    0.069372
   7 N :   -0.285805
   8 H :    0.067919
   9 H :    0.075336
  10 H :    0.083801
  11 H :    0.132363
  12 H :    0.128381

-------------------------------
LOEWDIN REDUCED ORBITAL CHARGES
-------------------------------
  0 C s       :     2.840759  s :     2.840759
      pz      :     0.787949  p :     2.595448
      px      :     0.904543
      py      :     0.902956
      dz2     :     0.056674  d :     0.318042
      dxz     :     0.072455
      dyz     :     0.046358
      dx2y2   :     0.053907
      dxy     :     0.088650

  1 O s       :     3.546302  s :     3.546302
      pz      :     1.469910  p :     4.697294
      px      :     1.765270
      py      :     1.462114
      dz2     :     0.010490  d :     0.057684
      dxz     :     0.005123
      dyz     :     0.020946
      dx2y2   :     0.012639
      dxy     :     0.008486

  2 O s       :     3.456108  s :     3.456108
      pz      :     1.713471  p :     4.707180
      px      :     1.307054
      py      :     1.686654
      dz2     :     0.007096  d :     0.047658
      dxz     :     0.012950
      dyz     :     0.004528
      dx2y2   :     0.007518
      dxy     :     0.015566

  3 C s       :     2.871244  s :     2.871244
      pz      :     1.056753  p :     3.006142
      px      :     1.021328
      py      :     0.928060
      dz2     :     0.024797  d :     0.140637
      dxz     :     0.025200
      dyz     :     0.028262
      dx2y2   :     0.028070
      dxy     :     0.034308

  4 H s       :     0.676728  s :     0.676728
      pz      :     0.026126  p :     0.120761
      px      :     0.052566
      py      :     0.042068

  5 C s       :     2.918103  s :     2.918103
      pz      :     1.042178  p :     3.198589
      px      :     1.072060
      py      :     1.084351
      dz2     :     0.017354  d :     0.072692
      dxz     :     0.020933
      dyz     :     0.007801
      dx2y2   :     0.014725
      dxy     :     0.011879

  6 H s       :     0.890198  s :     0.890198
      pz      :     0.019697  p :     0.040430
      px      :     0.013879
      py      :     0.006854

  7 N s       :     3.184679  s :     3.184679
      pz      :     1.613230  p :     4.040288
      px      :     1.241012
      py      :     1.186045
      dz2     :     0.007658  d :     0.060838
      dxz     :     0.013375
      dyz     :     0.006659
      dx2y2   :     0.016165
      dxy     :     0.016981

  8 H s       :     0.892059  s :     0.892059
      pz      :     0.007430  p :     0.040022
      px      :     0.021381
      py      :     0.011211

  9 H s       :     0.883880  s :     0.883880
      pz      :     0.006670  p :     0.040783
      px      :     0.007684
      py      :     0.026429

 10 H s       :     0.877188  s :     0.877188
      pz      :     0.019979  p :     0.039011
      px      :     0.014230
      py      :     0.004801

 11 H s       :     0.784431  s :     0.784431
      pz      :     0.036873  p :     0.083206
      px      :     0.033141
      py      :     0.013192

 12 H s       :     0.789904  s :     0.789904
      pz      :     0.023200  p :     0.081715
      px      :     0.034431
      py      :     0.024084



                      *****************************
                      * MAYER POPULATION ANALYSIS *
                      *****************************

  NA   - Mulliken gross atomic population
  ZA   - Total nuclear charge
  QA   - Mulliken gross atomic charge
  VA   - Mayer's total valence
  BVA  - Mayer's bonded valence
  FA   - Mayer's free valence

  ATOM       NA         ZA         QA         VA         BVA        FA
  0 C      5.1840     6.0000     0.8160     3.6899     3.6899    -0.0000
  1 O      8.5817     8.0000    -0.5817     1.9041     1.9041    -0.0000
  2 O      8.6438     8.0000    -0.6438     1.8226     1.8226     0.0000
  3 C      6.0286     6.0000    -0.0286     3.7651     3.7651    -0.0000
  4 H      0.6249     1.0000     0.3751     0.8707     0.8707    -0.0000
  5 C      6.3535     6.0000    -0.3535     3.8184     3.8184    -0.0000
  6 H      0.8728     1.0000     0.1272     0.9534     0.9534    -0.0000
  7 N      7.6930     7.0000    -0.6930     2.7339     2.7339     0.0000
  8 H      0.8783     1.0000     0.1217     0.9556     0.9556    -0.0000
  9 H      0.8628     1.0000     0.1372     0.9500     0.9500     0.0000
 10 H      0.8327     1.0000     0.1673     0.9387     0.9387     0.0000
 11 H      0.7148     1.0000     0.2852     0.9026     0.9026     0.0000
 12 H      0.7291     1.0000     0.2709     0.9067     0.9067     0.0000

  Mayer bond orders larger than 0.100000
B(  0-C ,  1-O ) :   1.8367 B(  0-C ,  2-O ) :   0.9673 B(  0-C ,  3-C ) :   0.9327 
B(  2-O ,  4-H ) :   0.8390 B(  3-C ,  5-C ) :   0.9520 B(  3-C ,  7-N ) :   0.9588 
B(  3-C , 10-H ) :   0.9655 B(  5-C ,  6-H ) :   0.9674 B(  5-C ,  8-H ) :   0.9734 
B(  5-C ,  9-H ) :   0.9628 B(  7-N , 11-H ) :   0.8945 B(  7-N , 12-H ) :   0.9094 


-------
TIMINGS
-------

Total SCF time: 0 days 0 hours 0 min 5 sec 

Total time                  ....       5.846 sec
Sum of individual times     ....       5.546 sec  ( 94.9%)

SCF preparation             ....       0.014 sec  (  0.2%)
Fock matrix formation       ....       5.510 sec  ( 94.3%)
  Startup                   ....       0.000 sec  (  0.0% of F)
  Coulomb+Exchange Fock     ....       5.801 sec  (105.3% of F)
Diagonalization             ....       0.000 sec  (  0.0%)
Density matrix formation    ....       0.002 sec  (  0.0%)
Total Energy calculation    ....       0.000 sec  (  0.0%)
Population analysis         ....       0.001 sec  (  0.0%)
Orbital Transformation      ....       0.002 sec  (  0.0%)
Orbital Orthonormalization  ....       0.000 sec  (  0.0%)
DIIS solution               ....       0.009 sec  (  0.2%)
SOSCF solution              ....       0.006 sec  (  0.1%)
Finished LeanSCF after   5.8 sec

Maximum memory used throughout the entire LEANSCF-calculation: 10.6 MB

------------------------------------------------------------------------------
                                ORCA  MP2 
------------------------------------------------------------------------------

Freezing NCore=12 chemical core electrons
MP2 will be done in the AO integral direct mode
The Q1-step will be done using symmetric double matrices
Dimension of the basis                    ...  119
Memory devoted for MP2                    ... 4096 MB   
Memory needed for all in one shot         ...  118 MB
Number of MOs that can be treated together...  630      
MP2 density construction                  ... relaxed
The MP2 gradient is requested => amplitudes will be stored on disk
Total number of MOs              ...   18
Number of MOs treated per batch  ...   18 
Number of batches necessary      ...    1 
OPERATORS   0/  0 PASS   0
-----------------------------------------------
 MP2 CORRELATION ENERGY   :     -0.934175940 Eh
-----------------------------------------------


---------------------
MP2 DENSITY FORMATION
---------------------

Completing the external part of the density      ... done
Storing the unrelaxed density                    ... done

Calculating G(D)                                 ... done
Completing the Lagrangian                        ... done
Solving the Z-vector equations                   ... 
-------------------
SHARK CP-SCF DRIVER
-------------------

Dimension of the orbital basis          ...    119
Dimension of the CPSCF-problem          ...   2280
Number of operators                     ...      1
Max. number of iterations               ...    128
Convergence Tolerance                   ... 1.0e-04
Number of perturbations                 ...      1
Perturbation type                       ... REAL

----------------------------
POPLE LINEAR EQUATION SOLVER
----------------------------

  ITERATION   0:   ||err||_max =   1.1522e-01 (   0.6 sec)
  ITERATION   1:   ||err||_max =   2.9552e-02 (   0.6 sec)
  ITERATION   2:   ||err||_max =   1.2603e-02 (   0.6 sec)
  ITERATION   3:   ||err||_max =   3.0915e-03 (   0.6 sec)
  ITERATION   4:   ||err||_max =   1.0702e-03 (   0.6 sec)
  ITERATION   5:   ||err||_max =   2.6805e-04 (   0.6 sec)
  ITERATION   6:   ||err||_max =   8.2157e-05 (   0.6 sec)
                                                 ... done
Finalizing the relaxed density                   ... done
Transforming P to the AO basis                   ... done
Storing the relaxed density                      ... done

------------------------------------
ENERGY WEIGHTED DENSITY FINALIZATION
------------------------------------

Gathering the parts of the W-matrix              ...                                                      done
Forming the Z-density                            ... done
Transforming Z to the AO basis                   ... done
Calculating G(Z)                                 ... done
Finalizing the W-matrix                          ...                                                      done
Transforming W to the AO basis and storing       ... done

                *********************************************
                * UNRELAXED MP2 DENSITY POPULATION ANALYSIS *
                *********************************************

------------------------------------------------------------------------------
                           ORCA POPULATION ANALYSIS
------------------------------------------------------------------------------
Input electron density              ... 4.pmp2ur
BaseName (.gbw .S,...)              ... 4

                    ********************************
                    * MULLIKEN POPULATION ANALYSIS *
                    ********************************

-----------------------
MULLIKEN ATOMIC CHARGES
-----------------------
   0 C :    0.783465
   1 O :   -0.559173
   2 O :   -0.630423
   3 C :   -0.034242
   4 H :    0.371895
   5 C :   -0.355565
   6 H :    0.127916
   7 N :   -0.685701
   8 H :    0.122545
   9 H :    0.137858
  10 H :    0.168008
  11 H :    0.283668
  12 H :    0.269748
Sum of atomic charges:   -0.0000000

--------------------------------
MULLIKEN REDUCED ORBITAL CHARGES
--------------------------------
  0 C s       :     2.940176  s :     2.940176
      pz      :     0.650465  p :     2.118499
      px      :     0.737845
      py      :     0.730189
      dz2     :     0.030456  d :     0.157859
      dxz     :     0.034666
      dyz     :     0.021829
      dx2y2   :     0.028289
      dxy     :     0.042619
  1 O s       :     3.869060  s :     3.869060
      pz      :     1.441199  p :     4.635592
      px      :     1.793586
      py      :     1.400807
      dz2     :     0.013457  d :     0.054521
      dxz     :     0.007389
      dyz     :     0.013074
      dx2y2   :     0.011388
      dxy     :     0.009214
  2 O s       :     3.831153  s :     3.831153
      pz      :     1.730411  p :     4.751150
      px      :     1.308745
      py      :     1.711995
      dz2     :     0.009109  d :     0.048120
      dxz     :     0.011095
      dyz     :     0.007911
      dx2y2   :     0.006489
      dxy     :     0.013517
  3 C s       :     3.206636  s :     3.206636
      pz      :     1.015314  p :     2.741750
      px      :     0.952231
      py      :     0.774205
      dz2     :     0.015941  d :     0.085856
      dxz     :     0.016488
      dyz     :     0.017053
      dx2y2   :     0.016859
      dxy     :     0.019516
  4 H s       :     0.585299  s :     0.585299
      pz      :     0.008884  p :     0.042805
      px      :     0.019425
      py      :     0.014496
  5 C s       :     3.258962  s :     3.258962
      pz      :     0.957869  p :     3.040013
      px      :     1.031360
      py      :     1.050783
      dz2     :     0.012486  d :     0.056590
      dxz     :     0.014709
      dyz     :     0.007213
      dx2y2   :     0.012024
      dxy     :     0.010158
  6 H s       :     0.856717  s :     0.856717
      pz      :     0.007132  p :     0.015367
      px      :     0.005338
      py      :     0.002896
  7 N s       :     3.600559  s :     3.600559
      pz      :     1.642758  p :     4.029209
      px      :     1.252447
      py      :     1.134004
      dz2     :     0.010010  d :     0.055933
      dxz     :     0.013912
      dyz     :     0.007776
      dx2y2   :     0.012060
      dxy     :     0.012175
  8 H s       :     0.862004  s :     0.862004
      pz      :     0.003131  p :     0.015451
      px      :     0.007914
      py      :     0.004406
  9 H s       :     0.846686  s :     0.846686
      pz      :     0.002901  p :     0.015456
      px      :     0.003106
      py      :     0.009448
 10 H s       :     0.817276  s :     0.817276
      pz      :     0.007322  p :     0.014717
      px      :     0.005265
      py      :     0.002130
 11 H s       :     0.687909  s :     0.687909
      pz      :     0.011635  p :     0.028423
      px      :     0.011905
      py      :     0.004884
 12 H s       :     0.701994  s :     0.701994
      pz      :     0.007806  p :     0.028258
      px      :     0.011703
      py      :     0.008748


                     *******************************
                     * LOEWDIN POPULATION ANALYSIS *
                     *******************************

----------------------
LOEWDIN ATOMIC CHARGES
----------------------
   0 C :    0.222124
   1 O :   -0.283004
   2 O :   -0.202369
   3 C :   -0.021680
   4 H :    0.200184
   5 C :   -0.189868
   6 H :    0.069538
   7 N :   -0.281759
   8 H :    0.068118
   9 H :    0.075455
  10 H :    0.084039
  11 H :    0.131535
  12 H :    0.127687

-------------------------------
LOEWDIN REDUCED ORBITAL CHARGES
-------------------------------
  0 C s       :     2.841506  s :     2.841506
      pz      :     0.796136  p :     2.607068
      px      :     0.904915
      py      :     0.906016
      dz2     :     0.058193  d :     0.329303
      dxz     :     0.074520
      dyz     :     0.049661
      dx2y2   :     0.056527
      dxy     :     0.090402
  1 O s       :     3.543294  s :     3.543294
      pz      :     1.456802  p :     4.658024
      px      :     1.750928
      py      :     1.450294
      dz2     :     0.015119  d :     0.081686
      dxz     :     0.009712
      dyz     :     0.026093
      dx2y2   :     0.017550
      dxy     :     0.013212
  2 O s       :     3.454153  s :     3.454153
      pz      :     1.701570  p :     4.676020
      px      :     1.299160
      py      :     1.675291
      dz2     :     0.011979  d :     0.072196
      dxz     :     0.018008
      dyz     :     0.009213
      dx2y2   :     0.012260
      dxy     :     0.020737
  3 C s       :     2.871527  s :     2.871527
      pz      :     1.050795  p :     2.992047
      px      :     1.016233
      py      :     0.925019
      dz2     :     0.028375  d :     0.158106
      dxz     :     0.029027
      dyz     :     0.031580
      dx2y2   :     0.031612
      dxy     :     0.037512
  4 H s       :     0.676622  s :     0.676622
      pz      :     0.026848  p :     0.123194
      px      :     0.053384
      py      :     0.042962
  5 C s       :     2.917333  s :     2.917333
      pz      :     1.036608  p :     3.182009
      px      :     1.066595
      py      :     1.078806
      dz2     :     0.020945  d :     0.090525
      dxz     :     0.024473
      dyz     :     0.011322
      dx2y2   :     0.018326
      dxy     :     0.015459
  6 H s       :     0.885508  s :     0.885508
      pz      :     0.021475  p :     0.044954
      px      :     0.015399
      py      :     0.008081
  7 N s       :     3.182877  s :     3.182877
      pz      :     1.601720  p :     4.014192
      px      :     1.233906
      py      :     1.178566
      dz2     :     0.012546  d :     0.084689
      dxz     :     0.018255
      dyz     :     0.011537
      dx2y2   :     0.020692
      dxy     :     0.021659
  8 H s       :     0.887330  s :     0.887330
      pz      :     0.008695  p :     0.044552
      px      :     0.023230
      py      :     0.012628
  9 H s       :     0.879276  s :     0.879276
      pz      :     0.007895  p :     0.045270
      px      :     0.008948
      py      :     0.028428
 10 H s       :     0.872318  s :     0.872318
      pz      :     0.021680  p :     0.043643
      px      :     0.015808
      py      :     0.006156
 11 H s       :     0.781597  s :     0.781597
      pz      :     0.038271  p :     0.086868
      px      :     0.034346
      py      :     0.014251
 12 H s       :     0.786873  s :     0.786873
      pz      :     0.024185  p :     0.085440
      px      :     0.035957
      py      :     0.025298


                      *****************************
                      * MAYER POPULATION ANALYSIS *
                      *****************************

  NA   - Mulliken gross atomic population
  ZA   - Total nuclear charge
  QA   - Mulliken gross atomic charge
  VA   - Mayer's total valence
  BVA  - Mayer's bonded valence
  FA   - Mayer's free valence

  ATOM       NA         ZA         QA         VA         BVA        FA
  0 C      5.2165     6.0000     0.7835     3.7515     3.4665     0.2851
  1 O      8.5592     8.0000    -0.5592     2.1673     1.7714     0.3959
  2 O      8.6304     8.0000    -0.6304     2.0821     1.7262     0.3559
  3 C      6.0342     6.0000    -0.0342     3.8408     3.5679     0.2729
  4 H      0.6281     1.0000     0.3719     0.8775     0.8338     0.0438
  5 C      6.3556     6.0000    -0.3556     3.9078     3.6545     0.2533
  6 H      0.8721     1.0000     0.1279     0.9626     0.9161     0.0465
  7 N      7.6857     7.0000    -0.6857     2.9279     2.6039     0.3240
  8 H      0.8775     1.0000     0.1225     0.9646     0.9179     0.0467
  9 H      0.8621     1.0000     0.1379     0.9588     0.9125     0.0463
 10 H      0.8320     1.0000     0.1680     0.9469     0.9005     0.0464
 11 H      0.7163     1.0000     0.2837     0.9098     0.8647     0.0450
 12 H      0.7303     1.0000     0.2697     0.9138     0.8681     0.0457

  Mayer bond orders larger than 0.100000
B(  0-C ,  1-O ) :   1.7170 B(  0-C ,  2-O ) :   0.9145 B(  0-C ,  3-C ) :   0.8843 
B(  2-O ,  4-H ) :   0.8045 B(  3-C ,  5-C ) :   0.8997 B(  3-C ,  7-N ) :   0.9044 
B(  3-C , 10-H ) :   0.9289 B(  5-C ,  6-H ) :   0.9311 B(  5-C ,  8-H ) :   0.9369 
B(  5-C ,  9-H ) :   0.9266 B(  7-N , 11-H ) :   0.8582 B(  7-N , 12-H ) :   0.8725 



                *******************************************
                * RELAXED MP2 DENSITY POPULATION ANALYSIS *
                *******************************************

------------------------------------------------------------------------------
                           ORCA POPULATION ANALYSIS
------------------------------------------------------------------------------
Input electron density              ... 4.pmp2re
BaseName (.gbw .S,...)              ... 4

                    ********************************
                    * MULLIKEN POPULATION ANALYSIS *
                    ********************************

-----------------------
MULLIKEN ATOMIC CHARGES
-----------------------
   0 C :    0.596717
   1 O :   -0.429989
   2 O :   -0.533184
   3 C :   -0.043281
   4 H :    0.346705
   5 C :   -0.345257
   6 H :    0.121308
   7 N :   -0.624976
   8 H :    0.115076
   9 H :    0.127769
  10 H :    0.149422
  11 H :    0.265803
  12 H :    0.253889
Sum of atomic charges:   -0.0000000

--------------------------------
MULLIKEN REDUCED ORBITAL CHARGES
--------------------------------
  0 C s       :     2.960705  s :     2.960705
      pz      :     0.730094  p :     2.294252
      px      :     0.784278
      py      :     0.779880
      dz2     :     0.027894  d :     0.148326
      dxz     :     0.033287
      dyz     :     0.020624
      dx2y2   :     0.026059
      dxy     :     0.040461
  1 O s       :     3.844119  s :     3.844119
      pz      :     1.406344  p :     4.534146
      px      :     1.744437
      py      :     1.383365
      dz2     :     0.012384  d :     0.051724
      dxz     :     0.007484
      dyz     :     0.012050
      dx2y2   :     0.010364
      dxy     :     0.009443
  2 O s       :     3.814084  s :     3.814084
      pz      :     1.701280  p :     4.672414
      px      :     1.290311
      py      :     1.680823
      dz2     :     0.009352  d :     0.046686
      dxz     :     0.010006
      dyz     :     0.007902
      dx2y2   :     0.006627
      dxy     :     0.012799
  3 C s       :     3.185742  s :     3.185742
      pz      :     1.004130  p :     2.778674
      px      :     0.974256
      py      :     0.800289
      dz2     :     0.014184  d :     0.078865
      dxz     :     0.015158
      dyz     :     0.016596
      dx2y2   :     0.015490
      dxy     :     0.017437
  4 H s       :     0.612297  s :     0.612297
      pz      :     0.009213  p :     0.040999
      px      :     0.017847
      py      :     0.013939
  5 C s       :     3.240059  s :     3.240059
      pz      :     0.970056  p :     3.053601
      px      :     1.032819
      py      :     1.050725
      dz2     :     0.011417  d :     0.051597
      dxz     :     0.013105
      dyz     :     0.006630
      dx2y2   :     0.011107
      dxy     :     0.009338
  6 H s       :     0.864051  s :     0.864051
      pz      :     0.006486  p :     0.014641
      px      :     0.005052
      py      :     0.003104
  7 N s       :     3.583315  s :     3.583315
      pz      :     1.623296  p :     3.988485
      px      :     1.235699
      py      :     1.129490
      dz2     :     0.009550  d :     0.053176
      dxz     :     0.013239
      dyz     :     0.008155
      dx2y2   :     0.010557
      dxy     :     0.011675
  8 H s       :     0.870194  s :     0.870194
      pz      :     0.003289  p :     0.014730
      px      :     0.007131
      py      :     0.004310
  9 H s       :     0.857524  s :     0.857524
      pz      :     0.003088  p :     0.014707
      px      :     0.003283
      py      :     0.008336
 10 H s       :     0.836738  s :     0.836738
      pz      :     0.006629  p :     0.013840
      px      :     0.004922
      py      :     0.002289
 11 H s       :     0.706906  s :     0.706906
      pz      :     0.011063  p :     0.027292
      px      :     0.011060
      py      :     0.005169
 12 H s       :     0.718974  s :     0.718974
      pz      :     0.008071  p :     0.027138
      px      :     0.010721
      py      :     0.008345


                     *******************************
                     * LOEWDIN POPULATION ANALYSIS *
                     *******************************

----------------------
LOEWDIN ATOMIC CHARGES
----------------------
   0 C :    0.144222
   1 O :   -0.211048
   2 O :   -0.167638
   3 C :   -0.039519
   4 H :    0.190770
   5 C :   -0.203246
   6 H :    0.071789
   7 N :   -0.270192
   8 H :    0.069806
   9 H :    0.076471
  10 H :    0.083857
  11 H :    0.128854
  12 H :    0.125875

-------------------------------
LOEWDIN REDUCED ORBITAL CHARGES
-------------------------------
  0 C s       :     2.844254  s :     2.844254
      pz      :     0.845125  p :     2.689205
      px      :     0.913215
      py      :     0.930865
      dz2     :     0.054912  d :     0.322319
      dxz     :     0.073982
      dyz     :     0.049418
      dx2y2   :     0.054818
      dxy     :     0.089190
  1 O s       :     3.545494  s :     3.545494
      pz      :     1.430083  p :     4.584271
      px      :     1.716890
      py      :     1.437298
      dz2     :     0.015382  d :     0.081284
      dxz     :     0.009969
      dyz     :     0.025236
      dx2y2   :     0.016964
      dxy     :     0.013733
  2 O s       :     3.459248  s :     3.459248
      pz      :     1.682260  p :     4.635419
      px      :     1.296284
      py      :     1.656875
      dz2     :     0.012690  d :     0.072972
      dxz     :     0.017663
      dyz     :     0.009481
      dx2y2   :     0.012288
      dxy     :     0.020850
  3 C s       :     2.874444  s :     2.874444
      pz      :     1.051048  p :     3.013773
      px      :     1.029015
      py      :     0.933710
      dz2     :     0.026556  d :     0.151302
      dxz     :     0.028230
      dyz     :     0.031583
      dx2y2   :     0.030021
      dxy     :     0.034912
  4 H s       :     0.688155  s :     0.688155
      pz      :     0.026950  p :     0.121075
      px      :     0.051772
      py      :     0.042353
  5 C s       :     2.919652  s :     2.919652
      pz      :     1.043105  p :     3.198253
      px      :     1.071665
      py      :     1.083483
      dz2     :     0.019713  d :     0.085341
      dxz     :     0.022785
      dyz     :     0.010685
      dx2y2   :     0.017508
      dxy     :     0.014649
  6 H s       :     0.883589  s :     0.883589
      pz      :     0.021158  p :     0.044622
      px      :     0.015258
      py      :     0.008207
  7 N s       :     3.184291  s :     3.184291
      pz      :     1.593100  p :     4.003204
      px      :     1.232200
      py      :     1.177904
      dz2     :     0.012236  d :     0.082697
      dxz     :     0.017793
      dyz     :     0.011759
      dx2y2   :     0.019513
      dxy     :     0.021396
  8 H s       :     0.885879  s :     0.885879
      pz      :     0.008978  p :     0.044315
      px      :     0.022748
      py      :     0.012589
  9 H s       :     0.878585  s :     0.878585
      pz      :     0.008189  p :     0.044943
      px      :     0.009067
      py      :     0.027688
 10 H s       :     0.873007  s :     0.873007
      pz      :     0.021076  p :     0.043136
      px      :     0.015598
      py      :     0.006462
 11 H s       :     0.785522  s :     0.785522
      pz      :     0.037918  p :     0.085624
      px      :     0.033320
      py      :     0.014386
 12 H s       :     0.789822  s :     0.789822
      pz      :     0.024304  p :     0.084304
      px      :     0.035095
      py      :     0.024904


                      *****************************
                      * MAYER POPULATION ANALYSIS *
                      *****************************

  NA   - Mulliken gross atomic population
  ZA   - Total nuclear charge
  QA   - Mulliken gross atomic charge
  VA   - Mayer's total valence
  BVA  - Mayer's bonded valence
  FA   - Mayer's free valence

  ATOM       NA         ZA         QA         VA         BVA        FA
  0 C      5.4033     6.0000     0.5967     3.9742     3.7062     0.2681
  1 O      8.4300     8.0000    -0.4300     2.3256     1.9445     0.3811
  2 O      8.5332     8.0000    -0.5332     2.1993     1.8516     0.3477
  3 C      6.0433     6.0000    -0.0433     3.9089     3.6401     0.2688
  4 H      0.6533     1.0000     0.3467     0.8988     0.8562     0.0427
  5 C      6.3453     6.0000    -0.3453     3.9323     3.6809     0.2514
  6 H      0.8787     1.0000     0.1213     0.9674     0.9210     0.0464
  7 N      7.6250     7.0000    -0.6250     2.9929     2.6730     0.3200
  8 H      0.8849     1.0000     0.1151     0.9668     0.9201     0.0467
  9 H      0.8722     1.0000     0.1278     0.9625     0.9163     0.0462
 10 H      0.8506     1.0000     0.1494     0.9531     0.9066     0.0465
 11 H      0.7342     1.0000     0.2658     0.9219     0.8770     0.0449
 12 H      0.7461     1.0000     0.2539     0.9214     0.8757     0.0457

  Mayer bond orders larger than 0.100000
B(  0-C ,  1-O ) :   1.8382 B(  0-C ,  2-O ) :   0.9937 B(  0-C ,  3-C ) :   0.8911 
B(  2-O ,  4-H ) :   0.8106 B(  3-C ,  5-C ) :   0.9110 B(  3-C ,  7-N ) :   0.9396 
B(  3-C , 10-H ) :   0.9208 B(  5-C ,  6-H ) :   0.9291 B(  5-C ,  8-H ) :   0.9323 
B(  5-C ,  9-H ) :   0.9224 B(  7-N , 11-H ) :   0.8614 B(  7-N , 12-H ) :   0.8738 



----------------------------------
MP2 DERIVATIVE INTEGRAL GENERATION
----------------------------------

Input SCF Electron Density              ... 4.scfp
Input Correlated Electron Density       ... 4.pmp2re
Input Energy Weighted Density           ... 4.wmp2.tmp
Input Wavefunction Amplitudes           ... 4.mp2tsaa.tmp

Nuclear repulsion gradient              ... done (  0.0 sec)
HCore & Overlap gradient  (SHARK)       ... done (  0.0 sec)
Analytic two-electron gradient terms    ... 
  Batch handling in the gradient evaluation:
  General contraction                   ... not used
  Memory available                      ... 4089.5 MB
  Memory per occupied orbital in Q2     ...    1.9 MB
  Memory per occupied orbital in Q3     ...    0.0 MB
  Total memory requirement per |i>      ...    2.0 MB
  Number of orbitals treated per batch  ...     18
  Number of batches to be done          ...      1
done (  3.5 sec)

---------------------------------------
MP2 TOTAL ENERGY:     -322.814901568 Eh
---------------------------------------

The final MP2 gradient
  0:   0.01186005   0.01478290   0.00035123
  1:   0.00131548  -0.02791233  -0.02167677
  2:  -0.01310406   0.01694762   0.01870482
  3:   0.00099992  -0.00378711   0.00901749
  4:   0.00460292  -0.00320994  -0.00383809
  5:  -0.00074473   0.00110036  -0.00452854
  6:  -0.00048044   0.00027912   0.00042071
  7:  -0.00415937   0.00674870  -0.00366667
  8:   0.00115088   0.00043720   0.00051379
  9:   0.00154150  -0.00258106   0.00100932
 10:  -0.00446416  -0.00218179   0.00200304
 11:   0.00209362  -0.00018818   0.00076595
 12:  -0.00061162  -0.00043548   0.00092373

-----------------------------------
NORM OF THE MP2 GRADIENT:  0.052036
-----------------------------------

Maximum memory used throughout the entire MP2-calculation: 135.2 MB

-------------------------   --------------------
FINAL SINGLE POINT ENERGY      -322.814901567911
-------------------------   --------------------

------------------------------------------------------------------------------
                         ORCA GEOMETRY RELAXATION STEP
------------------------------------------------------------------------------

Reading the OPT-File                    .... done
Getting information on internals        .... done
Copying old internal coords+grads       .... done
Making the new internal coordinates     .... (2022 redundants) done
Validating the new internal coordinates .... (2022 redundants) done
Calculating the B-matrix                .... done
Calculating the G,G- and P matrices     .... done
Transforming gradient to internals      .... done
Projecting the internal gradient        .... done
Number of atoms                         ....  13
Number of internal coordinates          ....  50
Current Energy                          ....  -322.814901568 Eh
Current gradient norm                   ....     0.052035808 Eh/bohr
Maximum allowed component of the step   ....  0.300
Current trust radius                    ....  0.300
Evaluating the initial hessian          ....  (Almloef) done
Projecting the Hessian                  .... done
Forming the augmented Hessian           .... done
Diagonalizing the augmented Hessian     .... done
Last element of RFO vector              ....  0.994863874
Lowest eigenvalues of augmented Hessian:
 -0.002992683  0.010274671  0.011152089  0.015576019  0.018659264
Length of the computed step             ....  0.101744469
The final length of the internal step   ....  0.101744469
Converting the step to Cartesian space:
 Initial RMS(Int)=    0.0143888408
Transforming coordinates:
 Iter   0:  RMS(Cart)=    0.0147497943 RMS(Int)=    0.0143632499
done
Storing new coordinates                 .... done

                                .--------------------.
          ----------------------|Geometry convergence|-------------------------
          Item                value                   Tolerance       Converged
          ---------------------------------------------------------------------
          RMS gradient        0.0063203464            0.0001000000      NO
          MAX gradient        0.0352698153            0.0003000000      NO
          RMS step            0.0143888408            0.0020000000      NO
          MAX step            0.0394684170            0.0040000000      NO
          -------------------------------------------------------------------------
          ........................................................
          Max(Bonds)      0.0166      Max(Angles)    1.87
          Max(Dihed)        2.26      Max(Improp)    0.00
          ---------------------------------------------------------------------

The optimization has not yet converged - more geometry cycles are needed


    ---------------------------------------------------------------------------
                         Redundant Internal Coordinates
                            (Angstroem and degrees)

        Definition                    Value    dE/dq     Step     New-Value
    ----------------------------------------------------------------------------
     1. B(O   1,C   0)                1.2004 -0.035270  0.0166    1.2170   
     2. B(O   2,C   0)                1.3376 -0.018977  0.0146    1.3522   
     3. B(C   3,C   0)                1.5189  0.001583 -0.0040    1.5149   
     4. B(H   4,O   2)                0.9701  0.001038 -0.0011    0.9690   
     5. B(C   5,C   3)                1.5419  0.001219 -0.0018    1.5401   
     6. B(H   6,C   5)                1.0888 -0.000654  0.0009    1.0897   
     7. B(N   7,C   3)                1.4497 -0.007599  0.0076    1.4573   
     8. B(H   8,C   5)                1.0882 -0.001289  0.0019    1.0901   
     9. B(H   9,C   5)                1.0868 -0.002708  0.0039    1.0907   
    10. B(H  10,C   3)                1.0957  0.004032 -0.0060    1.0897   
    11. B(H  11,O   2)                2.3615  0.001606 -0.0028    2.3587   
    12. B(H  11,N   7)                1.0143  0.001195 -0.0012    1.0131   
    13. B(H  12,N   7)                1.0139  0.000503 -0.0006    1.0133   
    14. A(O   1,C   0,C   3)          124.84 -0.000192    0.22    125.06   
    15. A(O   2,C   0,C   3)          112.57  0.006288   -1.19    111.38   
    16. A(O   1,C   0,O   2)          122.52 -0.006046    0.89    123.41   
    17. A(C   0,O   2,H   4)          110.10  0.012293   -1.87    108.23   
    18. A(C   0,C   3,H  10)          107.52  0.003834   -1.27    106.25   
    19. A(C   0,C   3,N   7)          110.30 -0.000441   -0.15    110.14   
    20. A(C   0,C   3,C   5)          106.92 -0.002299    0.82    107.74   
    21. A(C   5,C   3,N   7)          114.51 -0.000262    0.62    115.13   
    22. A(N   7,C   3,H  10)          108.23 -0.000611    0.07    108.31   
    23. A(C   5,C   3,H  10)          109.14  0.000098   -0.21    108.92   
    24. A(H   8,C   5,H   9)          108.76  0.001342   -0.20    108.56   
    25. A(H   6,C   5,H   9)          108.99  0.000374   -0.01    108.98   
    26. A(C   3,C   5,H   6)          110.06  0.000642   -0.13    109.93   
    27. A(C   3,C   5,H   9)          110.34 -0.002412    0.48    110.82   
    28. A(H   6,C   5,H   8)          108.88  0.000078   -0.12    108.76   
    29. A(C   3,C   5,H   8)          109.78  0.000017   -0.02    109.76   
[...]
MULLIKEN REDUCED ORBITAL CHARGES
--------------------------------
  0 C s       :     2.969599  s :     2.969599
      pz      :     0.719009  p :     2.285171
      px      :     0.792589
      py      :     0.773573
      dz2     :     0.029642  d :     0.141778
      dxz     :     0.036075
      dyz     :     0.020230
      dx2y2   :     0.022198
      dxy     :     0.033633
  1 O s       :     3.857448  s :     3.857448
      pz      :     1.403223  p :     4.525603
      px      :     1.739016
      py      :     1.383365
      dz2     :     0.012921  d :     0.050926
      dxz     :     0.008249
      dyz     :     0.011740
      dx2y2   :     0.009560
      dxy     :     0.008456
  2 O s       :     3.828145  s :     3.828145
      pz      :     1.670908  p :     4.661364
      px      :     1.308823
      py      :     1.681634
      dz2     :     0.009524  d :     0.047372
      dxz     :     0.011093
      dyz     :     0.008397
      dx2y2   :     0.006462
      dxy     :     0.011896
  3 C s       :     3.187075  s :     3.187075
      pz      :     1.007609  p :     2.785320
      px      :     0.971140
      py      :     0.806570
      dz2     :     0.014316  d :     0.078451
      dxz     :     0.015499
      dyz     :     0.015885
      dx2y2   :     0.015199
      dxy     :     0.017552
  4 H s       :     0.614654  s :     0.614654
      pz      :     0.009579  p :     0.040852
      px      :     0.017020
      py      :     0.014253
  5 C s       :     3.239070  s :     3.239070
      pz      :     0.970025  p :     3.052804
      px      :     1.032330
      py      :     1.050449
      dz2     :     0.011545  d :     0.051584
      dxz     :     0.013161
      dyz     :     0.006524
      dx2y2   :     0.010704
      dxy     :     0.009650
  6 H s       :     0.860813  s :     0.860813
      pz      :     0.006435  p :     0.014645
      px      :     0.005120
      py      :     0.003090
  7 N s       :     3.596756  s :     3.596756
      pz      :     1.586212  p :     3.967554
      px      :     1.267210
      py      :     1.114131
      dz2     :     0.011441  d :     0.053853
      dxz     :     0.011796
      dyz     :     0.008029
      dx2y2   :     0.010325
      dxy     :     0.012261
  8 H s       :     0.869346  s :     0.869346
      pz      :     0.003275  p :     0.014686
      px      :     0.007037
      py      :     0.004373
  9 H s       :     0.858516  s :     0.858516
      pz      :     0.003007  p :     0.014648
      px      :     0.003340
      py      :     0.008300
 10 H s       :     0.836078  s :     0.836078
      pz      :     0.006660  p :     0.013988
      px      :     0.004952
      py      :     0.002375
 11 H s       :     0.709204  s :     0.709204
      pz      :     0.011650  p :     0.027071
      px      :     0.010247
      py      :     0.005174
 12 H s       :     0.718597  s :     0.718597
      pz      :     0.007705  p :     0.027030
      px      :     0.011074
      py      :     0.008250


                     *******************************
                     * LOEWDIN POPULATION ANALYSIS *
                     *******************************

----------------------
LOEWDIN ATOMIC CHARGES
----------------------
   0 C :    0.164310
   1 O :   -0.216800
   2 O :   -0.183591
   3 C :   -0.041200
   4 H :    0.188642
   5 C :   -0.203234
   6 H :    0.073389
   7 N :   -0.267949
   8 H :    0.071002
   9 H :    0.077188
  10 H :    0.083556
  11 H :    0.128581
  12 H :    0.126107

-------------------------------
LOEWDIN REDUCED ORBITAL CHARGES
-------------------------------
  0 C s       :     2.853739  s :     2.853739
      pz      :     0.861002  p :     2.676904
      px      :     0.913092
      py      :     0.902809
      dz2     :     0.058909  d :     0.305048
      dxz     :     0.080325
      dyz     :     0.048237
      dx2y2   :     0.044957
      dxy     :     0.072620
  1 O s       :     3.559749  s :     3.559749
      pz      :     1.437424  p :     4.578158
      px      :     1.715920
      py      :     1.424813
      dz2     :     0.016587  d :     0.078894
      dxz     :     0.011147
      dyz     :     0.024993
      dx2y2   :     0.014318
      dxy     :     0.011848
  2 O s       :     3.481201  s :     3.481201
      pz      :     1.660728  p :     4.630955
      px      :     1.312667
      py      :     1.657560
      dz2     :     0.012518  d :     0.071436
      dxz     :     0.019284
      dyz     :     0.009945
      dx2y2   :     0.011068
      dxy     :     0.018621
  3 C s       :     2.874055  s :     2.874055
      pz      :     1.053761  p :     3.016954
      px      :     1.030446
      py      :     0.932747
      dz2     :     0.026847  d :     0.150191
      dxz     :     0.028999
      dyz     :     0.029922
      dx2y2   :     0.029397
      dxy     :     0.035025
  4 H s       :     0.690586  s :     0.690586
      pz      :     0.028047  p :     0.120771
      px      :     0.049765
      py      :     0.042959
  5 C s       :     2.918240  s :     2.918240
      pz      :     1.043747  p :     3.199384
      px      :     1.072074
      py      :     1.083563
      dz2     :     0.020081  d :     0.085610
      dxz     :     0.023004
      dyz     :     0.010551
      dx2y2   :     0.016813
      dxy     :     0.015162
  6 H s       :     0.882030  s :     0.882030
      pz      :     0.020937  p :     0.044581
      px      :     0.015463
      py      :     0.008181
  7 N s       :     3.198246  s :     3.198246
      pz      :     1.559704  p :     3.987197
      px      :     1.263938
      py      :     1.163555
      dz2     :     0.014980  d :     0.082506
      dxz     :     0.015786
      dyz     :     0.011419
      dx2y2   :     0.018493
      dxy     :     0.021828
  8 H s       :     0.884922  s :     0.884922
      pz      :     0.008918  p :     0.044077
      px      :     0.022356
      py      :     0.012804
  9 H s       :     0.878434  s :     0.878434
      pz      :     0.007946  p :     0.044378
      px      :     0.009145
      py      :     0.027287
 10 H s       :     0.872567  s :     0.872567
      pz      :     0.021287  p :     0.043878
      px      :     0.015713
      py      :     0.006878
 11 H s       :     0.786571  s :     0.786571
      pz      :     0.040328  p :     0.084848
      px      :     0.030105
      py      :     0.014415
 12 H s       :     0.789997  s :     0.789997
      pz      :     0.022620  p :     0.083895
      px      :     0.036647
      py      :     0.024628


                      *****************************
                      * MAYER POPULATION ANALYSIS *
                      *****************************

  NA   - Mulliken gross atomic population
  ZA   - Total nuclear charge
  QA   - Mulliken gross atomic charge
  VA   - Mayer's total valence
  BVA  - Mayer's bonded valence
  FA   - Mayer's free valence

  ATOM       NA         ZA         QA         VA         BVA        FA
  0 C      5.3965     6.0000     0.6035     3.9497     3.6745     0.2752
  1 O      8.4340     8.0000    -0.4340     2.3267     1.9385     0.3882
  2 O      8.5369     8.0000    -0.5369     2.1960     1.8433     0.3527
  3 C      6.0508     6.0000    -0.0508     3.9076     3.6380     0.2696
  4 H      0.6555     1.0000     0.3445     0.9012     0.8577     0.0435
  5 C      6.3435     6.0000    -0.3435     3.9330     3.6823     0.2507
  6 H      0.8755     1.0000     0.1245     0.9668     0.9205     0.0463
  7 N      7.6182     7.0000    -0.6182     2.9991     2.6775     0.3217
  8 H      0.8840     1.0000     0.1160     0.9663     0.9195     0.0468
  9 H      0.8732     1.0000     0.1268     0.9620     0.9157     0.0463
 10 H      0.8501     1.0000     0.1499     0.9531     0.9067     0.0465
 11 H      0.7363     1.0000     0.2637     0.9211     0.8758     0.0453
 12 H      0.7456     1.0000     0.2544     0.9200     0.8741     0.0459

  Mayer bond orders larger than 0.100000
B(  0-C ,  1-O ) :   1.8262 B(  0-C ,  2-O ) :   0.9812 B(  0-C ,  3-C ) :   0.8890 
B(  2-O ,  4-H ) :   0.8128 B(  3-C ,  5-C ) :   0.9137 B(  3-C ,  7-N ) :   0.9415 
B(  3-C , 10-H ) :   0.9216 B(  5-C ,  6-H ) :   0.9280 B(  5-C ,  8-H ) :   0.9316 
B(  5-C ,  9-H ) :   0.9229 B(  7-N , 11-H ) :   0.8628 B(  7-N , 12-H ) :   0.8731 



----------------------------------
MP2 DERIVATIVE INTEGRAL GENERATION
----------------------------------

Input SCF Electron Density              ... 4.scfp
Input Correlated Electron Density       ... 4.pmp2re
Input Energy Weighted Density           ... 4.wmp2.tmp
Input Wavefunction Amplitudes           ... 4.mp2tsaa.tmp

Nuclear repulsion gradient              ... done (  0.0 sec)
HCore & Overlap gradient  (SHARK)       ... done (  0.0 sec)
Analytic two-electron gradient terms    ... 
  Batch handling in the gradient evaluation:
  General contraction                   ... not used
  Memory available                      ... 4089.0 MB
  Memory per occupied orbital in Q2     ...    1.9 MB
  Memory per occupied orbital in Q3     ...    0.0 MB
  Total memory requirement per |i>      ...    2.0 MB
  Number of orbitals treated per batch  ...     18
  Number of batches to be done          ...      1
done (  3.4 sec)

---------------------------------------
MP2 TOTAL ENERGY:     -322.817182121 Eh
---------------------------------------

The final MP2 gradient
  0:  -0.00003850  -0.00008097  -0.00010016
  1:   0.00002729   0.00008923   0.00007108
  2:   0.00000341  -0.00002935  -0.00003506
  3:   0.00003801   0.00006586   0.00009775
  4:  -0.00000800   0.00002237   0.00002368
  5:  -0.00001933  -0.00000372  -0.00002495
  6:   0.00000108   0.00001037   0.00000097
  7:   0.00003005  -0.00003329   0.00001686
  8:   0.00000131   0.00000200  -0.00001270
  9:   0.00001542   0.00000571   0.00000271
 10:  -0.00002784  -0.00004429  -0.00002861
 11:  -0.00001611  -0.00001172  -0.00001042
 12:  -0.00000680   0.00000781  -0.00000114

-----------------------------------
NORM OF THE MP2 GRADIENT:  0.000242
-----------------------------------

Maximum memory used throughout the entire MP2-calculation: 135.6 MB

-------------------------   --------------------
FINAL SINGLE POINT ENERGY      -322.817182120600
-------------------------   --------------------

                                *** OPTIMIZATION RUN DONE ***


------------------------------------------------------------------------------
                              ORCA PROPERTY CALCULATIONS
------------------------------------------------------------------------------

GBWName                                 ... 4.gbw
Number of atoms                         ...     13
Number of basis functions               ...    119
Max core memory                         ...   4096 MB

Electric properties:
Dipole moment                           ... YES
Quadrupole moment                       ...  NO
Static polarizability (Dipole/Dipole)   ...  NO
Static polarizability (Dipole/Quad.)    ...  NO
Static polarizability (Quad./Quad.)     ...  NO
Static polarizability (Velocity)        ...  NO
Static hyperpolarizability              ...  NO

Atomic electric properties:
Dipole moment                           ...  NO
Quadrupole moment                       ...  NO
Static polarizability                   ...  NO

Choice of electric origin               ... Center of mass
Position of electric origin             ...    -9.768145    -0.410241    -3.629092

General magnetic properties:
Magnetizability                         ...  NO

EPR properties:
g-Tensor (aka g-matrix)                 ...  NO
Zero-Field splitting spin-orbit         ...  NO
Zero-field splitting spin-spin          ...  NO
Hyperfine couplings                     ...  NO (   0 nuclei)
Quadrupole couplings                    ...  NO (   0 nuclei)
Contact density                         ...  NO (   0 nuclei)

NMR properties:
Chemical shifts                         ...  NO (   0 nuclei)
Spin-rotation constants                 ...  NO (   0 nuclei)
Spin-spin couplings                     ...  NO (   0 nuclei,    0 pairs)

Choice of magnetic origin               ... GIAO
Position of magnetic origin             ...     0.000000     0.000000     0.000000

Properties with geometric perturbations:
SCF Hessian                             ...  NO
IR spectrum                             ...  NO
VCD spectrum                            ...  NO
X-ray spectroscopy properties:
SCF XES/XAS/RIXS spectra                ...  NO

SCF SOC stabilization energy            ...  NO
Diagonal Born-Oppenheimer correction    ...  NO

-------------
DIPOLE MOMENT
-------------

Method             : SCF
Type of density    : Electron Density
Multiplicity       :   1
Irrep              :   0
Energy             :  -321.8784806957427236 Eh
Basis              : AO
                                X                 Y                 Z
Electronic contribution:      4.462325060       2.187639853       3.266356158
Nuclear contribution   :     -4.770825104      -2.574891939      -4.328488632
                        -----------------------------------------
Total Dipole Moment    :     -0.308500043      -0.387252085      -1.062132474
                        -----------------------------------------
Magnitude (a.u.)       :      1.171862555
Magnitude (Debye)      :      2.978637897



--------------------
Rotational spectrum 
--------------------
 
Rotational constants in cm-1:             0.167804             0.095077             0.084414 
Rotational constants in MHz :          5030.636813          2850.326445          2530.669620 

Dipole components along the rotational axes: 
x,y,z [a.u.] :    -0.868547     0.070818    -0.783500 
x,y,z [Debye]:    -2.207671     0.180006    -1.991500 

 

-------------
DIPOLE MOMENT
-------------

Method             : MP2
Type of density    : Electron Density
Multiplicity       :   1
Level              : Unrelaxed density
Irrep              :   0
Energy             :     0.0000000000000000 Eh
Basis              : AO
                                X                 Y                 Z
Electronic contribution:      4.477614854       2.209562573       3.289977407
Nuclear contribution   :     -4.770825104      -2.574891939      -4.328488632
                        -----------------------------------------
Total Dipole Moment    :     -0.293210250      -0.365329366      -1.038511225
                        -----------------------------------------
Magnitude (a.u.)       :      1.139273172
Magnitude (Debye)      :      2.895802271



--------------------
Rotational spectrum 
--------------------
 
Rotational constants in cm-1:             0.167804             0.095077             0.084414 
Rotational constants in MHz :          5030.636813          2850.326445          2530.669620 

Dipole components along the rotational axes: 
x,y,z [a.u.] :    -0.835300     0.064896    -0.772014 
x,y,z [Debye]:    -2.123165     0.164952    -1.962303 

 

-------------
DIPOLE MOMENT
-------------

Method             : MP2
Type of density    : Electron Density
Multiplicity       :   1
Level              : Relaxed density
Irrep              :   0
Energy             :     0.0000000000000000 Eh
Basis              : AO
                                X                 Y                 Z
Electronic contribution:      4.566947690       2.305474527       3.397507340
Nuclear contribution   :     -4.770825104      -2.574891939      -4.328488632
                        -----------------------------------------
Total Dipole Moment    :     -0.203877413      -0.269417412      -0.930981293
                        -----------------------------------------
Magnitude (a.u.)       :      0.990392805
Magnitude (Debye)      :      2.517378452



--------------------
Rotational spectrum 
--------------------
 
Rotational constants in cm-1:             0.167804             0.095077             0.084414 
Rotational constants in MHz :          5030.636813          2850.326445          2530.669620 

Dipole components along the rotational axes: 
x,y,z [a.u.] :    -0.672863     0.053945    -0.724722 
x,y,z [Debye]:    -1.710283     0.137118    -1.842098 

 

Dipole moment calculation done in   0.0 sec 

Maximum memory used throughout the entire PROP-calculation: 5.5 MB

--------------------------------
SUGGESTED CITATIONS FOR THIS RUN
--------------------------------

Below you find a list of papers that are relevant to this ORCA run
We neither can nor want to force you to cite these papers, but we appreciate if you do
You receive ORCA, which is the product of decades of hard work by many enthusiastic individuals, for free
The only thing we kindly ask in return is that you cite our papers,
We deeply appreciate it, if you show your appreciation for ORCA by not just citing the generic ORCA reference.

Please note that relegating all ORCA citations to the supporting information does *not* help us.
SI sections are not indexed - citations you put there will not count into any citation statistics
But we need these citations in order to attract the funding resources that allow us to do what we are doing

Therefore, if you are a happy ORCA user, please consider citing a few of the papers listed below in the main body of your paper

In addition to the list printed below, the program has created the file 4.bibtex that contains the list in bibtex format
You can import this file easily into all common literature databanks and citation aid programs


List of essential papers. We consider these as the minimum necessary citations

  1. Neese, F.
     Software update: the ORCA program system, version 6.0
     WIRES Comput. Molec. Sci. 2025 15(1), e70019
     doi.org/10.1002/wcms.7019

List of papers to cite with high priority. The work reported in these papers was absolutely
necessary for this run to complete.
Our perspective: the developers of density functionals and basis sets usually get cited in chemistry papers
Good! But without the algorithms to do something with them, the functionals or basis sets would not do anything.
Hence, in our opinion, the algorithm design and method developments papers are equally worthy of getting cited

  1. Neese, F.
     The SHARK Integral Generation and Digestion System
     J. Comp. Chem. 2022 44(3), 381
     doi.org/10.1002/jcc.26942

List of suggested additional citations. These are papers that are important in the 'surrounding' of 
of this run, or papers that preceded the highly important papers. If you like your results we are grateful for a citation.

  1. Neese, F.
     The ORCA program system
     WIRES Comput. Molec. Sci. 2012 2(1), 73-78
     doi.org/10.1002/wcms.81
  2. Neese, F.
     Software update: the ORCA program system, version 4.0
     WIRES Comput. Molec. Sci. 2018 8(1), 1-6
     doi.org/10.1002/wcms.1327
  3. Neese, F.; Wennmohs, F.; Becker, U.; Riplinger, C.
     The ORCA quantum chemistry program package
     J. Chem. Phys. 2020 152(22), 224108
     doi.org/10.1063/5.0004608
  4. Neese, F.
     Software update: The ORCA program system—Version 5.0
     WIRES Comput. Molec. Sci. 2022 12(1), e1606
     doi.org/10.1002/wcms.1606

List of optional additional citations

  1. Neese, F.
     Approximate second-order SCF convergence for spin unrestricted wavefunctions
     Chem. Phys. Lett. 2000 325(1-3), 93-98
     doi.org/10.1016/s0009-2614(00)00662-x

Timings for individual modules:

Sum of individual times          ...      162.270 sec (=   2.705 min)
Startup calculation              ...        2.426 sec (=   0.040 min)   1.5 %
SCF iterations                   ...       42.344 sec (=   0.706 min)  26.1 %
Property calculations            ...        0.032 sec (=   0.001 min)   0.0 %
MP2 module                       ...      117.459 sec (=   1.958 min)  72.4 %
Geometry relaxation              ...        0.009 sec (=   0.000 min)   0.0 %
                             ****ORCA TERMINATED NORMALLY****
TOTAL RUN TIME: 0 days 0 hours 2 minutes 42 seconds 458 msec
