
                                 *****************
                                 * O   R   C   A *
                                 *****************

                                            #,                                       
                                            ###                                      
                                            ####                                     
                                            #####                                    
                                            ######                                   
                                           ########,                                 
                                     ,,################,,,,,                         
                               ,,#################################,,                 
                          ,,##########################################,,             
                       ,#########################################, ''#####,          
                    ,#############################################,,   '####,        
                  ,##################################################,,,,####,       
                ,###########''''           ''''###############################       
              ,#####''   ,,,,##########,,,,          '''####'''          '####       
            ,##' ,,,,###########################,,,                        '##       
           ' ,,###''''                  '''############,,,                           
         ,,##''                                '''############,,,,        ,,,,,,###''
      ,#''                                            '''#######################'''  
     '                                                          ''''####''''         
             ,#######,   #######,   ,#######,      ##                                
            ,#'     '#,  ##    ##  ,#'     '#,    #''#        ,####,    ,#,          
            ##       ##  ##   ,#'  ##            #'  '#       #'       ,# #          
            ##       ##  #######   ##           ,######,      #####,      #          
            '#,     ,#'  ##    ##  '#,     ,#' ,#      #,     #,   #      #          
             '#######'   ##     ##  '#######'  #'      '#     '####' #    #          



                #########################################################
                #                        -***-                          #
                #          Department of theory and spectroscopy        #
                #                                                       #
                #                      Frank Neese                      #
                #                                                       #
                #     Directorship, Architecture, Infrastructure        #
                #                    SHARK, DRIVERS                     #
                #        Core code/Algorithms in most modules           #
                #                                                       #
                #        Max Planck Institute fuer Kohlenforschung      #
                #                Kaiser Wilhelm Platz 1                 #
                #                 D-45470 Muelheim/Ruhr                 #
                #                      Germany                          #
                #                                                       #
                #                  All rights reserved                  #
                #                        -***-                          #
                #########################################################


                         Program Version 6.1.0  -  RELEASE   -
                                (GIT: $679e74b$)
                          ($2025-06-10 18:02:51 +0200$)


 With contributions from (in alphabetic order):
[Max-Planck-Institut fuer Kohlenforschung]                               
  Daniel Aravena         : Magnetic Suceptibility                        
  Michael Atanasov       : Ab Initio Ligand Field Theory (pilot matlab implementation)
  Alexander A. Auer      : GIAO ZORA, VPT2 properties, NMR spectrum      
  Ute Becker             : All parallelization in ORCA, NUMFREQ, NUMCALC 
  Giovanni Bistoni       : ED, misc. LED, open-shell LED, HFLD           
  Dmytro Bykov           : pre 5.0 version of the SCF Hessian            
  Marcos Casanova-Páez   : Triplet and SCS-CIS(D). UHF-(DLPNO)-IP/EA/STEOM-CCSD. UHF-CVS-IP/STEOM-CCSD   
  Vijay G. Chilkuri      : MRCI spin determinant printing, contributions to CSF-ICE 
  Pauline Colinet        : FMM embedding                                 
  Dipayan Datta          : RHF DLPNO-CCSD density                        
  Achintya Kumar Dutta   : EOM-CC, STEOM-CC                              
  Nicolas Foglia         : Exact transition moments, OPA infrastructure, MCD improvements    
  Dmitry Ganyushin       : Spin-Orbit,Spin-Spin,Magnetic field MRCI      
  Miquel Garcia-Rates    : C-PCM and meta-GGA Hessian, CCSD/C-PCM, Gaussian charge scheme 
  Tiago L. C. Gouveia    : GS-ROHF, GS-ROCIS                             
  Yang Guo               : DLPNO-NEVPT2, F12-NEVPT2, CIM, IAO-localization        
  Andreas Hansen         : Spin unrestricted coupled pair/coupled cluster methods 
  Ingolf Harden          : AUTO-CI MPn and infrastructure                
  Benjamin Helmich-Paris : MC-RPA, TRAH-(SCF,CASSCF), AVAS, COSX integrals, SCF dyn. polar., MC-PDFT, srDFT 
  Lee Huntington         : MR-EOM, pCC                                   
  Robert Izsak           : Overlap fitted RIJCOSX, COSX-SCS-MP3, EOM     
  Riya Kayal             : Wick's Theorem for AUTO-CI, AUTO-CI UHF-CCSDT 
  Emily Kempfer          : AUTO-CI RHF CISDT and CCSDT, approximate NEVPT4
  Christian Kollmar      : KDIIS, OOCD, Brueckner-CCSD(T), CCSD density, CASPT2, CASPT2-K, improved NEVPT2 
  Axel Koslowski         : Symmetry handling                             
  Simone Kossmann        : meta-GGA functionals, TD-DFT gradient, OOMP2, (MP2 Hessian; deprecated post 5.0) 
  Lucas Lang             : DCDCAS, Hyperfine gauge corrections, ICE-SOC+SSC
  Marvin Lechner         : AUTO-CI (C++ implementation), FIC-MRCC        
  Spencer Leger          : CASSCF response                               
  Dagmar Lenk            : GEPOL surface, SMD, ORCA-2-JSON               
  Dimitrios Liakos       : Extrapolation schemes; Compound Job, Property file
  Dimitrios Manganas     : Further ROCIS development; embedding schemes. LFT, Crystal Embedding 
  Dimitrios Pantazis     : SARC Basis sets                               
  Anastasios Papadopoulos: AUTO-CI, single reference methods and gradients 
  Taras Petrenko         : pre 6.0 DFT Hessian and TD-DFT gradient,  ECA, NRVS 
  Petra Pikulova         : Analytic Raman intensities                    
  Peter Pinski           : DLPNO-MP2, DLPNO-MP2 Gradient                 
  Shashank Vittal Rao    : ES-AILFT, MagRelax                            
  Christoph Reimann      : Effective Core Potentials                     
  Marius Retegan         : Local ZFS, SOC                                
  Christoph Riplinger    : Optimizer, TS searches, QM/MM, DLPNO-CCSD(T), (RO)-DLPNO pert. Triples 
  Michael Roemelt        : Original ROCIS implementation, recursive CI coupling coefficients
  Masaaki Saitow         : Open-shell DLPNO-CCSD energy and density      
  Barbara Sandhoefer     : DKH picture change effects                    
  Yorick L. A. Schmerwitz: GMF and freeze-and-release deltaSCF, NEB S-IDPP initial path                    
  Kantharuban Sivalingam : CASSCF convergence/infrastructure, NEVPT2, NEVPT3, NEVPT4(SD), FIC-MRCI and CEPA variants
  Bernardo de Souza      : ESD, SOC TD-DFT                               
  Georgi L. Stoychev     : AutoAux, RI-MP2 NMR, DLPNO-MP2 response, X2C  
  Van Anh Tran           : RI-MP2 g-tensors                              
  Willem Van den Heuvel  : Paramagnetic NMR                              
  Zikuan Wang            : NOTCH, Electric field optimization            
  Frank Wennmohs         : Technical directorship and infrastructure     
  Hang Xu                : AUTO-CI-Response properties                   
                                                                         
[FACCTs GmbH]                                                            
  Markus Bursch, Nicolas Foglia, Miquel Garcia-Rates, Ingolf Harden, Hagen Neugebauer, Anastasios Papadopoulos, 
  Christoph Riplinger, Bernardo de Souza, Georgi L. Stoychev                                                    
                                                                 
  APM, various basis sets, CI-OPT, improved COSX, DLPNO-Multilevel,           
  DOCKER, DRACO, updates on ESD, Fragmentator, GOAT, IRC, LR-CPCM, L-BFGS, MBIS, meta-GGA TD-DFT gradient, ML-optimized integration grids, 
  MM, NACMEs, nearIR, NEB, NEB-TS, NL-DFT gradient (VV10), 2- and 3-layer-ONIOM, interface openCOSMO-RS, QMMM,   
  Crystal-QMMM, RESP, rigid body optimization, SF, symmetry and pop. for TD-DFT, various functionals, SOLVATOR                                   
                                                                         
[Other institutions]                                                     
  V. Asgeirsson          : NEB                                           
  Christoph Bannwarth    : sTDA-DFT, sTD-DFT, PBEh-3c, B97-3c, D3        
  Giovanni Bistoni       : ETS/NOCV, ADLD/ADEX, COVALED                  
  Martin Brehm           : Molecular dynamics                            
  Ronald Cardenas        : ETS/NOCV                                      
  Martina Colucci        : COVALED                                       
  Sebastian Ehlert       : rSCAN, r2SCAN, r2SCAN-3c, D4, dhf basis sets  
  Marvin Friede          : D4 for Fr, Ra, Ac-Lr                          
  Lars Goerigk           : TD-DFT with DH, B97 family of functionals     
  Stefan Grimme          : VdW corrections, initial TS optimization, DFT functionals, gCP, sTDA/sTD-DF 
  Waldemar Hujo          : DFT-NL                                        
  H. Jonsson             : NEB                                           
  Holger Kruse           : gCP                                           
  Marcel Mueller         : wB97X-3c, vDZP basis set                      
  Hagen Neugebauer       : wr2SCAN, Native XTB                           
  Gianluca Regni         : ADLD/ADEX                                     
  Tobias Risthaus        : pre 6.0 range-separated hybrid DFT and stability analysis
  Lukas Wittmann         : regularized MP2, r2SCAN double-hybrids, wr2SCAN        
                                                                         
We gratefully acknowledge several colleagues who have allowed us to      
interface, adapt or use parts of their codes:                            
  Ed Valeev, F. Pavosevic, A. Kumar             : LibInt (2-el integral package), F12 methods 
  Garnet Chan, S. Sharma, J. Yang, R. Olivares  : DMRG                   
  Ulf Ekstrom                                   : XCFun DFT Library      
  Mihaly Kallay                                 : mrcc  (arbitrary order and MRCC methods)
  Frank Weinhold                                : gennbo (NPA and NBO analysis)           
  Simon Mueller                                 : openCOSMO-RS                            
  Christopher J. Cramer and Donald G. Truhlar   : smd solvation model                     
  S Lehtola, MJT Oliveira, MAL Marques          : LibXC Library                           
  Liviu Ungur et al                             : ANISO software                          


 Your calculation uses the libint2 library for the computation of 2-el integrals
 For citations please refer to: http://libint.valeyev.net

 Your ORCA version has been built with support for libXC version: 7.0.0
 For citations please refer to: https://libxc.gitlab.io

 This ORCA versions uses:
   CBLAS   interface :  Fast vector & matrix operations
   LAPACKE interface :  Fast linear algebra routines
   SCALAPACK package :  Parallel linear algebra routines
   Shared memory     :  Shared parallel matrices
   BLAS/LAPACK       :  OpenBLAS 0.3.29  USE64BITINT DYNAMIC_ARCH NO_AFFINITY Haswell SINGLE_THREADED
        Core in use  :  Haswell
   Copyright (c) 2011-2014, The OpenBLAS Project


  ***********************************
  * Starting time: Thu Aug 14 01:07:55 2025
  * Host name:     CHEMLAB02
  * Process ID:    1543595
  * Working dir.:  /home/vivek/mm-project/vivek/MP2/i/5
  ***********************************



***************************************
The coordinates will be read from file: /home/vivek/mm-project/vivek/xtb-goat/i/I_CONF/5.xyz
***************************************


================================================================================

----- Orbital basis set information -----
Your calculation utilizes the basis: 6-31G**
   H-He, Li-Ne : W. J. Hehre, R. Ditchfield and J.A. Pople, J. Chem. Phys. 56, 2257 (1972).
                 Note: He and Ne are unpublished basis sets taken from the Gaussian program.
                 Note: Li and B from J. D. Dill and J. A. Pople, J. Chem. Phys. 62, 2921 (1975).
   Na - Ar     : M. M. Francl, W. J. Pietro, W. J. Hehre, J. S. Binkley, M. S. Gordon, 
                 D. J. DeFrees and J. A. Pople, J. Chem. Phys. 77, 3654 (1982).
   K - Zn      : V. A. Rassolov, J. A. Pople, M. A. Ratner, and T. L. Windus, J. Chem. Phys. 109, 1223 (1998).

================================================================================
                                        WARNINGS
                       Please study these warnings very carefully!
================================================================================


WARNING: No MP2 level density has been requested!
         To calculate MP2 level properties use
         %mp2 Density relaxed end
         or
         %mp2 Density unrelaxed end

WARNING: Post HF methods need fully converged wavefunctions
  ===> : Setting SCFConvForced true
         You can overwrite this default with %scf ConvForced false 


================================================================================
                                       INPUT FILE
================================================================================
NAME = 5.inp
|  1> ! MP2 6-31G** 
|  2> 
|  3> * xyzfile 0 1 /home/vivek/mm-project/vivek/xtb-goat/i/I_CONF/5.xyz
|  4> 
|  5>                          ****END OF INPUT****
================================================================================

                       ****************************
                       * Single Point Calculation *
                       ****************************

---------------------------------
CARTESIAN COORDINATES (ANGSTROEM)
---------------------------------
  C     -9.300386    4.040780    0.564482
  C    -10.640139    4.768506    0.577574
  C     -8.135912    4.939189    0.137498
  H     -4.837759    4.697151    0.654845
  H     -5.617033    5.750457   -0.310873
  C     -6.782329    4.202885    0.298998
  H     -7.032204    1.663651   -1.701484
  C     -8.314950    5.463705   -1.286827
  C     -6.497774    3.309017   -0.899875
  H     -7.410924    5.958393   -1.634247
  N     -5.724155    5.171567    0.516428
  O     -7.249406    2.202032   -0.922959
  H    -10.579943    5.665462    1.190097
  O     -5.667888    3.543623   -1.739322
  H     -8.081705    5.792595    0.821214
  H     -8.543446    4.649310   -1.972173
  H     -9.126394    6.184928   -1.327520
  H     -6.838068    3.560086    1.185131
  H     -9.098178    3.665076    1.570101
  H     -9.359002    3.179782   -0.103435
  H    -10.944121    5.053875   -0.425631
  H    -11.410368    4.122214    0.991905

----------------------------
CARTESIAN COORDINATES (A.U.)
----------------------------
  NO LB      ZA    FRAG     MASS         X           Y           Z
   0 C     6.0000    0    12.011  -17.575182    7.635968    1.066716
   1 C     6.0000    0    12.011  -20.106949    9.011170    1.091457
   2 C     6.0000    0    12.011  -15.374646    9.333715    0.259833
   3 H     1.0000    0     1.008   -9.142040    8.876329    1.237478
   4 H     1.0000    0     1.008  -10.614654   10.866790   -0.587464
   5 C     6.0000    0    12.011  -12.816744    7.942302    0.565024
   6 H     1.0000    0     1.008  -13.288940    3.143845   -3.215338
   7 C     6.0000    0    12.011  -15.712979   10.324906   -2.431750
   8 C     6.0000    0    12.011  -12.279014    6.253136   -1.700517
   9 H     1.0000    0     1.008  -14.004616   11.259731   -3.088278
  10 N     7.0000    0    14.007  -10.817085    9.772846    0.975907
  11 O     8.0000    0    15.999  -13.699391    4.161237   -1.744140
  12 H     1.0000    0     1.008  -19.993194   10.706172    2.248958
  13 O     8.0000    0    15.999  -10.710756    6.696477   -3.286842
  14 H     1.0000    0     1.008  -15.272209   10.946417    1.551870
  15 H     1.0000    0     1.008  -16.144773    8.785923   -3.726867
  16 H     1.0000    0     1.008  -17.246385   11.687820   -2.508649
  17 H     1.0000    0     1.008  -12.922076    6.727588    2.239574
  18 H     1.0000    0     1.008  -17.193064    6.925990    2.967061
  19 H     1.0000    0     1.008  -17.685950    6.008917   -0.195464
  20 H     1.0000    0     1.008  -20.681392    9.550440   -0.804327
  21 H     1.0000    0     1.008  -21.562470    7.789856    1.874429

--------------------------------
INTERNAL COORDINATES (ANGSTROEM)
--------------------------------
 C      0   0   0     0.000000000000     0.00000000     0.00000000
 C      1   0   0     1.524695173607     0.00000000     0.00000000
 C      1   2   0     1.531487130127   112.98734524     0.00000000
 H      3   1   2     3.347244385920   131.58212066   158.30075691
 H      4   3   1     1.627677238986    52.39331088   171.46115730
 C      3   1   2     1.549327066354   110.88171202   173.39756780
 H      6   3   1     3.242232532807   103.91892928    61.57047575
 C      3   1   2     1.528355792992   111.84386820   298.21899851
 C      6   3   1     1.522257283059   111.11734179    82.67152928
 H      8   3   1     1.087511286283   110.88225631   189.49428583
 N      4   3   1     1.014853567424    23.72372329   211.80504096
 O      7   6   3     0.971148825735    24.27800989   293.01297298
 H      2   1   3     1.087813883402   110.47272602   305.87270396
 O      9   6   3     1.203504305113   124.31618579   107.67894625
 H      3   1   2     1.094855058892   108.71097165    58.22332390
 H      8   3   1     1.088645442730   110.76544456   309.73809356
 H      8   3   1     1.086397431401   110.50174809    69.93029042
 H      6   3   1     1.096143031815   108.57420151   324.56410034
 H      1   2   3     1.092388031656   108.59662769   120.45199386
 H      1   2   3     1.091268400452   109.55039330   237.68721426
 H      2   1   3     1.086398649622   111.30363440    66.59653453
 H      2   1   3     1.087480836272   109.99714512   186.31340013

---------------------------
INTERNAL COORDINATES (A.U.)
---------------------------
 C      0   0   0     0.000000000000     0.00000000     0.00000000
 C      1   0   0     2.881256315829     0.00000000     0.00000000
 C      1   2   0     2.894091253565   112.98734524     0.00000000
 H      3   1   2     6.325375192694   131.58212066   158.30075691
 H      4   3   1     3.075864216101    52.39331088   171.46115730
 C      3   1   2     2.927803847281   110.88171202   173.39756780
 H      6   3   1     6.126931549495   103.91892928    61.57047575
 C      3   1   2     2.888173883946   111.84386820   298.21899851
 C      6   3   1     2.876649370348   111.11734179    82.67152928
 H      8   3   1     2.055098498622   110.88225631   189.49428583
 N      4   3   1     1.917795308465    23.72372329   211.80504096
 O      7   6   3     1.835205315918    24.27800989   293.01297298
 H      2   1   3     2.055670324307   110.47272602   305.87270396
 O      9   6   3     2.274293537659   124.31618579   107.67894625
 H      3   1   2     2.068976217644   108.71097165    58.22332390
 H      8   3   1     2.057241743701   110.76544456   309.73809356
 H      8   3   1     2.052993617943   110.50174809    69.93029042
 H      6   3   1     2.071410133737   108.57420151   324.56410034
 H      1   2   3     2.064314211803   108.59662769   120.45199386
 H      1   2   3     2.062198415457   109.55039330   237.68721426
 H      2   1   3     2.052995920048   111.30363440    66.59653453
 H      2   1   3     2.055040956442   109.99714512   186.31340013

---------------------
BASIS SET INFORMATION
---------------------
There are 4 groups of distinct atoms

 Group   1 Type C   : 10s4p1d contracted to 3s2p1d pattern {631/31/1}
 Group   2 Type H   : 4s1p contracted to 2s1p pattern {31/1}
 Group   3 Type N   : 10s4p1d contracted to 3s2p1d pattern {631/31/1}
 Group   4 Type O   : 10s4p1d contracted to 3s2p1d pattern {631/31/1}

Atom   0C    basis set group =>   1
Atom   1C    basis set group =>   1
Atom   2C    basis set group =>   1
Atom   3H    basis set group =>   2
Atom   4H    basis set group =>   2
Atom   5C    basis set group =>   1
Atom   6H    basis set group =>   2
Atom   7C    basis set group =>   1
Atom   8C    basis set group =>   1
Atom   9H    basis set group =>   2
Atom  10N    basis set group =>   3
Atom  11O    basis set group =>   4
Atom  12H    basis set group =>   2
Atom  13O    basis set group =>   4
Atom  14H    basis set group =>   2
Atom  15H    basis set group =>   2
Atom  16H    basis set group =>   2
Atom  17H    basis set group =>   2
Atom  18H    basis set group =>   2
Atom  19H    basis set group =>   2
Atom  20H    basis set group =>   2
Atom  21H    basis set group =>   2
------------------------------------------------------------------------------
                             ORCA STARTUP CALCULATIONS
------------------------------------------------------------------------------
------------------------------------------------------------------------------
                   ___                                                        
                  /   \      - P O W E R E D   B Y -                         
                 /     \                                                     
                 |  |  |   _    _      __       _____    __    __             
                 |  |  |  | |  | |    /  \     |  _  \  |  |  /  |          
                  \  \/   | |  | |   /    \    | | | |  |  | /  /          
                 / \  \   | |__| |  /  /\  \   | |_| |  |  |/  /          
                |  |  |   |  __  | /  /__\  \  |    /   |      \           
                |  |  |   | |  | | |   __   |  |    \   |  |\   \          
                \     /   | |  | | |  |  |  |  | |\  \  |  | \   \       
                 \___/    |_|  |_| |__|  |__|  |_| \__\ |__|  \__/        
                                                                              
                      - O R C A' S   B I G   F R I E N D -                    
                                      &                                       
                       - I N T E G R A L  F E E D E R -                       
                                                                              
 v1 FN, 2020, v2 2021, v3 2022-2024                                           
------------------------------------------------------------------------------


----------------------
SHARK INTEGRAL PACKAGE
----------------------

Number of atoms                             ...     22
Number of basis functions                   ...    191
Number of shells                            ...     93
Maximum angular momentum                    ...      2
Integral batch strategy                     ... SHARK/LIBINT Hybrid
RI-J (if used) integral strategy            ... SPLIT-RIJ (Revised 2003 algorithm where possible)
Printlevel                                  ...      1
Contraction scheme used                     ... SEGMENTED contraction
Prescreening option                         ... SCHWARTZ
   Thresh                                   ... 1.000e-10
   Tcut                                     ... 1.000e-11
   Tpresel                                  ... 1.000e-11 
Coulomb Range Separation                    ... NOT USED
Exchange Range Separation                   ... NOT USED
Multipole approximations                    ... NOT USED
Finite Nucleus Model                        ... NOT USED
CABS basis                                  ... NOT available
Auxiliary Coulomb fitting basis             ... NOT available
Auxiliary J/K fitting basis                 ... NOT available
Auxiliary Correlation fitting basis         ... NOT available
Auxiliary 'external' fitting basis          ... NOT available

Checking pre-screening integrals            ... done (  0.0 sec) Dimension = 93
   => SHARK Basis and OBASIS are compatible. Storing Pre-screening
Shell pair information
Shell pair cut-off parameter TPreSel        ...   1.0e-11
Total number of shell pairs                 ...      4371
Shell pairs after pre-screening             ...      3943
Total number of primitive shell pairs       ...     20328
Primitive shell pairs kept                  ...     12167
          la=0 lb=0:   1301 shell pairs
          la=1 lb=0:   1468 shell pairs
          la=1 lb=1:    438 shell pairs
          la=2 lb=0:    439 shell pairs
          la=2 lb=1:    254 shell pairs
          la=2 lb=2:     43 shell pairs

Checking whether 4 symmetric matrices of dimension 191 fit in memory
:Max Core in MB      =   4096.00
 MB in use           =      6.45
 MB left             =   4089.55
 MB needed           =      0.56
 Data fit in memory  = YES
Calculating Nuclear repulsion               ... done (  0.0 sec) ENN=    496.148611016916 Eh

Diagonalization of the overlap matrix:
Smallest eigenvalue                        ... 2.717e-03
Time for diagonalization                   ...    0.002 sec
Threshold for overlap eigenvalues          ... 1.000e-07
Number of eigenvalues below threshold      ... 0
Time for construction of square roots      ...    0.001 sec
Total time needed                          ...    0.003 sec

-------------------
DFT GRID GENERATION
-------------------

General Integration Accuracy     IntAcc      ... 4.388
Radial Grid Type                 RadialGrid  ... OptM3 with GC (2021)
Angular Grid (max. ang.)         AngularGrid ... 4 (Lebedev-302)
Angular grid pruning method      GridPruning ... 4 (adaptive)
Weight generation scheme         WeightScheme... mBecke (2022)
Basis function cutoff            BFCut       ... 1.0000e-10
Integration weight cutoff        WCut        ... 1.0000e-14
Partially contracted basis set               ... off
Rotationally invariant grid construction     ... off
Angular grids for H and He will be reduced by one unit

Total number of grid points                  ...    95523
Total number of batches                      ...     1503
Average number of points per batch           ...       63
Average number of grid points per atom       ...     4342
Grids setup in   0.4 sec
Initializing property integral containers    ... done (  0.0 sec)

SHARK setup successfully completed in   0.4 seconds

Maximum memory used throughout the entire STARTUP-calculation: 38.4 MB
-------------------------------------------------------------------------------
                                 ORCA GUESS
                   Start orbitals & Density for SCF / CASSCF
-------------------------------------------------------------------------------

------------
SCF SETTINGS
------------
Hamiltonian:
 Ab initio Hamiltonian  Method          .... Hartree-Fock(GTOs)


General Settings:
 Integral files         IntName         .... 5
 Hartree-Fock type      HFTyp           .... RHF
 Total Charge           Charge          ....    0
 Multiplicity           Mult            ....    1
 Number of Electrons    NEL             ....   72
 Basis Dimension        Dim             ....  191
 Nuclear Repulsion      ENuc            ....    496.1486110169 Eh

Convergence Acceleration:
 AO-DIIS                CNVDIIS         .... on
   Start iteration      DIISMaxIt       ....    12
   Startup error        DIISStart       ....  0.200000
   # of expansion vecs  DIISMaxEq       ....     5
   Bias factor          DIISBfac        ....   1.050
   Max. coefficient     DIISMaxC        ....  10.000
 MO-DIIS                CNVKDIIS        .... off
 Trust-Rad. Augm. Hess. CNVTRAH         .... auto
   Auto Start mean grad. ratio tolernc. ....  1.125000
   Auto Start start iteration           ....    50
   Auto Start num. interpolation iter.  ....    10
   Max. Number of Micro iterations      ....    24
   Max. Number of Macro iterations      .... Maxiter - #DIIS iter
   Number of Davidson start vectors     ....     2
   Converg. threshold    (grad. norm)   ....   5.000e-05
   Grad. Scal. Fac. for Micro threshold ....   0.100
   Minimum threshold for Micro iter.    ....   1.000e-02
   NR start threshold (gradient norm)   ....   1.000e-04
   Initial trust radius                 ....   0.400
   Minimum AH scaling param. (alpha)    ....   1.000
   Maximum AH scaling param. (alpha)    .... 1000.000
   Quad. conv. algorithm                .... NR
   White noise on init. David. guess    .... on
   Maximum white noise                  ....   0.010
   Pseudo random numbers                .... off
   Inactive MOs                         .... canonical
   Orbital update algorithm             .... Taylor
   Preconditioner                       .... Diag
   Full preconditioner red. dimension   ....   250
 SOSCF                 CNVSOSCF           .... on
   Start iteration     SOSCFMaxIt         ....   150
   Startup grad/error  SOSCFStart         ....  0.003300
   Hessian update      SOSCFHessUp        .... L-BFGS
   Autom. constraints  SOSCFAutoConstrain .... off
 Level Shifting         CNVShift        .... on
   Level shift para.    LevelShift      ....    0.2500
   Turn off err/grad.   ShiftErr        ....    0.0010
 Zerner damping         CNVZerner       .... off
 Static damping         CNVDamp         .... on
   Fraction old density DampFac         ....    0.7000
   Max. Damping (<1)    DampMax         ....    0.9800
   Min. Damping (>=0)   DampMin         ....    0.0000
   Turn off err/grad.   DampErr         ....    0.1000

SCF Procedure:
 Maximum # iterations   MaxIter         ....   125
 SCF integral mode      SCFMode         .... Direct
   Integral package                     .... SHARK and LIBINT hybrid scheme
 Reset frequency        DirectResetFreq ....    20
 Integral Threshold     Thresh          ....  1.000e-10 Eh
 Primitive CutOff       TCut            ....  1.000e-11 Eh

Convergence Tolerance:
 Convergence Check Mode ConvCheckMode   .... Total+1el-Energy
 Convergence forced     ConvForced      .... 1
 Energy Change          TolE            ....  1.000e-06 Eh
 1-El. energy change                    ....  1.000e-03 Eh
 Orbital Gradient       TolG            ....  5.000e-05
 Orbital Rotation angle TolX            ....  5.000e-05
 DIIS Error             TolErr          ....  1.000e-06

------------------------------
INITIAL GUESS: MODEL POTENTIAL
------------------------------
Loading Hartree-Fock densities                     ... done
Calculating cut-offs                               ... done
Initializing the effective Hamiltonian             ... done
Setting up the integral package (SHARK)            ... done
Starting the Coulomb interaction                   ... done (   0.1 sec)
Making the grid                                    ... done (   0.1 sec)
Mapping shells                                     ... done
Starting the XC term evaluation                    ... done (   0.0 sec)
Transforming the Hamiltonian                       ... done (   0.0 sec)
Diagonalizing the Hamiltonian                      ... done (   0.0 sec)
Back transforming the eigenvectors                 ... done (   0.0 sec)
Now organizing SCF variables                       ... done
                      ------------------
                      INITIAL GUESS DONE (   0.2 sec)
                      ------------------
             **** ENERGY FILE WAS UPDATED (5.en.tmp) ****
Finished Guess after   0.2 sec
Maximum memory used throughout the entire GUESS-calculation: 11.7 MB

-------------------------------------------------------------------------------------------
                                      ORCA LEAN-SCF
                              memory conserving SCF solver
-------------------------------------------------------------------------------------------

----------------------------------------D-I-I-S--------------------------------------------
Iteration    Energy (Eh)           Delta-E    RMSDP     MaxDP     DIISErr   Damp  Time(sec)
-------------------------------------------------------------------------------------------
               ***  Starting incremental Fock matrix formation  ***
    1    -438.5396919896053873     0.00e+00  2.47e-03  6.50e-02  2.47e-01  0.700   2.0
    2    -438.7021693396960131    -1.62e-01  1.87e-03  4.67e-02  1.52e-01  0.700   1.8
                               ***Turning on AO-DIIS***
    3    -438.7976348496375181    -9.55e-02  1.02e-03  2.27e-02  8.38e-02  0.700   1.8
    4    -438.8575660681727300    -5.99e-02  2.31e-03  4.77e-02  5.57e-02  0.000   1.8
    5    -438.9898325121417315    -1.32e-01  2.69e-04  4.70e-03  5.46e-03  0.000   1.8
                              *** Initializing SOSCF ***
---------------------------------------S-O-S-C-F--------------------------------------
Iteration    Energy (Eh)           Delta-E    RMSDP     MaxDP     MaxGrad    Time(sec)
--------------------------------------------------------------------------------------
    6    -438.9903144585595669    -4.82e-04  1.32e-04  2.57e-03  2.72e-03     1.7
               *** Restarting incremental Fock matrix formation ***
    7    -438.9904204156366063    -1.06e-04  7.70e-05  2.01e-03  1.35e-03     2.0
    8    -438.9904501736660336    -2.98e-05  7.30e-05  1.52e-03  4.12e-04     1.6
    9    -438.9904609341324999    -1.08e-05  1.20e-05  1.81e-04  1.75e-04     1.5
   10    -438.9904615699772990    -6.36e-07  7.94e-06  1.42e-04  4.59e-05     1.4
                 **** Energy Check signals convergence ****

               *****************************************************
               *                     SUCCESS                       *
               *           SCF CONVERGED AFTER  10 CYCLES          *
               *****************************************************

             **** ENERGY FILE WAS UPDATED (5.en.tmp) ****

----------------
TOTAL SCF ENERGY
----------------

Total Energy       :       -438.99046170075115 Eh          -11945.53776 eV

Components:
Nuclear Repulsion  :        496.14861101691628 Eh           13500.89008 eV
Electronic Energy  :       -935.13907271766743 Eh          -25446.42784 eV
One Electron Energy:      -1582.84122269264412 Eh          -43071.29937 eV
Two Electron Energy:        647.70214997497669 Eh           17624.87153 eV

Virial components:
Potential Energy   :       -877.61407239400546 Eh          -23881.09300 eV
Kinetic Energy     :        438.62361069325431 Eh           11935.55524 eV
Virial Ratio       :          2.00083636858243

---------------
SCF CONVERGENCE
---------------

  Last Energy change         ...    6.3584e-07  Tolerance :   1.0000e-06
  Last MAX-Density change    ...    1.4152e-04  Tolerance :   1.0000e-05
  Last RMS-Density change    ...    7.9367e-06  Tolerance :   1.0000e-06
  Last DIIS Error            ...    2.7195e-03  Tolerance :   1.0000e-06
  Last Orbital Gradient      ...    4.5907e-05  Tolerance :   5.0000e-05
  Last Orbital Rotation      ...    1.5320e-04  Tolerance :   5.0000e-05


----------------
ORBITAL ENERGIES
----------------

  NO   OCC          E(Eh)            E(eV) 
   0   2.0000     -20.619113      -561.0746 
   1   2.0000     -20.553188      -559.2807 
   2   2.0000     -15.544614      -422.9905 
   3   2.0000     -11.381674      -309.7111 
   4   2.0000     -11.269276      -306.6526 
   5   2.0000     -11.232421      -305.6497 
   6   2.0000     -11.216658      -305.2208 
   7   2.0000     -11.216332      -305.2119 
   8   2.0000     -11.211201      -305.0723 
   9   2.0000      -1.469344       -39.9829 
  10   2.0000      -1.362050       -37.0633 
  11   2.0000      -1.196294       -32.5528 
  12   2.0000      -1.087529       -29.5932 
  13   2.0000      -0.994463       -27.0607 
  14   2.0000      -0.952199       -25.9107 
  15   2.0000      -0.879558       -23.9340 
  16   2.0000      -0.818409       -22.2700 
  17   2.0000      -0.767869       -20.8948 
  18   2.0000      -0.703581       -19.1454 
  19   2.0000      -0.698330       -19.0025 
  20   2.0000      -0.669317       -18.2130 
  21   2.0000      -0.643488       -17.5102 
  22   2.0000      -0.616822       -16.7846 
  23   2.0000      -0.602280       -16.3889 
  24   2.0000      -0.588815       -16.0225 
  25   2.0000      -0.581455       -15.8222 
  26   2.0000      -0.564707       -15.3665 
  27   2.0000      -0.538301       -14.6479 
  28   2.0000      -0.513227       -13.9656 
  29   2.0000      -0.510141       -13.8816 
  30   2.0000      -0.485792       -13.2191 
  31   2.0000      -0.467940       -12.7333 
  32   2.0000      -0.460655       -12.5351 
  33   2.0000      -0.458487       -12.4761 
  34   2.0000      -0.445062       -12.1108 
  35   2.0000      -0.397868       -10.8265 
  36   0.0000       0.182518         4.9666 
  37   0.0000       0.216545         5.8925 
  38   0.0000       0.226324         6.1586 
  39   0.0000       0.252676         6.8757 
  40   0.0000       0.264780         7.2050 
  41   0.0000       0.287044         7.8109 
  42   0.0000       0.290167         7.8958 
  43   0.0000       0.302043         8.2190 
  44   0.0000       0.314136         8.5481 
  45   0.0000       0.323964         8.8155 
  46   0.0000       0.337513         9.1842 
*Only the first 10 virtual orbitals were printed.

                    ********************************
                    * MULLIKEN POPULATION ANALYSIS *
                    ********************************

-----------------------
MULLIKEN ATOMIC CHARGES
-----------------------
   0 C :   -0.212897
   1 C :   -0.336514
   2 C :   -0.132219
   3 H :    0.274343
   4 H :    0.279264
   5 C :   -0.032712
   6 H :    0.371027
   7 C :   -0.349309
   8 C :    0.792775
   9 H :    0.121740
  10 N :   -0.678179
  11 O :   -0.636907
  12 H :    0.110339
  13 O :   -0.590502
  14 H :    0.149873
  15 H :    0.114965
  16 H :    0.126430
  17 H :    0.156937
  18 H :    0.110291
  19 H :    0.133158
  20 H :    0.112789
  21 H :    0.115310
Sum of atomic charges:    0.0000000

--------------------------------
MULLIKEN REDUCED ORBITAL CHARGES
--------------------------------
  0 C s       :     3.236037  s :     3.236037
      pz      :     1.044475  p :     2.927656
      px      :     0.898951
      py      :     0.984229
      dz2     :     0.010452  d :     0.049205
      dxz     :     0.004973
      dyz     :     0.012522
      dx2y2   :     0.008905
      dxy     :     0.012352

  1 C s       :     3.253460  s :     3.253460
      pz      :     1.047895  p :     3.040815
      px      :     0.965764
      py      :     1.027156
      dz2     :     0.008687  d :     0.042239
      dxz     :     0.005725
      dyz     :     0.010038
      dx2y2   :     0.007168
      dxy     :     0.010621

  2 C s       :     3.235686  s :     3.235686
      pz      :     0.971202  p :     2.842095
      px      :     0.874539
      py      :     0.996354
      dz2     :     0.012411  d :     0.054438
      dxz     :     0.005838
      dyz     :     0.014339
      dx2y2   :     0.008441
      dxy     :     0.013409

  3 H s       :     0.699644  s :     0.699644
      pz      :     0.006637  p :     0.026013
      px      :     0.012845
      py      :     0.006530

  4 H s       :     0.694643  s :     0.694643
      pz      :     0.012672  p :     0.026094
      px      :     0.003877
      py      :     0.009544

  5 C s       :     3.201112  s :     3.201112
      pz      :     0.955502  p :     2.762009
      px      :     0.891695
      py      :     0.914812
      dz2     :     0.010665  d :     0.069590
      dxz     :     0.006527
      dyz     :     0.022679
      dx2y2   :     0.012161
      dxy     :     0.017559

  6 H s       :     0.587487  s :     0.587487
      pz      :     0.020006  p :     0.041486
      px      :     0.008375
      py      :     0.013105

  7 C s       :     3.254453  s :     3.254453
      pz      :     0.941231  p :     3.052910
      px      :     1.070129
      py      :     1.041550
      dz2     :     0.010049  d :     0.041946
      dxz     :     0.004524
      dyz     :     0.011411
      dx2y2   :     0.003907
      dxy     :     0.012056

  8 C s       :     2.953659  s :     2.953659
      pz      :     0.792501  p :     2.107841
      px      :     0.651882
      py      :     0.663457
      dz2     :     0.033695  d :     0.145725
      dxz     :     0.021124
      dyz     :     0.028723
      dx2y2   :     0.027749
      dxy     :     0.034434

  9 H s       :     0.865586  s :     0.865586
      pz      :     0.002707  p :     0.012674
      px      :     0.006684
      py      :     0.003283

 10 N s       :     3.603294  s :     3.603294
      pz      :     1.559600  p :     4.040046
      px      :     1.145336
      py      :     1.335110
      dz2     :     0.008950  d :     0.034839
      dxz     :     0.002168
      dyz     :     0.006856
      dx2y2   :     0.004016
      dxy     :     0.012849

 11 O s       :     3.838485  s :     3.838485
      pz      :     1.618820  p :     4.773101
      px      :     1.729937
      py      :     1.424344
      dz2     :     0.005714  d :     0.025321
      dxz     :     0.003075
      dyz     :     0.005029
      dx2y2   :     0.003747
      dxy     :     0.007756

 12 H s       :     0.877039  s :     0.877039
      pz      :     0.004114  p :     0.012623
      px      :     0.001805
      py      :     0.006703

 13 O s       :     3.874622  s :     3.874622
      pz      :     1.498881  p :     4.683201
      px      :     1.446041
      py      :     1.738279
      dz2     :     0.008452  d :     0.032680
      dxz     :     0.008585
      dyz     :     0.005311
      dx2y2   :     0.006327
      dxy     :     0.004005

 14 H s       :     0.837775  s :     0.837775
      pz      :     0.004584  p :     0.012353
      px      :     0.001515
      py      :     0.006254

 15 H s       :     0.872427  s :     0.872427
      pz      :     0.004759  p :     0.012607
      px      :     0.002165
      py      :     0.005683

 16 H s       :     0.860770  s :     0.860770
      pz      :     0.001858  p :     0.012800
      px      :     0.005888
      py      :     0.005055

 17 H s       :     0.830926  s :     0.830926
      pz      :     0.006774  p :     0.012137
      px      :     0.001331
      py      :     0.004032

 18 H s       :     0.877309  s :     0.877309
      pz      :     0.007872  p :     0.012400
      px      :     0.001888
      py      :     0.002641

 19 H s       :     0.854080  s :     0.854080
      pz      :     0.004487  p :     0.012762
      px      :     0.001751
      py      :     0.006524

 20 H s       :     0.874464  s :     0.874464
      pz      :     0.007940  p :     0.012747
      px      :     0.002438
      py      :     0.002370

 21 H s       :     0.871976  s :     0.871976
      pz      :     0.002924  p :     0.012714
      px      :     0.005452
      py      :     0.004339



                     *******************************
                     * LOEWDIN POPULATION ANALYSIS *
                     *******************************

----------------------
LOEWDIN ATOMIC CHARGES
----------------------
   0 C :   -0.115495
   1 C :   -0.183963
   2 C :   -0.057723
   3 H :    0.130604
   4 H :    0.131202
   5 C :   -0.024994
   6 H :    0.200589
   7 C :   -0.184098
   8 C :    0.228706
   9 H :    0.066086
  10 N :   -0.274295
  11 O :   -0.208154
  12 H :    0.061802
  13 O :   -0.312095
  14 H :    0.074325
  15 H :    0.064110
  16 H :    0.069866
  17 H :    0.080026
  18 H :    0.059322
  19 H :    0.066613
  20 H :    0.062074
  21 H :    0.065491

-------------------------------
LOEWDIN REDUCED ORBITAL CHARGES
-------------------------------
  0 C s       :     2.889152  s :     2.889152
      pz      :     1.068735  p :     3.133084
      px      :     1.012471
      py      :     1.051878
      dz2     :     0.018788  d :     0.093260
      dxz     :     0.010192
      dyz     :     0.021319
      dx2y2   :     0.017857
      dxy     :     0.025104

  1 C s       :     2.905168  s :     2.905168
      pz      :     1.083805  p :     3.203724
      px      :     1.045198
      py      :     1.074721
      dz2     :     0.014647  d :     0.075072
      dxz     :     0.010582
      dyz     :     0.016659
      dx2y2   :     0.013647
      dxy     :     0.019537

  2 C s       :     2.878416  s :     2.878416
      pz      :     1.040208  p :     3.072065
      px      :     0.990603
      py      :     1.041254
      dz2     :     0.024903  d :     0.107243
      dxz     :     0.012278
      dyz     :     0.026300
      dx2y2   :     0.016736
      dxy     :     0.027026

  3 H s       :     0.788033  s :     0.788033
      pz      :     0.020919  p :     0.081363
      px      :     0.038880
      py      :     0.021563

  4 H s       :     0.786792  s :     0.786792
      pz      :     0.040611  p :     0.082006
      px      :     0.012174
      py      :     0.029222

  5 C s       :     2.872066  s :     2.872066
      pz      :     1.023402  p :     3.013786
      px      :     0.992506
      py      :     0.997878
      dz2     :     0.021161  d :     0.139142
      dxz     :     0.013207
      dyz     :     0.044869
      dx2y2   :     0.024432
      dxy     :     0.035473

  6 H s       :     0.679173  s :     0.679173
      pz      :     0.057084  p :     0.120238
      px      :     0.026570
      py      :     0.036584

  7 C s       :     2.904937  s :     2.904937
      pz      :     1.037258  p :     3.204302
      px      :     1.086349
      py      :     1.080695
      dz2     :     0.019090  d :     0.074859
      dxz     :     0.009007
      dyz     :     0.020990
      dx2y2   :     0.006048
      dxy     :     0.019722

  8 C s       :     2.850500  s :     2.850500
      pz      :     0.944003  p :     2.604366
      px      :     0.818450
      py      :     0.841913
      dz2     :     0.071366  d :     0.316429
      dxz     :     0.047670
      dyz     :     0.059815
      dx2y2   :     0.057706
      dxy     :     0.079872

  9 H s       :     0.893656  s :     0.893656
      pz      :     0.008902  p :     0.040258
      px      :     0.020290
      py      :     0.011066

 10 N s       :     3.186842  s :     3.186842
      pz      :     1.524073  p :     4.025871
      px      :     1.166756
      py      :     1.335042
      dz2     :     0.012145  d :     0.061582
      dxz     :     0.004565
      dyz     :     0.011920
      dx2y2   :     0.010525
      dxy     :     0.022428

 11 O s       :     3.458740  s :     3.458740
      pz      :     1.582295  p :     4.701446
      px      :     1.703573
      py      :     1.415579
      dz2     :     0.009021  d :     0.047967
      dxz     :     0.004130
      dyz     :     0.012096
      dx2y2   :     0.008149
      dxy     :     0.014571

 12 H s       :     0.898675  s :     0.898675
      pz      :     0.012934  p :     0.039523
      px      :     0.006593
      py      :     0.019997

 13 O s       :     3.547576  s :     3.547576
      pz      :     1.534019  p :     4.707355
      px      :     1.473126
      py      :     1.700209
      dz2     :     0.012004  d :     0.057164
      dxz     :     0.020528
      dyz     :     0.007867
      dx2y2   :     0.009247
      dxy     :     0.007517

 14 H s       :     0.885572  s :     0.885572
      pz      :     0.014517  p :     0.040103
      px      :     0.006200
      py      :     0.019386

 15 H s       :     0.895907  s :     0.895907
      pz      :     0.014808  p :     0.039983
      px      :     0.007776
      py      :     0.017400

 16 H s       :     0.889724  s :     0.889724
      pz      :     0.006701  p :     0.040410
      px      :     0.018025
      py      :     0.015683

 17 H s       :     0.880308  s :     0.880308
      pz      :     0.020904  p :     0.039666
      px      :     0.006306
      py      :     0.012456

 18 H s       :     0.901710  s :     0.901710
      pz      :     0.022865  p :     0.038968
      px      :     0.006960
      py      :     0.009143

 19 H s       :     0.892671  s :     0.892671
      pz      :     0.014131  p :     0.040715
      px      :     0.006831
      py      :     0.019754

 20 H s       :     0.897954  s :     0.897954
      pz      :     0.023466  p :     0.039972
      px      :     0.008396
      py      :     0.008109

 21 H s       :     0.894933  s :     0.894933
      pz      :     0.009561  p :     0.039575
      px      :     0.016551
      py      :     0.013463



                      *****************************
                      * MAYER POPULATION ANALYSIS *
                      *****************************

  NA   - Mulliken gross atomic population
  ZA   - Total nuclear charge
  QA   - Mulliken gross atomic charge
  VA   - Mayer's total valence
  BVA  - Mayer's bonded valence
  FA   - Mayer's free valence

  ATOM       NA         ZA         QA         VA         BVA        FA
  0 C      6.2129     6.0000    -0.2129     3.7945     3.7945    -0.0000
  1 C      6.3365     6.0000    -0.3365     3.8567     3.8567    -0.0000
  2 C      6.1322     6.0000    -0.1322     3.7470     3.7470    -0.0000
  3 H      0.7257     1.0000     0.2743     0.9062     0.9062     0.0000
  4 H      0.7207     1.0000     0.2793     0.9062     0.9062     0.0000
  5 C      6.0327     6.0000    -0.0327     3.7503     3.7503    -0.0000
  6 H      0.6290     1.0000     0.3710     0.8732     0.8732    -0.0000
  7 C      6.3493     6.0000    -0.3493     3.8391     3.8391     0.0000
  8 C      5.2072     6.0000     0.7928     3.6660     3.6660     0.0000
  9 H      0.8783     1.0000     0.1217     0.9529     0.9529    -0.0000
 10 N      7.6782     7.0000    -0.6782     2.7788     2.7788     0.0000
 11 O      8.6369     8.0000    -0.6369     1.8223     1.8223     0.0000
 12 H      0.8897     1.0000     0.1103     0.9513     0.9513    -0.0000
 13 O      8.5905     8.0000    -0.5905     1.8894     1.8894     0.0000
 14 H      0.8501     1.0000     0.1499     0.9461     0.9461    -0.0000
 15 H      0.8850     1.0000     0.1150     0.9544     0.9544    -0.0000
 16 H      0.8736     1.0000     0.1264     0.9529     0.9529     0.0000
 17 H      0.8431     1.0000     0.1569     0.9425     0.9425     0.0000
 18 H      0.8897     1.0000     0.1103     0.9496     0.9496     0.0000
 19 H      0.8668     1.0000     0.1332     0.9515     0.9515    -0.0000
 20 H      0.8872     1.0000     0.1128     0.9508     0.9508     0.0000
 21 H      0.8847     1.0000     0.1153     0.9523     0.9523    -0.0000

  Mayer bond orders larger than 0.100000
B(  0-C ,  1-C ) :   0.9704 B(  0-C ,  2-C ) :   0.9671 B(  0-C , 18-H ) :   0.9770 
B(  0-C , 19-H ) :   0.9637 B(  1-C , 12-H ) :   0.9749 B(  1-C , 20-H ) :   0.9752 
B(  1-C , 21-H ) :   0.9785 B(  2-C ,  5-C ) :   0.9578 B(  2-C ,  7-C ) :   0.9634 
B(  2-C , 14-H ) :   0.9640 B(  3-H , 10-N ) :   0.9093 B(  4-H , 10-N ) :   0.8996 
B(  5-C ,  8-C ) :   0.9070 B(  5-C , 10-N ) :   0.9991 B(  5-C , 17-H ) :   0.9594 
B(  6-H , 11-O ) :   0.8403 B(  7-C ,  9-H ) :   0.9731 B(  7-C , 15-H ) :   0.9685 
B(  7-C , 16-H ) :   0.9742 B(  8-C , 11-O ) :   0.9642 B(  8-C , 13-O ) :   1.8191 


-------
TIMINGS
-------

Total SCF time: 0 days 0 hours 0 min 18 sec 

Total time                  ....      18.721 sec
Sum of individual times     ....      17.390 sec  ( 92.9%)

SCF preparation             ....       0.016 sec  (  0.1%)
Fock matrix formation       ....      17.322 sec  ( 92.5%)
  Startup                   ....       0.001 sec  (  0.0% of F)
  Coulomb+Exchange Fock     ....      18.645 sec  (107.6% of F)
Diagonalization             ....       0.000 sec  (  0.0%)
Density matrix formation    ....       0.004 sec  (  0.0%)
Total Energy calculation    ....       0.001 sec  (  0.0%)
Population analysis         ....       0.003 sec  (  0.0%)
Orbital Transformation      ....       0.006 sec  (  0.0%)
Orbital Orthonormalization  ....       0.000 sec  (  0.0%)
DIIS solution               ....       0.027 sec  (  0.1%)
SOSCF solution              ....       0.011 sec  (  0.1%)
Finished LeanSCF after  18.7 sec

Maximum memory used throughout the entire LEANSCF-calculation: 15.3 MB

------------------------------------------------------------------------------
                                ORCA  MP2 
------------------------------------------------------------------------------

Freezing NCore=18 chemical core electrons

----------
MP2 ENERGY (disk based algorithm)
----------

Dimension of the basis                      ...  191
Memory devoted to MP2                       ... 4096 MB   
Data format for buffers                     ... DOUBLE
Compression type for matrix containers      ... UNCOMPRESSED

-------------------------
SHARK HALF TRANSFORMATION (Exchange order)
-------------------------

Number of basis functions                   ...    191
Number of operators                         ...      1
   Operator  0:    9-  35 (p-index in (p*|q*))
   Operator  0:    9-  35 (q-index in (p*|q*)
Integral generator used                     ... SHARK
Contraction scheme used                     ... SEGMENTED CONTRACTION
MaxCore in resort                           ...   4096 MB

Half transformed integrals for op=   0      ... 5.SHARK_MNPQ0.tmp
Resorted half transformed integrals         ... 5.KAO_aa.tmp

Half trafo (segmented) done. Total time = 12.3 sec. integrals= 11.1 sec trafo=  1.1 sec

----------------------
SHARK INTEGRAL SORTING (Exchange)
----------------------

Input container                             ... 5.SHARK_MNPQ0.tmp
Output container                            ... 5.KAO_aa.tmp
Range of AO-indices                         ...    0 -  190
Range of bra indices i                      ...    9 -   35
Range of ket indices j                      ...    9 -   35
Symmetric i,j range                         ... YES
Number of (i,j) pairs generated             ...  378
Max Core memory in MB                       ...   4096

Available core memory in MB                 ...   4086.03
MB needed for one item                      ...      0.28
Fixed MB needed                             ...      0.00
Number of items                             ...       378
Number of batches                           ...         1
Items treated per batch                     ...       378
Batch   0                                   ...      0-   377 (   378)
   => Closing output file and leaving
done (  0.1 sec)

SHARK half integral transformation done. Total time = 12.4 sec.


Finished integral transformation - now doing MP2 part

OPERATOR COMBINATION   0   0: ij=(  9.. 35,  9.. 35)
  Internal MO  11
  Internal MO  14
  Internal MO  17
  Internal MO  20
  Internal MO  23
  Internal MO  26
  Internal MO  29
  Internal MO  32
  Internal MO  35
-----------------------------------------------
 MP2 CORRELATION ENERGY   :     -1.370691061 Eh
-----------------------------------------------


-------
TIMINGS
-------
Total time                :   12.575 sec
Integral trafo            :   12.421 sec ( 98.8%)
K(i,j)                    :    0.127 sec (  1.0%)
T(i,j)                    :    0.004 sec (  0.0%)

---------------------------------------
MP2 TOTAL ENERGY:     -440.361152762 Eh
---------------------------------------

Maximum memory used throughout the entire MP2-calculation: 116.2 MB

-------------------------   --------------------
FINAL SINGLE POINT ENERGY      -440.361152761559
-------------------------   --------------------


------------------------------------------------------------------------------
                              ORCA PROPERTY CALCULATIONS
------------------------------------------------------------------------------

GBWName                                 ... 5.gbw
Number of atoms                         ...     22
Number of basis functions               ...    191
Max core memory                         ...   4096 MB

Electric properties:
Dipole moment                           ... YES
Quadrupole moment                       ...  NO
Static polarizability (Dipole/Dipole)   ...  NO
Static polarizability (Dipole/Quad.)    ...  NO
Static polarizability (Quad./Quad.)     ...  NO
Static polarizability (Velocity)        ...  NO
Static hyperpolarizability              ...  NO

Atomic electric properties:
Dipole moment                           ...  NO
Quadrupole moment                       ...  NO
Static polarizability                   ...  NO

Choice of electric origin               ... Center of mass
Position of electric origin             ...   -14.308133     7.862418    -0.630057

General magnetic properties:
Magnetizability                         ...  NO

EPR properties:
g-Tensor (aka g-matrix)                 ...  NO
Zero-Field splitting spin-orbit         ...  NO
Zero-field splitting spin-spin          ...  NO
Hyperfine couplings                     ...  NO (   0 nuclei)
Quadrupole couplings                    ...  NO (   0 nuclei)
Contact density                         ...  NO (   0 nuclei)

NMR properties:
Chemical shifts                         ...  NO (   0 nuclei)
Spin-rotation constants                 ...  NO (   0 nuclei)
Spin-spin couplings                     ...  NO (   0 nuclei,    0 pairs)

Choice of magnetic origin               ... GIAO
Position of magnetic origin             ...     0.000000     0.000000     0.000000

Properties with geometric perturbations:
SCF Hessian                             ...  NO
IR spectrum                             ...  NO
VCD spectrum                            ...  NO
X-ray spectroscopy properties:
SCF XES/XAS/RIXS spectra                ...  NO

SCF SOC stabilization energy            ...  NO
Diagonal Born-Oppenheimer correction    ...  NO

-------------
DIPOLE MOMENT
-------------

Method             : SCF
Type of density    : Electron Density
Multiplicity       :   1
Irrep              :   0
Energy             :  -438.9904617007511547 Eh
Basis              : AO
                                X                 Y                 Z
Electronic contribution:      9.329129240      -5.907631327      -3.051912995
Nuclear contribution   :     -9.760057505       5.460517107       3.045148497
                        -----------------------------------------
Total Dipole Moment    :     -0.430928265      -0.447114220      -0.006764498
                        -----------------------------------------
Magnitude (a.u.)       :      0.621012120
Magnitude (Debye)      :      1.578487366



--------------------
Rotational spectrum 
--------------------
 
Rotational constants in cm-1:             0.079276             0.036623             0.031863 
Rotational constants in MHz :          2376.641652          1097.917329           955.217527 

Dipole components along the rotational axes: 
x,y,z [a.u.] :     0.269986    -0.548922     0.106998 
x,y,z [Debye]:     0.686251    -1.395248     0.271967 

 

Dipole moment calculation done in   0.0 sec 

Maximum memory used throughout the entire PROP-calculation: 10.1 MB

--------------------------------
SUGGESTED CITATIONS FOR THIS RUN
--------------------------------

Below you find a list of papers that are relevant to this ORCA run
We neither can nor want to force you to cite these papers, but we appreciate if you do
You receive ORCA, which is the product of decades of hard work by many enthusiastic individuals, for free
The only thing we kindly ask in return is that you cite our papers,
We deeply appreciate it, if you show your appreciation for ORCA by not just citing the generic ORCA reference.

Please note that relegating all ORCA citations to the supporting information does *not* help us.
SI sections are not indexed - citations you put there will not count into any citation statistics
But we need these citations in order to attract the funding resources that allow us to do what we are doing

Therefore, if you are a happy ORCA user, please consider citing a few of the papers listed below in the main body of your paper

In addition to the list printed below, the program has created the file 5.bibtex that contains the list in bibtex format
You can import this file easily into all common literature databanks and citation aid programs


List of essential papers. We consider these as the minimum necessary citations

  1. Neese, F.
     Software update: the ORCA program system, version 6.0
     WIRES Comput. Molec. Sci. 2025 15(1), e70019
     doi.org/10.1002/wcms.7019

List of papers to cite with high priority. The work reported in these papers was absolutely
necessary for this run to complete.
Our perspective: the developers of density functionals and basis sets usually get cited in chemistry papers
Good! But without the algorithms to do something with them, the functionals or basis sets would not do anything.
Hence, in our opinion, the algorithm design and method developments papers are equally worthy of getting cited

  1. Neese, F.
     The SHARK Integral Generation and Digestion System
     J. Comp. Chem. 2022 44(3), 381
     doi.org/10.1002/jcc.26942

List of suggested additional citations. These are papers that are important in the 'surrounding' of 
of this run, or papers that preceded the highly important papers. If you like your results we are grateful for a citation.

  1. Neese, F.
     The ORCA program system
     WIRES Comput. Molec. Sci. 2012 2(1), 73-78
     doi.org/10.1002/wcms.81
  2. Neese, F.
     Software update: the ORCA program system, version 4.0
     WIRES Comput. Molec. Sci. 2018 8(1), 1-6
     doi.org/10.1002/wcms.1327
  3. Neese, F.; Wennmohs, F.; Becker, U.; Riplinger, C.
     The ORCA quantum chemistry program package
     J. Chem. Phys. 2020 152(22), 224108
     doi.org/10.1063/5.0004608
  4. Neese, F.
     Software update: The ORCA program system—Version 5.0
     WIRES Comput. Molec. Sci. 2022 12(1), e1606
     doi.org/10.1002/wcms.1606

List of optional additional citations

  1. Neese, F.
     Approximate second-order SCF convergence for spin unrestricted wavefunctions
     Chem. Phys. Lett. 2000 325(1-3), 93-98
     doi.org/10.1016/s0009-2614(00)00662-x

Timings for individual modules:

Sum of individual times          ...       32.052 sec (=   0.534 min)
Startup calculation              ...        0.439 sec (=   0.007 min)   1.4 %
SCF iterations                   ...       18.988 sec (=   0.316 min)  59.2 %
Property calculations            ...        0.025 sec (=   0.000 min)   0.1 %
MP2 module                       ...       12.601 sec (=   0.210 min)  39.3 %
                             ****ORCA TERMINATED NORMALLY****
TOTAL RUN TIME: 0 days 0 hours 0 minutes 32 seconds 89 msec
