
                                 *****************
                                 * O   R   C   A *
                                 *****************

                                            #,                                       
                                            ###                                      
                                            ####                                     
                                            #####                                    
                                            ######                                   
                                           ########,                                 
                                     ,,################,,,,,                         
                               ,,#################################,,                 
                          ,,##########################################,,             
                       ,#########################################, ''#####,          
                    ,#############################################,,   '####,        
                  ,##################################################,,,,####,       
                ,###########''''           ''''###############################       
              ,#####''   ,,,,##########,,,,          '''####'''          '####       
            ,##' ,,,,###########################,,,                        '##       
           ' ,,###''''                  '''############,,,                           
         ,,##''                                '''############,,,,        ,,,,,,###''
      ,#''                                            '''#######################'''  
     '                                                          ''''####''''         
             ,#######,   #######,   ,#######,      ##                                
            ,#'     '#,  ##    ##  ,#'     '#,    #''#        ,####,    ,#,          
            ##       ##  ##   ,#'  ##            #'  '#       #'       ,# #          
            ##       ##  #######   ##           ,######,      #####,      #          
            '#,     ,#'  ##    ##  '#,     ,#' ,#      #,     #,   #      #          
             '#######'   ##     ##  '#######'  #'      '#     '####' #    #          



                #########################################################
                #                        -***-                          #
                #          Department of theory and spectroscopy        #
                #                                                       #
                #                      Frank Neese                      #
                #                                                       #
                #     Directorship, Architecture, Infrastructure        #
                #                    SHARK, DRIVERS                     #
                #        Core code/Algorithms in most modules           #
                #                                                       #
                #        Max Planck Institute fuer Kohlenforschung      #
                #                Kaiser Wilhelm Platz 1                 #
                #                 D-45470 Muelheim/Ruhr                 #
                #                      Germany                          #
                #                                                       #
                #                  All rights reserved                  #
                #                        -***-                          #
                #########################################################


                         Program Version 6.1.0  -  RELEASE   -
                                (GIT: $679e74b$)
                          ($2025-06-10 18:02:51 +0200$)


 With contributions from (in alphabetic order):
[Max-Planck-Institut fuer Kohlenforschung]                               
  Daniel Aravena         : Magnetic Suceptibility                        
  Michael Atanasov       : Ab Initio Ligand Field Theory (pilot matlab implementation)
  Alexander A. Auer      : GIAO ZORA, VPT2 properties, NMR spectrum      
  Ute Becker             : All parallelization in ORCA, NUMFREQ, NUMCALC 
  Giovanni Bistoni       : ED, misc. LED, open-shell LED, HFLD           
  Dmytro Bykov           : pre 5.0 version of the SCF Hessian            
  Marcos Casanova-Páez   : Triplet and SCS-CIS(D). UHF-(DLPNO)-IP/EA/STEOM-CCSD. UHF-CVS-IP/STEOM-CCSD   
  Vijay G. Chilkuri      : MRCI spin determinant printing, contributions to CSF-ICE 
  Pauline Colinet        : FMM embedding                                 
  Dipayan Datta          : RHF DLPNO-CCSD density                        
  Achintya Kumar Dutta   : EOM-CC, STEOM-CC                              
  Nicolas Foglia         : Exact transition moments, OPA infrastructure, MCD improvements    
  Dmitry Ganyushin       : Spin-Orbit,Spin-Spin,Magnetic field MRCI      
  Miquel Garcia-Rates    : C-PCM and meta-GGA Hessian, CCSD/C-PCM, Gaussian charge scheme 
  Tiago L. C. Gouveia    : GS-ROHF, GS-ROCIS                             
  Yang Guo               : DLPNO-NEVPT2, F12-NEVPT2, CIM, IAO-localization        
  Andreas Hansen         : Spin unrestricted coupled pair/coupled cluster methods 
  Ingolf Harden          : AUTO-CI MPn and infrastructure                
  Benjamin Helmich-Paris : MC-RPA, TRAH-(SCF,CASSCF), AVAS, COSX integrals, SCF dyn. polar., MC-PDFT, srDFT 
  Lee Huntington         : MR-EOM, pCC                                   
  Robert Izsak           : Overlap fitted RIJCOSX, COSX-SCS-MP3, EOM     
  Riya Kayal             : Wick's Theorem for AUTO-CI, AUTO-CI UHF-CCSDT 
  Emily Kempfer          : AUTO-CI RHF CISDT and CCSDT, approximate NEVPT4
  Christian Kollmar      : KDIIS, OOCD, Brueckner-CCSD(T), CCSD density, CASPT2, CASPT2-K, improved NEVPT2 
  Axel Koslowski         : Symmetry handling                             
  Simone Kossmann        : meta-GGA functionals, TD-DFT gradient, OOMP2, (MP2 Hessian; deprecated post 5.0) 
  Lucas Lang             : DCDCAS, Hyperfine gauge corrections, ICE-SOC+SSC
  Marvin Lechner         : AUTO-CI (C++ implementation), FIC-MRCC        
  Spencer Leger          : CASSCF response                               
  Dagmar Lenk            : GEPOL surface, SMD, ORCA-2-JSON               
  Dimitrios Liakos       : Extrapolation schemes; Compound Job, Property file
  Dimitrios Manganas     : Further ROCIS development; embedding schemes. LFT, Crystal Embedding 
  Dimitrios Pantazis     : SARC Basis sets                               
  Anastasios Papadopoulos: AUTO-CI, single reference methods and gradients 
  Taras Petrenko         : pre 6.0 DFT Hessian and TD-DFT gradient,  ECA, NRVS 
  Petra Pikulova         : Analytic Raman intensities                    
  Peter Pinski           : DLPNO-MP2, DLPNO-MP2 Gradient                 
  Shashank Vittal Rao    : ES-AILFT, MagRelax                            
  Christoph Reimann      : Effective Core Potentials                     
  Marius Retegan         : Local ZFS, SOC                                
  Christoph Riplinger    : Optimizer, TS searches, QM/MM, DLPNO-CCSD(T), (RO)-DLPNO pert. Triples 
  Michael Roemelt        : Original ROCIS implementation, recursive CI coupling coefficients
  Masaaki Saitow         : Open-shell DLPNO-CCSD energy and density      
  Barbara Sandhoefer     : DKH picture change effects                    
  Yorick L. A. Schmerwitz: GMF and freeze-and-release deltaSCF, NEB S-IDPP initial path                    
  Kantharuban Sivalingam : CASSCF convergence/infrastructure, NEVPT2, NEVPT3, NEVPT4(SD), FIC-MRCI and CEPA variants
  Bernardo de Souza      : ESD, SOC TD-DFT                               
  Georgi L. Stoychev     : AutoAux, RI-MP2 NMR, DLPNO-MP2 response, X2C  
  Van Anh Tran           : RI-MP2 g-tensors                              
  Willem Van den Heuvel  : Paramagnetic NMR                              
  Zikuan Wang            : NOTCH, Electric field optimization            
  Frank Wennmohs         : Technical directorship and infrastructure     
  Hang Xu                : AUTO-CI-Response properties                   
                                                                         
[FACCTs GmbH]                                                            
  Markus Bursch, Nicolas Foglia, Miquel Garcia-Rates, Ingolf Harden, Hagen Neugebauer, Anastasios Papadopoulos, 
  Christoph Riplinger, Bernardo de Souza, Georgi L. Stoychev                                                    
                                                                 
  APM, various basis sets, CI-OPT, improved COSX, DLPNO-Multilevel,           
  DOCKER, DRACO, updates on ESD, Fragmentator, GOAT, IRC, LR-CPCM, L-BFGS, MBIS, meta-GGA TD-DFT gradient, ML-optimized integration grids, 
  MM, NACMEs, nearIR, NEB, NEB-TS, NL-DFT gradient (VV10), 2- and 3-layer-ONIOM, interface openCOSMO-RS, QMMM,   
  Crystal-QMMM, RESP, rigid body optimization, SF, symmetry and pop. for TD-DFT, various functionals, SOLVATOR                                   
                                                                         
[Other institutions]                                                     
  V. Asgeirsson          : NEB                                           
  Christoph Bannwarth    : sTDA-DFT, sTD-DFT, PBEh-3c, B97-3c, D3        
  Giovanni Bistoni       : ETS/NOCV, ADLD/ADEX, COVALED                  
  Martin Brehm           : Molecular dynamics                            
  Ronald Cardenas        : ETS/NOCV                                      
  Martina Colucci        : COVALED                                       
  Sebastian Ehlert       : rSCAN, r2SCAN, r2SCAN-3c, D4, dhf basis sets  
  Marvin Friede          : D4 for Fr, Ra, Ac-Lr                          
  Lars Goerigk           : TD-DFT with DH, B97 family of functionals     
  Stefan Grimme          : VdW corrections, initial TS optimization, DFT functionals, gCP, sTDA/sTD-DF 
  Waldemar Hujo          : DFT-NL                                        
  H. Jonsson             : NEB                                           
  Holger Kruse           : gCP                                           
  Marcel Mueller         : wB97X-3c, vDZP basis set                      
  Hagen Neugebauer       : wr2SCAN, Native XTB                           
  Gianluca Regni         : ADLD/ADEX                                     
  Tobias Risthaus        : pre 6.0 range-separated hybrid DFT and stability analysis
  Lukas Wittmann         : regularized MP2, r2SCAN double-hybrids, wr2SCAN        
                                                                         
We gratefully acknowledge several colleagues who have allowed us to      
interface, adapt or use parts of their codes:                            
  Ed Valeev, F. Pavosevic, A. Kumar             : LibInt (2-el integral package), F12 methods 
  Garnet Chan, S. Sharma, J. Yang, R. Olivares  : DMRG                   
  Ulf Ekstrom                                   : XCFun DFT Library      
  Mihaly Kallay                                 : mrcc  (arbitrary order and MRCC methods)
  Frank Weinhold                                : gennbo (NPA and NBO analysis)           
  Simon Mueller                                 : openCOSMO-RS                            
  Christopher J. Cramer and Donald G. Truhlar   : smd solvation model                     
  S Lehtola, MJT Oliveira, MAL Marques          : LibXC Library                           
  Liviu Ungur et al                             : ANISO software                          


 Your calculation uses the libint2 library for the computation of 2-el integrals
 For citations please refer to: http://libint.valeyev.net

 Your ORCA version has been built with support for libXC version: 7.0.0
 For citations please refer to: https://libxc.gitlab.io

 This ORCA versions uses:
   CBLAS   interface :  Fast vector & matrix operations
   LAPACKE interface :  Fast linear algebra routines
   SCALAPACK package :  Parallel linear algebra routines
   Shared memory     :  Shared parallel matrices
   BLAS/LAPACK       :  OpenBLAS 0.3.29  USE64BITINT DYNAMIC_ARCH NO_AFFINITY Haswell SINGLE_THREADED
        Core in use  :  Haswell
   Copyright (c) 2011-2014, The OpenBLAS Project


  ***********************************
  * Starting time: Wed Aug 13 11:58:31 2025
  * Host name:     CHEMLAB02
  * Process ID:    1530503
  * Working dir.:  /home/vivek/mm-project/vivek/B97-D/a/4
  ***********************************



***************************************
The coordinates will be read from file: /home/vivek/mm-project/vivek/xtb-goat/a/A_CONF/4.xyz
***************************************


Your calculation utilizes empirical dispersion correction


Warning: RI is on but no J-basis has been assigned. Assigning Def2/J (nothing to worry about!)
================================================================================

----- Orbital basis set information -----
Your calculation utilizes the basis: 6-31G**
   H-He, Li-Ne : W. J. Hehre, R. Ditchfield and J.A. Pople, J. Chem. Phys. 56, 2257 (1972).
                 Note: He and Ne are unpublished basis sets taken from the Gaussian program.
                 Note: Li and B from J. D. Dill and J. A. Pople, J. Chem. Phys. 62, 2921 (1975).
   Na - Ar     : M. M. Francl, W. J. Pietro, W. J. Hehre, J. S. Binkley, M. S. Gordon, 
                 D. J. DeFrees and J. A. Pople, J. Chem. Phys. 77, 3654 (1982).
   K - Zn      : V. A. Rassolov, J. A. Pople, M. A. Ratner, and T. L. Windus, J. Chem. Phys. 109, 1223 (1998).

----- AuxJ basis set information -----
Your calculation utilizes the auxiliary basis: def2/J
   H-Rn: F. Weigend, Phys. Chem. Chem. Phys. 8, 1057 (2006).
   Fr-Lr: K. Eichkorn, F. Weigend, O. Treutler, R. Ahlrichs; Theor. Chem. Acc. 97, 119 (1997).

================================================================================
                                        WARNINGS
                       Please study these warnings very carefully!
================================================================================


INFO   : The exchange functional is Grimme's B97(-D)
         As described in S. Grimme, J. Comput. Chem. 27, 1787 (2006).
         Note that this functional defaults to a pure GGA. 

INFO   : The correlation functional is Grimme's B97(-D)
         As described in S. Grimme, J. Comput. Chem. 27, 1787 (2006).

================================================================================
                                       INPUT FILE
================================================================================
NAME = 4.inp
|  1> ! B97-D 6-31G** 
|  2> 
|  3> * xyzfile 0 1 /home/vivek/mm-project/vivek/xtb-goat/a/A_CONF/4.xyz
|  4> 
|  5>                          ****END OF INPUT****
================================================================================

                       ****************************
                       * Single Point Calculation *
                       ****************************

---------------------------------
CARTESIAN COORDINATES (ANGSTROEM)
---------------------------------
  C     -4.419132    0.193068   -1.776760
  O     -4.027392    0.746874   -0.790912
  O     -3.625462   -0.195654   -2.768384
  C     -5.894485   -0.161021   -2.014614
  H     -4.190943   -0.605250   -3.460151
  N     -6.091427   -0.462088   -3.427854
  H     -6.099136   -1.058532   -1.423998
  H     -6.519243    0.648795   -1.618953
  H     -6.914216   -1.034068   -3.573670
  H     -6.212058    0.393830   -3.960238

----------------------------
CARTESIAN COORDINATES (A.U.)
----------------------------
  NO LB      ZA    FRAG     MASS         X           Y           Z
   0 C     6.0000    0    12.011   -8.350949    0.364846   -3.357591
   1 O     8.0000    0    15.999   -7.610668    1.411387   -1.494607
   2 O     8.0000    0    15.999   -6.851130   -0.369732   -5.231487
   3 C     6.0000    0    12.011  -11.138961   -0.304286   -3.807068
   4 H     1.0000    0     1.008   -7.919734   -1.143757   -6.538737
   5 N     7.0000    0    14.007  -11.511129   -0.873220   -6.477706
   6 H     1.0000    0     1.008  -11.525697   -2.000336   -2.690966
   7 H     1.0000    0     1.008  -12.319584    1.226045   -3.059379
   8 H     1.0000    0     1.008  -13.065974   -1.954106   -6.753258
   9 H     1.0000    0     1.008  -11.739089    0.744230   -7.483765

--------------------------------
INTERNAL COORDINATES (ANGSTROEM)
--------------------------------
 C      0   0   0     0.000000000000     0.00000000     0.00000000
 O      1   0   0     1.196685992464     0.00000000     0.00000000
 O      1   2   0     1.328282115942   123.70039590     0.00000000
 C      1   2   3     1.535779789228   123.28203202   179.02097500
 H      3   1   2     0.982893643816   107.67478826   181.09390183
 N      4   1   2     1.458313178238   109.11232762   163.77199191
 H      4   1   2     1.093725065748   106.57779001   281.54981158
 H      4   1   2     1.096664259555   108.73214004    37.42850893
 H      6   4   1     1.012622647592   111.46245758   157.64931143
 H      6   4   1     1.015174625968   110.49968966   277.37990239

---------------------------
INTERNAL COORDINATES (A.U.)
---------------------------
 C      0   0   0     0.000000000000     0.00000000     0.00000000
 O      1   0   0     2.261408794058     0.00000000     0.00000000
 O      1   2   0     2.510089427716   123.70039590     0.00000000
 C      1   2   3     2.902203203652   123.28203202   179.02097500
 H      3   1   2     1.857399805585   107.67478826   181.09390183
 N      4   1   2     2.755812524358   109.11232762   163.77199191
 H      4   1   2     2.066840840068   106.57779001   281.54981158
 H      4   1   2     2.072395111419   108.73214004    37.42850893
 H      6   4   1     1.913579480955   111.46245758   157.64931143
 H      6   4   1     1.918402021186   110.49968966   277.37990239

---------------------
BASIS SET INFORMATION
---------------------
There are 4 groups of distinct atoms

 Group   1 Type C   : 10s4p1d contracted to 3s2p1d pattern {631/31/1}
 Group   2 Type O   : 10s4p1d contracted to 3s2p1d pattern {631/31/1}
 Group   3 Type H   : 4s1p contracted to 2s1p pattern {31/1}
 Group   4 Type N   : 10s4p1d contracted to 3s2p1d pattern {631/31/1}

Atom   0C    basis set group =>   1
Atom   1O    basis set group =>   2
Atom   2O    basis set group =>   2
Atom   3C    basis set group =>   1
Atom   4H    basis set group =>   3
Atom   5N    basis set group =>   4
Atom   6H    basis set group =>   3
Atom   7H    basis set group =>   3
Atom   8H    basis set group =>   3
Atom   9H    basis set group =>   3
---------------------------------
AUXILIARY/J BASIS SET INFORMATION
---------------------------------
There are 4 groups of distinct atoms

 Group   1 Type C   : 12s5p4d2f1g contracted to 6s4p3d1f1g pattern {711111/2111/211/2/1}
 Group   2 Type O   : 12s5p4d2f1g contracted to 6s4p3d1f1g pattern {711111/2111/211/2/1}
 Group   3 Type H   : 5s2p1d contracted to 3s1p1d pattern {311/2/1}
 Group   4 Type N   : 12s5p4d2f1g contracted to 6s4p3d1f1g pattern {711111/2111/211/2/1}

Atom   0C    basis set group =>   1
Atom   1O    basis set group =>   2
Atom   2O    basis set group =>   2
Atom   3C    basis set group =>   1
Atom   4H    basis set group =>   3
Atom   5N    basis set group =>   4
Atom   6H    basis set group =>   3
Atom   7H    basis set group =>   3
Atom   8H    basis set group =>   3
Atom   9H    basis set group =>   3
------------------------------------------------------------------------------
                             ORCA STARTUP CALCULATIONS
                           -- RI-GTO INTEGRALS CHOSEN --
------------------------------------------------------------------------------
------------------------------------------------------------------------------
                   ___                                                        
                  /   \      - P O W E R E D   B Y -                         
                 /     \                                                     
                 |  |  |   _    _      __       _____    __    __             
                 |  |  |  | |  | |    /  \     |  _  \  |  |  /  |          
                  \  \/   | |  | |   /    \    | | | |  |  | /  /          
                 / \  \   | |__| |  /  /\  \   | |_| |  |  |/  /          
                |  |  |   |  __  | /  /__\  \  |    /   |      \           
                |  |  |   | |  | | |   __   |  |    \   |  |\   \          
                \     /   | |  | | |  |  |  |  | |\  \  |  | \   \       
                 \___/    |_|  |_| |__|  |__|  |_| \__\ |__|  \__/        
                                                                              
                      - O R C A' S   B I G   F R I E N D -                    
                                      &                                       
                       - I N T E G R A L  F E E D E R -                       
                                                                              
 v1 FN, 2020, v2 2021, v3 2022-2024                                           
------------------------------------------------------------------------------


----------------------
SHARK INTEGRAL PACKAGE
----------------------

Number of atoms                             ...     10
Number of basis functions                   ...     95
Number of shells                            ...     45
Maximum angular momentum                    ...      2
Integral batch strategy                     ... SHARK/LIBINT Hybrid
RI-J (if used) integral strategy            ... SPLIT-RIJ (Revised 2003 algorithm where possible)
Printlevel                                  ...      1
Contraction scheme used                     ... SEGMENTED contraction
Prescreening option                         ... SCHWARTZ
   Thresh                                   ... 1.000e-10
   Tcut                                     ... 1.000e-11
   Tpresel                                  ... 1.000e-11 
Coulomb Range Separation                    ... NOT USED
Exchange Range Separation                   ... NOT USED
Multipole approximations                    ... NOT USED
Finite Nucleus Model                        ... NOT USED
CABS basis                                  ... NOT available
Auxiliary Coulomb fitting basis             ... AVAILABLE
   # of basis functions in Aux-J            ...    300
   # of shells in Aux-J                     ...    100
   Maximum angular momentum in Aux-J        ...      4
Auxiliary J/K fitting basis                 ... NOT available
Auxiliary Correlation fitting basis         ... NOT available
Auxiliary 'external' fitting basis          ... NOT available

Checking pre-screening integrals            ... done (  0.0 sec) Dimension = 45
   => SHARK Basis and OBASIS are compatible. Storing Pre-screening
Shell pair information
Shell pair cut-off parameter TPreSel        ...   1.0e-11
Total number of shell pairs                 ...      1035
Shell pairs after pre-screening             ...      1005
Total number of primitive shell pairs       ...      5170
Primitive shell pairs kept                  ...      3727
          la=0 lb=0:    313 shell pairs
          la=1 lb=0:    361 shell pairs
          la=1 lb=1:    119 shell pairs
          la=2 lb=0:    123 shell pairs
          la=2 lb=1:     74 shell pairs
          la=2 lb=2:     15 shell pairs

Checking whether 4 symmetric matrices of dimension 95 fit in memory
:Max Core in MB      =   4096.00
 MB in use           =      4.70
 MB left             =   4091.30
 MB needed           =      0.14
 Data fit in memory  = YES
Calculating RI/J V-Matrix + Cholesky decomp.... done (  0.0 sec)
Calculating Nuclear repulsion               ... done (  0.0 sec) ENN=    181.642912253997 Eh

Diagonalization of the overlap matrix:
Smallest eigenvalue                        ... 4.477e-03
Time for diagonalization                   ...    0.001 sec
Threshold for overlap eigenvalues          ... 1.000e-07
Number of eigenvalues below threshold      ... 0
Time for construction of square roots      ...    0.000 sec
Total time needed                          ...    0.001 sec

-------------------
DFT GRID GENERATION
-------------------

General Integration Accuracy     IntAcc      ... 4.388
Radial Grid Type                 RadialGrid  ... OptM3 with GC (2021)
Angular Grid (max. ang.)         AngularGrid ... 4 (Lebedev-302)
Angular grid pruning method      GridPruning ... 4 (adaptive)
Weight generation scheme         WeightScheme... mBecke (2022)
Basis function cutoff            BFCut       ... 1.0000e-10
Integration weight cutoff        WCut        ... 1.0000e-14
Partially contracted basis set               ... off
Rotationally invariant grid construction     ... off
Angular grids for H and He will be reduced by one unit

Total number of grid points                  ...    46566
Total number of batches                      ...      733
Average number of points per batch           ...       63
Average number of grid points per atom       ...     4657
Grids setup in   0.1 sec
Initializing property integral containers    ... done (  0.0 sec)

SHARK setup successfully completed in   0.2 seconds

Maximum memory used throughout the entire STARTUP-calculation: 19.8 MB
-------------------------------------------------------------------------------
                                 ORCA GUESS
                   Start orbitals & Density for SCF / CASSCF
-------------------------------------------------------------------------------

------------
SCF SETTINGS
------------
Hamiltonian:
 Density Functional     Method          .... DFT(GTOs)
 Exchange Functional    Exchange        .... B97(D)
 Correlation Functional Correlation     .... B97(D)
 Gradients option       PostSCFGGA      .... off
 RI-approximation to the Coulomb term is turned on
   Number of AuxJ basis functions       .... 300


General Settings:
 Integral files         IntName         .... 4
 Hartree-Fock type      HFTyp           .... RHF
 Total Charge           Charge          ....    0
 Multiplicity           Mult            ....    1
 Number of Electrons    NEL             ....   40
 Basis Dimension        Dim             ....   95
 Nuclear Repulsion      ENuc            ....    181.6429122540 Eh

Convergence Acceleration:
 AO-DIIS                CNVDIIS         .... on
   Start iteration      DIISMaxIt       ....    12
   Startup error        DIISStart       ....  0.200000
   # of expansion vecs  DIISMaxEq       ....     5
   Bias factor          DIISBfac        ....   1.050
   Max. coefficient     DIISMaxC        ....  10.000
 MO-DIIS                CNVKDIIS        .... off
 Trust-Rad. Augm. Hess. CNVTRAH         .... auto
   Auto Start mean grad. ratio tolernc. ....  1.125000
   Auto Start start iteration           ....    50
   Auto Start num. interpolation iter.  ....    10
   Max. Number of Micro iterations      ....    24
   Max. Number of Macro iterations      .... Maxiter - #DIIS iter
   Number of Davidson start vectors     ....     2
   Converg. threshold    (grad. norm)   ....   5.000e-05
   Grad. Scal. Fac. for Micro threshold ....   0.100
   Minimum threshold for Micro iter.    ....   1.000e-02
   NR start threshold (gradient norm)   ....   1.000e-04
   Initial trust radius                 ....   0.400
   Minimum AH scaling param. (alpha)    ....   1.000
   Maximum AH scaling param. (alpha)    .... 1000.000
   Quad. conv. algorithm                .... NR
   White noise on init. David. guess    .... on
   Maximum white noise                  ....   0.010
   Pseudo random numbers                .... off
   Inactive MOs                         .... canonical
   Orbital update algorithm             .... Taylor
   Preconditioner                       .... Diag
   Full preconditioner red. dimension   ....   250
 SOSCF                 CNVSOSCF           .... on
   Start iteration     SOSCFMaxIt         ....   150
   Startup grad/error  SOSCFStart         ....  0.003300
   Hessian update      SOSCFHessUp        .... L-BFGS
   Autom. constraints  SOSCFAutoConstrain .... off
 Level Shifting         CNVShift        .... on
   Level shift para.    LevelShift      ....    0.2500
   Turn off err/grad.   ShiftErr        ....    0.0010
 Zerner damping         CNVZerner       .... off
 Static damping         CNVDamp         .... on
   Fraction old density DampFac         ....    0.7000
   Max. Damping (<1)    DampMax         ....    0.9800
   Min. Damping (>=0)   DampMin         ....    0.0000
   Turn off err/grad.   DampErr         ....    0.1000

SCF Procedure:
 Maximum # iterations   MaxIter         ....   125
 SCF integral mode      SCFMode         .... Direct
   Integral package                     .... SHARK and LIBINT hybrid scheme
 Reset frequency        DirectResetFreq ....    20
 Integral Threshold     Thresh          ....  1.000e-10 Eh
 Primitive CutOff       TCut            ....  1.000e-11 Eh

Convergence Tolerance:
 Convergence Check Mode ConvCheckMode   .... Total+1el-Energy
 Convergence forced     ConvForced      .... 0
 Energy Change          TolE            ....  1.000e-06 Eh
 1-El. energy change                    ....  1.000e-03 Eh
 Orbital Gradient       TolG            ....  5.000e-05
 Orbital Rotation angle TolX            ....  5.000e-05
 DIIS Error             TolErr          ....  1.000e-06

------------------------------
INITIAL GUESS: MODEL POTENTIAL
------------------------------
Loading Hartree-Fock densities                     ... done
Calculating cut-offs                               ... done
Initializing the effective Hamiltonian             ... done
Setting up the integral package (SHARK)            ... done
Starting the Coulomb interaction                   ... done (   0.0 sec)
Making the grid                                    ... done (   0.0 sec)
Mapping shells                                     ... done
Starting the XC term evaluation                    ... done (   0.0 sec)
  promolecular density results
     # of electrons  =     39.996629999
     EX              =    -34.207876449
     EC              =     -1.792589477
     EX+EC           =    -36.000465926
Transforming the Hamiltonian                       ... done (   0.0 sec)
Diagonalizing the Hamiltonian                      ... done (   0.0 sec)
Back transforming the eigenvectors                 ... done (   0.0 sec)
Now organizing SCF variables                       ... done
                      ------------------
                      INITIAL GUESS DONE (   0.1 sec)
                      ------------------
             **** ENERGY FILE WAS UPDATED (4.en.tmp) ****
Finished Guess after   0.1 sec
Maximum memory used throughout the entire GUESS-calculation: 8.1 MB

-------------------------------------------------------------------------------------------
                                      ORCA LEAN-SCF
                              memory conserving SCF solver
-------------------------------------------------------------------------------------------

----------------------------------------D-I-I-S--------------------------------------------
Iteration    Energy (Eh)           Delta-E    RMSDP     MaxDP     DIISErr   Damp  Time(sec)
-------------------------------------------------------------------------------------------
               ***  Starting incremental Fock matrix formation  ***
    1    -284.0295017449954003     0.00e+00  5.93e-03  1.08e-01  2.63e-01  0.700   0.1
    2    -284.1399337745912135    -1.10e-01  3.52e-03  5.65e-02  9.56e-02  0.700   0.1
                               ***Turning on AO-DIIS***
    3    -284.1713408188882113    -3.14e-02  1.24e-03  1.51e-02  2.67e-02  0.700   0.1
    4    -284.1931110773113005    -2.18e-02  1.62e-03  1.99e-02  1.41e-02  0.000   0.1
    5    -284.2444236854005339    -5.13e-02  5.89e-04  7.77e-03  8.85e-03  0.000   0.1
                              *** Initializing SOSCF ***
---------------------------------------S-O-S-C-F--------------------------------------
Iteration    Energy (Eh)           Delta-E    RMSDP     MaxDP     MaxGrad    Time(sec)
--------------------------------------------------------------------------------------
    6    -284.2449172020518517    -4.94e-04  2.07e-04  2.92e-03  3.00e-03     0.1
               *** Restarting incremental Fock matrix formation ***
    7    -284.2449587230120187    -4.15e-05  1.67e-04  2.32e-03  5.32e-04     0.1
    8    -284.2449499275253402     8.80e-06  8.91e-05  1.80e-03  1.58e-03     0.1
    9    -284.2449633092719523    -1.34e-05  6.43e-05  9.61e-04  2.72e-04     0.1
   10    -284.2449622461359695     1.06e-06  3.34e-05  5.86e-04  2.99e-04     0.1
   11    -284.2449643843883678    -2.14e-06  1.60e-05  2.45e-04  5.89e-05     0.1
   12    -284.2449643111683599     7.32e-08  9.25e-06  1.56e-04  9.06e-05     0.1
                 **** Energy Check signals convergence ****

               *****************************************************
               *                     SUCCESS                       *
               *           SCF CONVERGED AFTER  12 CYCLES          *
               *****************************************************

             **** ENERGY FILE WAS UPDATED (4.en.tmp) ****

----------------
TOTAL SCF ENERGY
----------------

Total Energy       :       -284.24496443879445 Eh           -7734.69871 eV

Components:
Nuclear Repulsion  :        181.64291225399725 Eh            4942.75493 eV
Electronic Energy  :       -465.88787669279168 Eh          -12677.45363 eV
One Electron Energy:       -747.82122105839619 Eh          -20349.24996 eV
Two Electron Energy:        281.93334436560451 Eh            7671.79633 eV

Virial components:
Potential Energy   :       -567.04416440878344 Eh          -15430.05616 eV
Kinetic Energy     :        282.79919996998893 Eh            7695.35746 eV
Virial Ratio       :          2.00511233578086

DFT components:
N(Alpha)           :       19.999989195033 electrons
N(Beta)            :       19.999989195033 electrons
N(Total)           :       39.999978390067 electrons
E(X)               :      -34.936121191340 Eh       
E(C)               :       -1.783934890848 Eh       
E(XC)              :      -36.720056082188 Eh       

---------------
SCF CONVERGENCE
---------------

  Last Energy change         ...   -7.3220e-08  Tolerance :   1.0000e-06
  Last MAX-Density change    ...    1.5598e-04  Tolerance :   1.0000e-05
  Last RMS-Density change    ...    9.2504e-06  Tolerance :   1.0000e-06
  Last DIIS Error            ...    3.0043e-03  Tolerance :   1.0000e-06
  Last Orbital Gradient      ...    9.0646e-05  Tolerance :   5.0000e-05
  Last Orbital Rotation      ...    1.0110e-04  Tolerance :   5.0000e-05


----------------
ORBITAL ENERGIES
----------------

  NO   OCC          E(Eh)            E(eV) 
   0   2.0000     -18.792024      -511.3570 
   1   2.0000     -18.735162      -509.8097 
   2   2.0000     -14.029303      -381.7567 
   3   2.0000     -10.018251      -272.6105 
   4   2.0000      -9.955640      -270.9067 
   5   2.0000      -1.002394       -27.2765 
   6   2.0000      -0.922407       -25.1000 
   7   2.0000      -0.839699       -22.8494 
   8   2.0000      -0.647201       -17.6112 
   9   2.0000      -0.536967       -14.6116 
  10   2.0000      -0.490556       -13.3487 
  11   2.0000      -0.447549       -12.1784 
  12   2.0000      -0.434519       -11.8239 
  13   2.0000      -0.394037       -10.7223 
  14   2.0000      -0.364903        -9.9295 
  15   2.0000      -0.342580        -9.3221 
  16   2.0000      -0.311452        -8.4750 
  17   2.0000      -0.255725        -6.9586 
  18   2.0000      -0.245406        -6.6778 
  19   2.0000      -0.204367        -5.5611 
  20   0.0000      -0.005755        -0.1566 
  21   0.0000       0.038538         1.0487 
  22   0.0000       0.090857         2.4723 
  23   0.0000       0.107322         2.9204 
  24   0.0000       0.115773         3.1503 
  25   0.0000       0.157902         4.2967 
  26   0.0000       0.159935         4.3521 
  27   0.0000       0.208609         5.6765 
  28   0.0000       0.300349         8.1729 
  29   0.0000       0.350306         9.5323 
  30   0.0000       0.493964        13.4414 
*Only the first 10 virtual orbitals were printed.

                    ********************************
                    * MULLIKEN POPULATION ANALYSIS *
                    ********************************

-----------------------
MULLIKEN ATOMIC CHARGES
-----------------------
   0 C :    0.517643
   1 O :   -0.405528
   2 O :   -0.448591
   3 C :   -0.187551
   4 H :    0.327718
   5 N :   -0.621707
   6 H :    0.153777
   7 H :    0.136033
   8 H :    0.262417
   9 H :    0.265788
Sum of atomic charges:    0.0000000

--------------------------------
MULLIKEN REDUCED ORBITAL CHARGES
--------------------------------
  0 C s       :     2.972709  s :     2.972709
      pz      :     0.744278  p :     2.381950
      px      :     0.839134
      py      :     0.798538
      dz2     :     0.035466  d :     0.127698
      dxz     :     0.037953
      dyz     :     0.022296
      dx2y2   :     0.015561
      dxy     :     0.016421

  1 O s       :     3.857622  s :     3.857622
      pz      :     1.410884  p :     4.519458
      px      :     1.716489
      py      :     1.392086
      dz2     :     0.008993  d :     0.028448
      dxz     :     0.005946
      dyz     :     0.007500
      dx2y2   :     0.003315
      dxy     :     0.002694

  2 O s       :     3.825505  s :     3.825505
      pz      :     1.355422  p :     4.598771
      px      :     1.595813
      py      :     1.647536
      dz2     :     0.002443  d :     0.024314
      dxz     :     0.009615
      dyz     :     0.002359
      dx2y2   :     0.004151
      dxy     :     0.005746

  3 C s       :     3.222171  s :     3.222171
      pz      :     0.810342  p :     2.917475
      px      :     1.024132
      py      :     1.083001
      dz2     :     0.012483  d :     0.047905
      dxz     :     0.009815
      dyz     :     0.012103
      dx2y2   :     0.007033
      dxy     :     0.006471

  4 H s       :     0.631768  s :     0.631768
      pz      :     0.014687  p :     0.040514
      px      :     0.014819
      py      :     0.011008

  5 N s       :     3.609666  s :     3.609666
      pz      :     1.162812  p :     3.984755
      px      :     1.516851
      py      :     1.305092
      dz2     :     0.007103  d :     0.027285
      dxz     :     0.003135
      dyz     :     0.007455
      dx2y2   :     0.005139
      dxy     :     0.004453

  6 H s       :     0.834932  s :     0.834932
      pz      :     0.003266  p :     0.011291
      px      :     0.002864
      py      :     0.005161

  7 H s       :     0.852963  s :     0.852963
      pz      :     0.002625  p :     0.011003
      px      :     0.003556
      py      :     0.004822

  8 H s       :     0.713705  s :     0.713705
      pz      :     0.004945  p :     0.023878
      px      :     0.010453
      py      :     0.008480

  9 H s       :     0.710765  s :     0.710765
      pz      :     0.007057  p :     0.023446
      px      :     0.006504
      py      :     0.009886



                     *******************************
                     * LOEWDIN POPULATION ANALYSIS *
                     *******************************

----------------------
LOEWDIN ATOMIC CHARGES
----------------------
   0 C :    0.098720
   1 O :   -0.203271
   2 O :   -0.137222
   3 C :   -0.110362
   4 H :    0.166968
   5 N :   -0.256594
   6 H :    0.094431
   7 H :    0.076563
   8 H :    0.135024
   9 H :    0.135744

-------------------------------
LOEWDIN REDUCED ORBITAL CHARGES
-------------------------------
  0 C s       :     2.851540  s :     2.851540
      pz      :     0.925720  p :     2.742678
      px      :     0.971444
      py      :     0.845514
      dz2     :     0.086128  d :     0.307063
      dxz     :     0.093518
      dyz     :     0.054571
      dx2y2   :     0.035904
      dxy     :     0.036941

  1 O s       :     3.548693  s :     3.548693
      pz      :     1.477532  p :     4.596316
      px      :     1.712488
      py      :     1.406295
      dz2     :     0.017073  d :     0.058262
      dxz     :     0.013730
      dyz     :     0.016945
      dx2y2   :     0.005004
      dxy     :     0.005511

  2 O s       :     3.473109  s :     3.473109
      pz      :     1.369153  p :     4.611301
      px      :     1.616953
      py      :     1.625195
      dz2     :     0.007528  d :     0.052811
      dxz     :     0.022945
      dyz     :     0.007754
      dx2y2   :     0.006200
      dxy     :     0.008384

  3 C s       :     2.909643  s :     2.909643
      pz      :     0.930907  p :     3.093282
      px      :     1.066675
      py      :     1.095701
      dz2     :     0.030425  d :     0.107437
      dxz     :     0.021264
      dyz     :     0.025135
      dx2y2   :     0.016438
      dxy     :     0.014176

  4 H s       :     0.705339  s :     0.705339
      pz      :     0.045425  p :     0.127693
      px      :     0.048712
      py      :     0.033555

  5 N s       :     3.196052  s :     3.196052
      pz      :     1.211609  p :     4.004053
      px      :     1.486149
      py      :     1.306294
      dz2     :     0.016999  d :     0.056489
      dxz     :     0.007097
      dyz     :     0.016760
      dx2y2   :     0.007479
      dxy     :     0.008154

  6 H s       :     0.865743  s :     0.865743
      pz      :     0.011497  p :     0.039826
      px      :     0.008707
      py      :     0.019622

  7 H s       :     0.883025  s :     0.883025
      pz      :     0.008984  p :     0.040412
      px      :     0.013610
      py      :     0.017819

  8 H s       :     0.785223  s :     0.785223
      pz      :     0.013852  p :     0.079753
      px      :     0.039598
      py      :     0.026303

  9 H s       :     0.785332  s :     0.785332
      pz      :     0.022549  p :     0.078924
      px      :     0.019700
      py      :     0.036675



                      *****************************
                      * MAYER POPULATION ANALYSIS *
                      *****************************

  NA   - Mulliken gross atomic population
  ZA   - Total nuclear charge
  QA   - Mulliken gross atomic charge
  VA   - Mayer's total valence
  BVA  - Mayer's bonded valence
  FA   - Mayer's free valence

  ATOM       NA         ZA         QA         VA         BVA        FA
  0 C      5.4824     6.0000     0.5176     4.0036     4.0036    -0.0000
  1 O      8.4055     8.0000    -0.4055     2.1289     2.1289    -0.0000
  2 O      8.4486     8.0000    -0.4486     2.0668     2.0668    -0.0000
  3 C      6.1876     6.0000    -0.1876     3.7846     3.7846    -0.0000
  4 H      0.6723     1.0000     0.3277     0.9307     0.9307    -0.0000
  5 N      7.6217     7.0000    -0.6217     2.9107     2.9107    -0.0000
  6 H      0.8462     1.0000     0.1538     0.9441     0.9441    -0.0000
  7 H      0.8640     1.0000     0.1360     0.9488     0.9488    -0.0000
  8 H      0.7376     1.0000     0.2624     0.9123     0.9123    -0.0000
  9 H      0.7342     1.0000     0.2658     0.9055     0.9055     0.0000

  Mayer bond orders larger than 0.100000
B(  0-C ,  1-O ) :   1.9469 B(  0-C ,  2-O ) :   1.1373 B(  0-C ,  3-C ) :   0.9173 
B(  1-O ,  2-O ) :   0.1018 B(  2-O ,  4-H ) :   0.7862 B(  3-C ,  5-N ) :   0.9661 
B(  3-C ,  6-H ) :   0.9387 B(  3-C ,  7-H ) :   0.9360 B(  4-H ,  5-N ) :   0.1234 
B(  5-N ,  8-H ) :   0.9017 B(  5-N ,  9-H ) :   0.9031 

-------
TIMINGS
-------

Total SCF time: 0 days 0 hours 0 min 1 sec 

Total time                  ....       1.772 sec
Sum of individual times     ....       1.644 sec  ( 92.8%)

SCF preparation             ....       0.021 sec  (  1.2%)
Fock matrix formation       ....       1.610 sec  ( 90.8%)
  Startup                   ....       0.000 sec  (  0.0% of F)
  Split-RI-J                ....       0.364 sec  ( 22.6% of F)
  XC integration            ....       1.365 sec  ( 84.8% of F)
    XC Preparation          ....       0.000 sec  (  0.0% of XC)
    Basis function eval.    ....       0.462 sec  ( 33.8% of XC)
    Density eval.           ....       0.243 sec  ( 17.8% of XC)
    XC-Functional eval.     ....       0.353 sec  ( 25.9% of XC)
    XC-Potential eval.      ....       0.269 sec  ( 19.7% of XC)
Diagonalization             ....       0.000 sec  (  0.0%)
Density matrix formation    ....       0.001 sec  (  0.1%)
Total Energy calculation    ....       0.000 sec  (  0.0%)
Population analysis         ....       0.001 sec  (  0.1%)
Orbital Transformation      ....       0.001 sec  (  0.1%)
Orbital Orthonormalization  ....       0.000 sec  (  0.0%)
DIIS solution               ....       0.006 sec  (  0.3%)
SOSCF solution              ....       0.003 sec  (  0.2%)
Finished LeanSCF after   1.8 sec

Maximum memory used throughout the entire LEANSCF-calculation: 10.2 MB



-------------------------------------------------------------------------------
                          DFT DISPERSION CORRECTION                            
-------------------------------------------------------------------------------
Active option DFTDOPT                   ...         2   
Final C6-coefficient scaling factor     ...     1.250
Final VDW-radii scaling factor          ...     1.100
Damping factor alpha                    ...    20.000
-------------------------   ----------------
Dispersion correction           -0.007028260
-------------------------   ----------------


-------------------------   --------------------
FINAL SINGLE POINT ENERGY      -284.251992699040
-------------------------   --------------------


------------------------------------------------------------------------------
                              ORCA PROPERTY CALCULATIONS
------------------------------------------------------------------------------

GBWName                                 ... 4.gbw
Number of atoms                         ...     10
Number of basis functions               ...     95
Max core memory                         ...   4096 MB

Electric properties:
Dipole moment                           ... YES
Quadrupole moment                       ...  NO
Static polarizability (Dipole/Dipole)   ...  NO
Static polarizability (Dipole/Quad.)    ...  NO
Static polarizability (Quad./Quad.)     ...  NO
Static polarizability (Velocity)        ...  NO
Static hyperpolarizability              ...  NO

Atomic electric properties:
Dipole moment                           ...  NO
Quadrupole moment                       ...  NO
Static polarizability                   ...  NO

Choice of electric origin               ... Center of mass
Position of electric origin             ...    -9.108219     0.026758    -4.144791

General magnetic properties:
Magnetizability                         ...  NO

EPR properties:
g-Tensor (aka g-matrix)                 ...  NO
Zero-Field splitting spin-orbit         ...  NO
Zero-field splitting spin-spin          ...  NO
Hyperfine couplings                     ...  NO (   0 nuclei)
Quadrupole couplings                    ...  NO (   0 nuclei)
Contact density                         ...  NO (   0 nuclei)

NMR properties:
Chemical shifts                         ...  NO (   0 nuclei)
Spin-rotation constants                 ...  NO (   0 nuclei)
Spin-spin couplings                     ...  NO (   0 nuclei,    0 pairs)

Choice of magnetic origin               ... GIAO
Position of magnetic origin             ...     0.000000     0.000000     0.000000

Properties with geometric perturbations:
SCF Hessian                             ...  NO
IR spectrum                             ...  NO
VCD spectrum                            ...  NO
X-ray spectroscopy properties:
SCF XES/XAS/RIXS spectra                ...  NO

SCF SOC stabilization energy            ...  NO
Diagonal Born-Oppenheimer correction    ...  NO

-------------
DIPOLE MOMENT
-------------

Method             : SCF
Type of density    : Electron Density
Multiplicity       :   1
Irrep              :   0
Energy             :  -284.2449644387944545 Eh
Basis              : AO
                                X                 Y                 Z
Electronic contribution:      3.805720250       1.105525627       1.771822912
Nuclear contribution   :     -5.453084886      -1.614205717      -2.875106352
                        -----------------------------------------
Total Dipole Moment    :     -1.647364635      -0.508680090      -1.103283440
                        -----------------------------------------
Magnitude (a.u.)       :      2.046900101
Magnitude (Debye)      :      5.202806583



--------------------
Rotational spectrum 
--------------------
 
Rotational constants in cm-1:             0.339601             0.138942             0.103061 
Rotational constants in MHz :         10180.989491          4165.373065          3089.691789 

Dipole components along the rotational axes: 
x,y,z [a.u.] :     2.028086     0.271443    -0.054653 
x,y,z [Debye]:     5.154984     0.689953    -0.138917 

 

Dipole moment calculation done in   0.0 sec 

Maximum memory used throughout the entire PROP-calculation: 5.8 MB

--------------------------------
SUGGESTED CITATIONS FOR THIS RUN
--------------------------------

Below you find a list of papers that are relevant to this ORCA run
We neither can nor want to force you to cite these papers, but we appreciate if you do
You receive ORCA, which is the product of decades of hard work by many enthusiastic individuals, for free
The only thing we kindly ask in return is that you cite our papers,
We deeply appreciate it, if you show your appreciation for ORCA by not just citing the generic ORCA reference.

Please note that relegating all ORCA citations to the supporting information does *not* help us.
SI sections are not indexed - citations you put there will not count into any citation statistics
But we need these citations in order to attract the funding resources that allow us to do what we are doing

Therefore, if you are a happy ORCA user, please consider citing a few of the papers listed below in the main body of your paper

In addition to the list printed below, the program has created the file 4.bibtex that contains the list in bibtex format
You can import this file easily into all common literature databanks and citation aid programs


List of essential papers. We consider these as the minimum necessary citations

  1. Neese, F.
     Software update: the ORCA program system, version 6.0
     WIRES Comput. Molec. Sci. 2025 15(1), e70019
     doi.org/10.1002/wcms.7019

List of papers to cite with high priority. The work reported in these papers was absolutely
necessary for this run to complete.
Our perspective: the developers of density functionals and basis sets usually get cited in chemistry papers
Good! But without the algorithms to do something with them, the functionals or basis sets would not do anything.
Hence, in our opinion, the algorithm design and method developments papers are equally worthy of getting cited

  1. Neese, F.
     An improvement of the resolution of the identity approximation for the formation of the Coulomb matrix
     J. Comp. Chem. 2003 24(14), 1740-1747
     doi.org/10.1002/jcc.10318
  2. Grimme, S.
     Semiempirical GGA-type density functional constructed with a long-range dispersion correction
     J.Comput.Chem. 2006 27(15), 1787-1799
     doi.org/10.1002/jcc.20495
  3. Neese, F.
     The SHARK Integral Generation and Digestion System
     J. Comp. Chem. 2022 44(3), 381
     doi.org/10.1002/jcc.26942

List of suggested additional citations. These are papers that are important in the 'surrounding' of 
of this run, or papers that preceded the highly important papers. If you like your results we are grateful for a citation.

  1. Neese, F.
     The ORCA program system
     WIRES Comput. Molec. Sci. 2012 2(1), 73-78
     doi.org/10.1002/wcms.81
  2. Neese, F.
     Software update: the ORCA program system, version 4.0
     WIRES Comput. Molec. Sci. 2018 8(1), 1-6
     doi.org/10.1002/wcms.1327
  3. Neese, F.; Wennmohs, F.; Becker, U.; Riplinger, C.
     The ORCA quantum chemistry program package
     J. Chem. Phys. 2020 152(22), 224108
     doi.org/10.1063/5.0004608
  4. Neese, F.
     Software update: The ORCA program system—Version 5.0
     WIRES Comput. Molec. Sci. 2022 12(1), e1606
     doi.org/10.1002/wcms.1606

List of optional additional citations

  1. Neese, F.
     Approximate second-order SCF convergence for spin unrestricted wavefunctions
     Chem. Phys. Lett. 2000 325(1-3), 93-98
     doi.org/10.1016/s0009-2614(00)00662-x

Timings for individual modules:

Sum of individual times          ...        2.090 sec (=   0.035 min)
Startup calculation              ...        0.176 sec (=   0.003 min)   8.4 %
SCF iterations                   ...        1.886 sec (=   0.031 min)  90.3 %
Property calculations            ...        0.027 sec (=   0.000 min)   1.3 %
                             ****ORCA TERMINATED NORMALLY****
TOTAL RUN TIME: 0 days 0 hours 0 minutes 2 seconds 126 msec
