
                                 *****************
                                 * O   R   C   A *
                                 *****************

                                            #,                                       
                                            ###                                      
                                            ####                                     
                                            #####                                    
                                            ######                                   
                                           ########,                                 
                                     ,,################,,,,,                         
                               ,,#################################,,                 
                          ,,##########################################,,             
                       ,#########################################, ''#####,          
                    ,#############################################,,   '####,        
                  ,##################################################,,,,####,       
                ,###########''''           ''''###############################       
              ,#####''   ,,,,##########,,,,          '''####'''          '####       
            ,##' ,,,,###########################,,,                        '##       
           ' ,,###''''                  '''############,,,                           
         ,,##''                                '''############,,,,        ,,,,,,###''
      ,#''                                            '''#######################'''  
     '                                                          ''''####''''         
             ,#######,   #######,   ,#######,      ##                                
            ,#'     '#,  ##    ##  ,#'     '#,    #''#        ,####,    ,#,          
            ##       ##  ##   ,#'  ##            #'  '#       #'       ,# #          
            ##       ##  #######   ##           ,######,      #####,      #          
            '#,     ,#'  ##    ##  '#,     ,#' ,#      #,     #,   #      #          
             '#######'   ##     ##  '#######'  #'      '#     '####' #    #          



                #########################################################
                #                        -***-                          #
                #          Department of theory and spectroscopy        #
                #                                                       #
                #                      Frank Neese                      #
                #                                                       #
                #     Directorship, Architecture, Infrastructure        #
                #                    SHARK, DRIVERS                     #
                #        Core code/Algorithms in most modules           #
                #                                                       #
                #        Max Planck Institute fuer Kohlenforschung      #
                #                Kaiser Wilhelm Platz 1                 #
                #                 D-45470 Muelheim/Ruhr                 #
                #                      Germany                          #
                #                                                       #
                #                  All rights reserved                  #
                #                        -***-                          #
                #########################################################


                         Program Version 6.1.0  -  RELEASE   -
                                (GIT: $679e74b$)
                          ($2025-06-10 18:02:51 +0200$)


 With contributions from (in alphabetic order):
[Max-Planck-Institut fuer Kohlenforschung]                               
  Daniel Aravena         : Magnetic Suceptibility                        
  Michael Atanasov       : Ab Initio Ligand Field Theory (pilot matlab implementation)
  Alexander A. Auer      : GIAO ZORA, VPT2 properties, NMR spectrum      
  Ute Becker             : All parallelization in ORCA, NUMFREQ, NUMCALC 
  Giovanni Bistoni       : ED, misc. LED, open-shell LED, HFLD           
  Dmytro Bykov           : pre 5.0 version of the SCF Hessian            
  Marcos Casanova-Páez   : Triplet and SCS-CIS(D). UHF-(DLPNO)-IP/EA/STEOM-CCSD. UHF-CVS-IP/STEOM-CCSD   
  Vijay G. Chilkuri      : MRCI spin determinant printing, contributions to CSF-ICE 
  Pauline Colinet        : FMM embedding                                 
  Dipayan Datta          : RHF DLPNO-CCSD density                        
  Achintya Kumar Dutta   : EOM-CC, STEOM-CC                              
  Nicolas Foglia         : Exact transition moments, OPA infrastructure, MCD improvements    
  Dmitry Ganyushin       : Spin-Orbit,Spin-Spin,Magnetic field MRCI      
  Miquel Garcia-Rates    : C-PCM and meta-GGA Hessian, CCSD/C-PCM, Gaussian charge scheme 
  Tiago L. C. Gouveia    : GS-ROHF, GS-ROCIS                             
  Yang Guo               : DLPNO-NEVPT2, F12-NEVPT2, CIM, IAO-localization        
  Andreas Hansen         : Spin unrestricted coupled pair/coupled cluster methods 
  Ingolf Harden          : AUTO-CI MPn and infrastructure                
  Benjamin Helmich-Paris : MC-RPA, TRAH-(SCF,CASSCF), AVAS, COSX integrals, SCF dyn. polar., MC-PDFT, srDFT 
  Lee Huntington         : MR-EOM, pCC                                   
  Robert Izsak           : Overlap fitted RIJCOSX, COSX-SCS-MP3, EOM     
  Riya Kayal             : Wick's Theorem for AUTO-CI, AUTO-CI UHF-CCSDT 
  Emily Kempfer          : AUTO-CI RHF CISDT and CCSDT, approximate NEVPT4
  Christian Kollmar      : KDIIS, OOCD, Brueckner-CCSD(T), CCSD density, CASPT2, CASPT2-K, improved NEVPT2 
  Axel Koslowski         : Symmetry handling                             
  Simone Kossmann        : meta-GGA functionals, TD-DFT gradient, OOMP2, (MP2 Hessian; deprecated post 5.0) 
  Lucas Lang             : DCDCAS, Hyperfine gauge corrections, ICE-SOC+SSC
  Marvin Lechner         : AUTO-CI (C++ implementation), FIC-MRCC        
  Spencer Leger          : CASSCF response                               
  Dagmar Lenk            : GEPOL surface, SMD, ORCA-2-JSON               
  Dimitrios Liakos       : Extrapolation schemes; Compound Job, Property file
  Dimitrios Manganas     : Further ROCIS development; embedding schemes. LFT, Crystal Embedding 
  Dimitrios Pantazis     : SARC Basis sets                               
  Anastasios Papadopoulos: AUTO-CI, single reference methods and gradients 
  Taras Petrenko         : pre 6.0 DFT Hessian and TD-DFT gradient,  ECA, NRVS 
  Petra Pikulova         : Analytic Raman intensities                    
  Peter Pinski           : DLPNO-MP2, DLPNO-MP2 Gradient                 
  Shashank Vittal Rao    : ES-AILFT, MagRelax                            
  Christoph Reimann      : Effective Core Potentials                     
  Marius Retegan         : Local ZFS, SOC                                
  Christoph Riplinger    : Optimizer, TS searches, QM/MM, DLPNO-CCSD(T), (RO)-DLPNO pert. Triples 
  Michael Roemelt        : Original ROCIS implementation, recursive CI coupling coefficients
  Masaaki Saitow         : Open-shell DLPNO-CCSD energy and density      
  Barbara Sandhoefer     : DKH picture change effects                    
  Yorick L. A. Schmerwitz: GMF and freeze-and-release deltaSCF, NEB S-IDPP initial path                    
  Kantharuban Sivalingam : CASSCF convergence/infrastructure, NEVPT2, NEVPT3, NEVPT4(SD), FIC-MRCI and CEPA variants
  Bernardo de Souza      : ESD, SOC TD-DFT                               
  Georgi L. Stoychev     : AutoAux, RI-MP2 NMR, DLPNO-MP2 response, X2C  
  Van Anh Tran           : RI-MP2 g-tensors                              
  Willem Van den Heuvel  : Paramagnetic NMR                              
  Zikuan Wang            : NOTCH, Electric field optimization            
  Frank Wennmohs         : Technical directorship and infrastructure     
  Hang Xu                : AUTO-CI-Response properties                   
                                                                         
[FACCTs GmbH]                                                            
  Markus Bursch, Nicolas Foglia, Miquel Garcia-Rates, Ingolf Harden, Hagen Neugebauer, Anastasios Papadopoulos, 
  Christoph Riplinger, Bernardo de Souza, Georgi L. Stoychev                                                    
                                                                 
  APM, various basis sets, CI-OPT, improved COSX, DLPNO-Multilevel,           
  DOCKER, DRACO, updates on ESD, Fragmentator, GOAT, IRC, LR-CPCM, L-BFGS, MBIS, meta-GGA TD-DFT gradient, ML-optimized integration grids, 
  MM, NACMEs, nearIR, NEB, NEB-TS, NL-DFT gradient (VV10), 2- and 3-layer-ONIOM, interface openCOSMO-RS, QMMM,   
  Crystal-QMMM, RESP, rigid body optimization, SF, symmetry and pop. for TD-DFT, various functionals, SOLVATOR                                   
                                                                         
[Other institutions]                                                     
  V. Asgeirsson          : NEB                                           
  Christoph Bannwarth    : sTDA-DFT, sTD-DFT, PBEh-3c, B97-3c, D3        
  Giovanni Bistoni       : ETS/NOCV, ADLD/ADEX, COVALED                  
  Martin Brehm           : Molecular dynamics                            
  Ronald Cardenas        : ETS/NOCV                                      
  Martina Colucci        : COVALED                                       
  Sebastian Ehlert       : rSCAN, r2SCAN, r2SCAN-3c, D4, dhf basis sets  
  Marvin Friede          : D4 for Fr, Ra, Ac-Lr                          
  Lars Goerigk           : TD-DFT with DH, B97 family of functionals     
  Stefan Grimme          : VdW corrections, initial TS optimization, DFT functionals, gCP, sTDA/sTD-DF 
  Waldemar Hujo          : DFT-NL                                        
  H. Jonsson             : NEB                                           
  Holger Kruse           : gCP                                           
  Marcel Mueller         : wB97X-3c, vDZP basis set                      
  Hagen Neugebauer       : wr2SCAN, Native XTB                           
  Gianluca Regni         : ADLD/ADEX                                     
  Tobias Risthaus        : pre 6.0 range-separated hybrid DFT and stability analysis
  Lukas Wittmann         : regularized MP2, r2SCAN double-hybrids, wr2SCAN        
                                                                         
We gratefully acknowledge several colleagues who have allowed us to      
interface, adapt or use parts of their codes:                            
  Ed Valeev, F. Pavosevic, A. Kumar             : LibInt (2-el integral package), F12 methods 
  Garnet Chan, S. Sharma, J. Yang, R. Olivares  : DMRG                   
  Ulf Ekstrom                                   : XCFun DFT Library      
  Mihaly Kallay                                 : mrcc  (arbitrary order and MRCC methods)
  Frank Weinhold                                : gennbo (NPA and NBO analysis)           
  Simon Mueller                                 : openCOSMO-RS                            
  Christopher J. Cramer and Donald G. Truhlar   : smd solvation model                     
  S Lehtola, MJT Oliveira, MAL Marques          : LibXC Library                           
  Liviu Ungur et al                             : ANISO software                          


 Your calculation uses the libint2 library for the computation of 2-el integrals
 For citations please refer to: http://libint.valeyev.net

 Your ORCA version has been built with support for libXC version: 7.0.0
 For citations please refer to: https://libxc.gitlab.io

 This ORCA versions uses:
   CBLAS   interface :  Fast vector & matrix operations
   LAPACKE interface :  Fast linear algebra routines
   SCALAPACK package :  Parallel linear algebra routines
   Shared memory     :  Shared parallel matrices
   BLAS/LAPACK       :  OpenBLAS 0.3.29  USE64BITINT DYNAMIC_ARCH NO_AFFINITY Haswell SINGLE_THREADED
        Core in use  :  Haswell
   Copyright (c) 2011-2014, The OpenBLAS Project


  ***********************************
  * Starting time: Sat Aug 30 15:36:46 2025
  * Host name:     chemlab03
  * Process ID:    79266
  * Working dir.:  /home/vivek/mm-project/vivek/xtb-goat/B97-D-opt/f/1
  ***********************************



***************************************
The coordinates will be read from file: /home/vivek/mm-project/vivek/xtb-goat/xtb-goat/f/F_CONF/1.xyz
***************************************


Your calculation utilizes empirical dispersion correction


Warning: RI is on but no J-basis has been assigned. Assigning Def2/J (nothing to worry about!)
================================================================================

----- Orbital basis set information -----
Your calculation utilizes the basis: 6-31G**
   H-He, Li-Ne : W. J. Hehre, R. Ditchfield and J.A. Pople, J. Chem. Phys. 56, 2257 (1972).
                 Note: He and Ne are unpublished basis sets taken from the Gaussian program.
                 Note: Li and B from J. D. Dill and J. A. Pople, J. Chem. Phys. 62, 2921 (1975).
   Na - Ar     : M. M. Francl, W. J. Pietro, W. J. Hehre, J. S. Binkley, M. S. Gordon, 
                 D. J. DeFrees and J. A. Pople, J. Chem. Phys. 77, 3654 (1982).
   K - Zn      : V. A. Rassolov, J. A. Pople, M. A. Ratner, and T. L. Windus, J. Chem. Phys. 109, 1223 (1998).

----- AuxJ basis set information -----
Your calculation utilizes the auxiliary basis: def2/J
   H-Rn: F. Weigend, Phys. Chem. Chem. Phys. 8, 1057 (2006).
   Fr-Lr: K. Eichkorn, F. Weigend, O. Treutler, R. Ahlrichs; Theor. Chem. Acc. 97, 119 (1997).

================================================================================
                                        WARNINGS
                       Please study these warnings very carefully!
================================================================================


WARNING: Geometry Optimization
  ===> : Switching off AutoStart
         For restart on a previous wavefunction, please use MOREAD

INFO   : The exchange functional is Grimme's B97(-D)
         As described in S. Grimme, J. Comput. Chem. 27, 1787 (2006).
         Note that this functional defaults to a pure GGA. 

INFO   : The correlation functional is Grimme's B97(-D)
         As described in S. Grimme, J. Comput. Chem. 27, 1787 (2006).

================================================================================
                                       INPUT FILE
================================================================================
NAME = 1.inp
|  1> ! B97-D 6-31G** opt
|  2> 
|  3> * xyzfile 0 1 /home/vivek/mm-project/vivek/xtb-goat/xtb-goat/f/F_CONF/1.xyz
|  4> 
|  5>                          ****END OF INPUT****
================================================================================

                       *****************************
                       * Geometry Optimization Run *
                       *****************************

Geometry optimization settings:
Update method            Update   .... BFGS
Choice of coordinates    CoordSys .... (2022) Redundant Internals
Initial Hessian          InHess   .... Almloef's Model
Max. no of cycles        MaxIter  .... 69

Convergence Tolerances:
Energy Change            TolE     ....  5.0000e-06 Eh
Max. Gradient            TolMAXG  ....  3.0000e-04 Eh/bohr
RMS Gradient             TolRMSG  ....  1.0000e-04 Eh/bohr
Max. Displacement        TolMAXD  ....  4.0000e-03 bohr
RMS Displacement         TolRMSD  ....  2.0000e-03 bohr
Strict Convergence                .... False

------------------------------------------------------------------------------
                        ORCA OPTIMIZATION COORDINATE SETUP
------------------------------------------------------------------------------

The optimization will be done in redundant internal coordinates (2022)
Making redundant internal coordinates   ...  (2022 redundants) done
Evaluating the initial hessian          ...  (Almloef) done
Evaluating the coordinates              ...  done
Calculating the B-matrix                .... done
Calculating the G-matrix                .... done
The number of degrees of freedom        ....  107

    -----------------------------------------------------------------
                    Redundant Internal Coordinates


    -----------------------------------------------------------------
         Definition                    Initial Value    Approx d2E/dq
    -----------------------------------------------------------------
      1. B(C   1,C   0)                  1.3839         0.638917   
      2. B(H   4,C   2)                  1.0806         0.372728   
      3. B(C   5,C   1)                  1.3838         0.639145   
      4. B(H   7,C   1)                  1.0804         0.372996   
      5. B(C   8,C   5)                  1.3887         0.627824   
      6. B(C   8,C   6)                  1.5006         0.416145   
      7. B(C   8,C   2)                  1.3894         0.626285   
      8. B(H   9,C   0)                  1.0800         0.373555   
      9. B(C  10,H   3)                  1.0802         0.373248   
     10. B(C  10,C   2)                  1.3829         0.641249   
     11. B(C  10,C   0)                  1.3846         0.637241   
     12. B(H  11,C   5)                  1.0814         0.371661   
     13. B(C  12,C   6)                  1.5452         0.353227   
     14. B(H  13,C   6)                  1.0919         0.357620   
     15. B(H  14,C   6)                  1.0907         0.359222   
     16. B(C  15,C  12)                  1.5234         0.382679   
     17. B(N  17,C  12)                  1.4494         0.449925   
     18. B(O  18,H  16)                  0.9711         0.499205   
     19. B(O  18,C  15)                  1.3350         0.684833   
     20. B(H  19,N  17)                  1.0146         0.425395   
     21. B(O  20,C  15)                  1.2035         1.110263   
     22. B(H  21,C  12)                  1.0941         0.354702   
     23. B(H  22,N  17)                  1.0162         0.423021   
     24. A(C   1,C   0,C  10)          119.6999         0.438585   
     25. A(C   1,C   0,H   9)          120.1567         0.356926   
     26. A(H   9,C   0,C  10)          120.1434         0.356766   
     27. A(C   0,C   1,C   5)          120.0894         0.438821   
     28. A(C   0,C   1,H   7)          120.0677         0.356835   
     29. A(C   5,C   1,H   7)          119.8429         0.356856   
     30. A(C   8,C   2,C  10)          120.6298         0.437503   
     31. A(H   4,C   2,C   8)          119.4206         0.355584   
     32. A(H   4,C   2,C  10)          119.9494         0.357012   
     33. A(C   1,C   5,C   8)          120.6404         0.437437   
     34. A(C   8,C   5,H  11)          119.5172         0.355559   
     35. A(C   1,C   5,H  11)          119.8425         0.356639   
     36. A(C  12,C   6,H  14)          107.0689         0.321226   
     37. A(H  13,C   6,H  14)          108.4978         0.290413   
     38. A(C   8,C   6,H  14)          110.8949         0.330004   
     39. A(C  12,C   6,H  13)          108.2782         0.320991   
     40. A(C   8,C   6,H  13)          110.5231         0.329760   
     41. A(C   8,C   6,C  12)          111.4473         0.366594   
     42. A(C   5,C   8,C   6)          120.7751         0.405188   
     43. A(C   2,C   8,C   6)          120.3693         0.405012   
     44. A(C   2,C   8,C   5)          118.8311         0.435838   
     45. A(C   0,C  10,H   3)          120.0099         0.356717   
     46. A(C   0,C  10,C   2)          120.1093         0.438873   
     47. A(C   2,C  10,H   3)          119.8807         0.357097   
     48. A(C  15,C  12,N  17)          112.6256         0.374342   
     49. A(C   6,C  12,N  17)          109.0239         0.369216   
     50. A(C   6,C  12,C  15)          107.8660         0.361376   
     51. A(N  17,C  12,H  21)          109.3844         0.331585   
     52. A(C  15,C  12,H  21)          108.5674         0.324797   
     53. A(C   6,C  12,H  21)          109.3196         0.320562   
     54. A(C  12,C  15,O  20)          124.3222         0.439070   
     55. A(C  12,C  15,O  18)          112.6097         0.402805   
     56. A(O  18,C  15,O  20)          123.0679         0.485071   
     57. A(C  12,N  17,H  19)          110.5620         0.338826   
     58. A(H  19,N  17,H  22)          107.2311         0.301341   
     59. A(C  12,N  17,H  22)          109.2019         0.338509   
     60. A(C  15,O  18,H  16)          110.8275         0.373878   
     61. D(C   5,C   1,C   0,C  10)      0.1151         0.028356   
     62. D(C   5,C   1,C   0,H   9)   -179.9611         0.028356   
     63. D(H   7,C   1,C   0,H   9)      0.0331         0.028356   
     64. D(H   7,C   1,C   0,C  10)   -179.8907         0.028356   
     65. D(H  11,C   5,C   1,H   7)     -0.0601         0.028377   
     66. D(H  11,C   5,C   1,C   0)    179.9341         0.028377   
     67. D(C   8,C   5,C   1,C   0)     -0.0774         0.028377   
     68. D(C   8,C   5,C   1,H   7)    179.9283         0.028377   
     69. D(C   6,C   8,C   5,C   1)    178.2343         0.027317   
     70. D(C   6,C   8,C   2,C  10)   -178.2335         0.027175   
     71. D(C   2,C   8,C   5,C   1)      0.0304         0.027317   
     72. D(C   2,C   8,C   5,H  11)   -179.9811         0.027317   
     73. D(C   5,C   8,C   6,C  12)    -98.7855         0.012813   
     74. D(C   5,C   8,C   2,C  10)     -0.0221         0.027175   
     75. D(C   5,C   8,C   2,H   4)   -179.8275         0.027175   
     76. D(C   2,C   8,C   6,H  13)   -160.1541         0.012813   
     77. D(C   2,C   8,C   6,C  12)     79.3908         0.012813   
     78. D(C   2,C   8,C   6,H  14)    -39.7878         0.012813   
     79. D(C   6,C   8,C   5,H  11)     -1.7772         0.027317   
     80. D(C   6,C   8,C   2,H   4)      1.9611         0.027175   
     81. D(C   5,C   8,C   6,H  13)     21.6696         0.012813   
     82. D(H   3,C  10,C   2,C   8)   -179.9282         0.028577   
     83. D(H   3,C  10,C   2,H   4)     -0.1238         0.028577   
     84. D(C   0,C  10,C   2,C   8)      0.0607         0.028577   
     85. D(C   0,C  10,C   2,H   4)    179.8651         0.028577   
     86. D(H   3,C  10,C   0,H   9)     -0.0417         0.028197   
     87. D(H   3,C  10,C   0,C   1)    179.8821         0.028197   
     88. D(C   2,C  10,C   0,H   9)    179.9694         0.028197   
     89. D(C   2,C  10,C   0,C   1)     -0.1068         0.028197   
     90. D(C  15,C  12,C   6,H  13)    -60.4411         0.010038   
     91. D(C  15,C  12,C   6,C   8)     61.3242         0.010038   
     92. D(N  17,C  12,C   6,H  14)    -54.6505         0.010038   
     93. D(N  17,C  12,C   6,H  13)     62.1535         0.010038   
     94. D(N  17,C  12,C   6,C   8)   -176.0813         0.010038   
     95. D(C  15,C  12,C   6,H  14)   -177.2451         0.010038   
     96. D(O  20,C  15,C  12,N  17)    -32.3906         0.010918   
     97. D(O  20,C  15,C  12,C   6)     87.9659         0.010918   
     98. D(O  18,C  15,C  12,H  21)     26.1767         0.010918   
     99. D(O  18,C  15,C  12,N  17)    147.4635         0.010918   
    100. D(O  18,C  15,C  12,C   6)    -92.1801         0.010918   
    101. D(H  22,N  17,C  12,C  15)     52.8193         0.017269   
    102. D(H  22,N  17,C  12,C   6)    -66.8688         0.017269   
    103. D(H  19,N  17,C  12,H  21)     55.8862         0.017269   
    104. D(H  19,N  17,C  12,C  15)    -64.9340         0.017269   
    105. D(H  19,N  17,C  12,C   6)    175.3779         0.017269   
    106. D(H  16,O  18,C  15,O  20)     -2.7549         0.034977   
    107. D(H  16,O  18,C  15,C  12)    177.3889         0.034977   
    -----------------------------------------------------------------

Number of atoms                         .... 23
Number of degrees of freedom            .... 107


         *************************************************************
         *                GEOMETRY OPTIMIZATION CYCLE   1            *
         *************************************************************
---------------------------------
CARTESIAN COORDINATES (ANGSTROEM)
---------------------------------
  C     -6.310255    0.103756   -0.403478
  C     -5.323864    0.191432   -1.370210
  C     -5.246177    1.864696    0.828463
  H     -7.037927    0.881095    1.453007
  H     -5.218113    2.520629    1.686775
  C     -4.300731    1.113438   -1.235824
  C     -3.121500    2.933674    0.032640
  H     -5.350815   -0.460032   -2.231709
  C     -4.250709    1.959866   -0.136050
  H     -7.108923   -0.615864   -0.506952
  C     -6.269519    0.943936    0.696360
  H     -3.531438    1.177800   -1.993101
  C     -2.048712    2.392094    1.004032
  H     -2.643169    3.135299   -0.927959
  H     -3.480054    3.877356    0.445497
  C     -1.485572    1.107503    0.409401
  H     -1.777776   -0.779774    0.410344
  N     -1.033358    3.407573    1.200396
  O     -2.130122    0.018898    0.835764
  H     -0.356569    3.105500    1.893361
  O     -0.560284    1.064033   -0.358950
  H     -2.516364    2.155659    1.964490
  H     -0.529549    3.549274    0.329370

----------------------------
CARTESIAN COORDINATES (A.U.)
----------------------------
  NO LB      ZA    FRAG     MASS         X           Y           Z
   0 C     6.0000    0    12.011  -11.924653    0.196070   -0.762463
   1 C     6.0000    0    12.011  -10.060644    0.361754   -2.589321
   2 C     6.0000    0    12.011   -9.913837    3.523764    1.565569
   3 H     1.0000    0     1.008  -13.299754    1.665028    2.745786
   4 H     1.0000    0     1.008   -9.860805    4.763299    3.187542
   5 C     6.0000    0    12.011   -8.127204    2.104094   -2.335370
   6 C     6.0000    0    12.011   -5.898780    5.543840    0.061681
   7 H     1.0000    0     1.008  -10.111576   -0.869334   -4.217318
   8 C     6.0000    0    12.011   -8.032677    3.703609   -0.257098
   9 H     1.0000    0     1.008  -13.433918   -1.163815   -0.958001
  10 C     6.0000    0    12.011  -11.847674    1.783780    1.315929
  11 H     1.0000    0     1.008   -6.673451    2.225719   -3.766414
  12 C     6.0000    0    12.011   -3.871505    4.520402    1.897346
  13 H     1.0000    0     1.008   -4.994866    5.924857   -1.753589
  14 H     1.0000    0     1.008   -6.576349    7.327141    0.841868
  15 C     6.0000    0    12.011   -2.807325    2.092878    0.773656
  16 H     1.0000    0     1.008   -3.359510   -1.473560    0.775438
  17 N     7.0000    0    14.007   -1.952764    6.439380    2.268419
  18 O     8.0000    0    15.999   -4.025348    0.035713    1.579366
  19 H     1.0000    0     1.008   -0.673817    5.868545    3.577935
  20 O     8.0000    0    15.999   -1.058784    2.010731   -0.678316
  21 H     1.0000    0     1.008   -4.755239    4.073605    3.712348
  22 H     1.0000    0     1.008   -1.000703    6.707156    0.622420

--------------------------------
INTERNAL COORDINATES (ANGSTROEM)
--------------------------------
 C      0   0   0     0.000000000000     0.00000000     0.00000000
 C      1   0   0     1.383916450797     0.00000000     0.00000000
 C      1   2   0     2.398093130343    89.77500033     0.00000000
 H      3   1   2     2.137263115236    55.95738853   179.90134341
 H      3   1   2     1.080617686173   149.91490890   179.67410332
 C      2   1   3     1.383819178885   120.08942068     0.06178968
 C      3   1   2     2.508046893327   121.72637282   358.86905533
 H      2   1   3     1.080422197302   120.06766783   180.05600325
 C      6   2   1     1.388684203980   120.64035140   359.92255233
 H      1   2   3     1.080014707411   120.15666478   179.97707021
 C      4   3   1     1.080238228412    34.12757072     0.00000000
 H      6   2   1     1.081397870138   119.84247303   179.93409154
 C      7   3   1     1.545246001280   103.84394183   252.53920391
 H      7   3   1     1.091881228411   136.80078879    29.78812399
 H      7   3   1     1.090664209106    88.29064282   145.37664006
 C     13   7   3     1.523445236981   107.86600369    90.26006118
 H     16  13   7     1.909764552550   140.94438274   269.78920518
 N     13   7   3     1.449378956606   109.02392932   212.85461354
 O     17  16  13     0.971086270282    40.79636959   356.17280081
 H     18  13   7     1.014639809691   110.56203277   175.37790363
 O     16  13   7     1.203499138000   124.32224414    87.96586190
 H     13   7   3     1.094111061493   109.31963614   332.38648040
 H     18  13   7     1.016163097587   109.20185192   293.13122496

---------------------------
INTERNAL COORDINATES (A.U.)
---------------------------
 C      0   0   0     0.000000000000     0.00000000     0.00000000
 C      1   0   0     2.615223084235     0.00000000     0.00000000
 C      1   2   0     4.531739259987    89.77500033     0.00000000
 H      3   1   2     4.038841963928    55.95738853   179.90134341
 H      3   1   2     2.042071482339   149.91490890   179.67410332
 C      2   1   3     2.615039266960   120.08942068     0.06178968
 C      3   1   2     4.739521759421   121.72637282   358.86905533
 H      2   1   3     2.041702061909   120.06766783   180.05600325
 C      6   2   1     2.624232832025   120.64035140   359.92255233
 H      1   2   3     2.040932017614   120.15666478   179.97707021
 C      4   3   1     2.041354411092    34.12757072     0.00000000
 H      6   2   1     2.043545816367   119.84247303   179.93409154
 C      7   3   1     2.920091751956   103.84394183   252.53920391
 H      7   3   1     2.063356492466   136.80078879    29.78812399
 H      7   3   1     2.061056659280    88.29064282   145.37664006
 C     13   7   3     2.878894277922   107.86600369    90.26006118
 H     16  13   7     3.608931984590   140.94438274   269.78920518
 N     13   7   3     2.738929292253   109.02392932   212.85461354
 O     17  16  13     1.835087103243    40.79636959   356.17280081
 H     18  13   7     1.917391364890   110.56203277   175.37790363
 O     16  13   7     2.274283773231   124.32224414    87.96586190
 H     13   7   3     2.067570266315   109.31963614   332.38648040
 H     18  13   7     1.920269961836   109.20185192   293.13122496

---------------------
BASIS SET INFORMATION
---------------------
There are 4 groups of distinct atoms

 Group   1 Type C   : 10s4p1d contracted to 3s2p1d pattern {631/31/1}
 Group   2 Type H   : 4s1p contracted to 2s1p pattern {31/1}
 Group   3 Type N   : 10s4p1d contracted to 3s2p1d pattern {631/31/1}
 Group   4 Type O   : 10s4p1d contracted to 3s2p1d pattern {631/31/1}

Atom   0C    basis set group =>   1
Atom   1C    basis set group =>   1
Atom   2C    basis set group =>   1
Atom   3H    basis set group =>   2
Atom   4H    basis set group =>   2
Atom   5C    basis set group =>   1
Atom   6C    basis set group =>   1
Atom   7H    basis set group =>   2
Atom   8C    basis set group =>   1
Atom   9H    basis set group =>   2
Atom  10C    basis set group =>   1
Atom  11H    basis set group =>   2
Atom  12C    basis set group =>   1
Atom  13H    basis set group =>   2
Atom  14H    basis set group =>   2
Atom  15C    basis set group =>   1
Atom  16H    basis set group =>   2
Atom  17N    basis set group =>   3
Atom  18O    basis set group =>   4
Atom  19H    basis set group =>   2
Atom  20O    basis set group =>   4
Atom  21H    basis set group =>   2
Atom  22H    basis set group =>   2
---------------------------------
AUXILIARY/J BASIS SET INFORMATION
---------------------------------
There are 4 groups of distinct atoms

 Group   1 Type C   : 12s5p4d2f1g contracted to 6s4p3d1f1g pattern {711111/2111/211/2/1}
 Group   2 Type H   : 5s2p1d contracted to 3s1p1d pattern {311/2/1}
 Group   3 Type N   : 12s5p4d2f1g contracted to 6s4p3d1f1g pattern {711111/2111/211/2/1}
 Group   4 Type O   : 12s5p4d2f1g contracted to 6s4p3d1f1g pattern {711111/2111/211/2/1}

Atom   0C    basis set group =>   1
Atom   1C    basis set group =>   1
Atom   2C    basis set group =>   1
Atom   3H    basis set group =>   2
Atom   4H    basis set group =>   2
Atom   5C    basis set group =>   1
Atom   6C    basis set group =>   1
Atom   7H    basis set group =>   2
Atom   8C    basis set group =>   1
Atom   9H    basis set group =>   2
Atom  10C    basis set group =>   1
Atom  11H    basis set group =>   2
Atom  12C    basis set group =>   1
Atom  13H    basis set group =>   2
Atom  14H    basis set group =>   2
Atom  15C    basis set group =>   1
Atom  16H    basis set group =>   2
Atom  17N    basis set group =>   3
Atom  18O    basis set group =>   4
Atom  19H    basis set group =>   2
Atom  20O    basis set group =>   4
Atom  21H    basis set group =>   2
Atom  22H    basis set group =>   2
------------------------------------------------------------------------------
                             ORCA STARTUP CALCULATIONS
                           -- RI-GTO INTEGRALS CHOSEN --
------------------------------------------------------------------------------
------------------------------------------------------------------------------
                   ___                                                        
                  /   \      - P O W E R E D   B Y -                         
                 /     \                                                     
                 |  |  |   _    _      __       _____    __    __             
                 |  |  |  | |  | |    /  \     |  _  \  |  |  /  |          
                  \  \/   | |  | |   /    \    | | | |  |  | /  /          
                 / \  \   | |__| |  /  /\  \   | |_| |  |  |/  /          
                |  |  |   |  __  | /  /__\  \  |    /   |      \           
                |  |  |   | |  | | |   __   |  |    \   |  |\   \          
                \     /   | |  | | |  |  |  |  | |\  \  |  | \   \       
                 \___/    |_|  |_| |__|  |__|  |_| \__\ |__|  \__/        
                                                                              
                      - O R C A' S   B I G   F R I E N D -                    
                                      &                                       
                       - I N T E G R A L  F E E D E R -                       
                                                                              
 v1 FN, 2020, v2 2021, v3 2022-2024                                           
------------------------------------------------------------------------------


----------------------
SHARK INTEGRAL PACKAGE
----------------------

Number of atoms                             ...     23
Number of basis functions                   ...    223
Number of shells                            ...    105
Maximum angular momentum                    ...      2
Integral batch strategy                     ... SHARK/LIBINT Hybrid
RI-J (if used) integral strategy            ... SPLIT-RIJ (Revised 2003 algorithm where possible)
Printlevel                                  ...      1
Contraction scheme used                     ... SEGMENTED contraction
Prescreening option                         ... SCHWARTZ
   Thresh                                   ... 2.500e-11
   Tcut                                     ... 2.500e-12
   Tpresel                                  ... 2.500e-12 
Coulomb Range Separation                    ... NOT USED
Exchange Range Separation                   ... NOT USED
Multipole approximations                    ... NOT USED
Finite Nucleus Model                        ... NOT USED
CABS basis                                  ... NOT available
Auxiliary Coulomb fitting basis             ... AVAILABLE
   # of basis functions in Aux-J            ...    709
   # of shells in Aux-J                     ...    235
   Maximum angular momentum in Aux-J        ...      4
Auxiliary J/K fitting basis                 ... NOT available
Auxiliary Correlation fitting basis         ... NOT available
Auxiliary 'external' fitting basis          ... NOT available

Checking pre-screening integrals            ... done (  0.0 sec) Dimension = 105
   => SHARK Basis and OBASIS are compatible. Storing Pre-screening
Shell pair information
Shell pair cut-off parameter TPreSel        ...   2.5e-12
Total number of shell pairs                 ...      5565
Shell pairs after pre-screening             ...      4819
Total number of primitive shell pairs       ...     28015
Primitive shell pairs kept                  ...     15362
          la=0 lb=0:   1474 shell pairs
          la=1 lb=0:   1752 shell pairs
          la=1 lb=1:    554 shell pairs
          la=2 lb=0:    601 shell pairs
          la=2 lb=1:    369 shell pairs
          la=2 lb=2:     69 shell pairs

Checking whether 4 symmetric matrices of dimension 223 fit in memory
:Max Core in MB      =   4096.00
 MB in use           =      9.96
 MB left             =   4086.04
 MB needed           =      0.76
 Data fit in memory  = YES
Calculating RI/J V-Matrix + Cholesky decomp.... done (  0.0 sec)
Calculating Nuclear repulsion               ... done (  0.0 sec) ENN=    693.576787174977 Eh

Diagonalization of the overlap matrix:
Smallest eigenvalue                        ... 4.361e-04
Time for diagonalization                   ...    0.003 sec
Threshold for overlap eigenvalues          ... 1.000e-07
Number of eigenvalues below threshold      ... 0
Time for construction of square roots      ...    0.001 sec
Total time needed                          ...    0.004 sec

-------------------
DFT GRID GENERATION
-------------------

General Integration Accuracy     IntAcc      ... 4.388
Radial Grid Type                 RadialGrid  ... OptM3 with GC (2021)
Angular Grid (max. ang.)         AngularGrid ... 4 (Lebedev-302)
Angular grid pruning method      GridPruning ... 4 (adaptive)
Weight generation scheme         WeightScheme... mBecke (2022)
Basis function cutoff            BFCut       ... 1.0000e-11
Integration weight cutoff        WCut        ... 1.0000e-14
Partially contracted basis set               ... off
Rotationally invariant grid construction     ... off
Angular grids for H and He will be reduced by one unit

Total number of grid points                  ...   107264
Total number of batches                      ...     1689
Average number of points per batch           ...       63
Average number of grid points per atom       ...     4664
Grids setup in   0.5 sec
Initializing property integral containers    ... done (  0.0 sec)

SHARK setup successfully completed in   0.6 seconds

Maximum memory used throughout the entire STARTUP-calculation: 45.9 MB
-------------------------------------------------------------------------------
                                 ORCA GUESS
                   Start orbitals & Density for SCF / CASSCF
-------------------------------------------------------------------------------

------------
SCF SETTINGS
------------
Hamiltonian:
 Density Functional     Method          .... DFT(GTOs)
 Exchange Functional    Exchange        .... B97(D)
 Correlation Functional Correlation     .... B97(D)
 Gradients option       PostSCFGGA      .... off
 RI-approximation to the Coulomb term is turned on
   Number of AuxJ basis functions       .... 709


General Settings:
 Integral files         IntName         .... 1
 Hartree-Fock type      HFTyp           .... RHF
 Total Charge           Charge          ....    0
 Multiplicity           Mult            ....    1
 Number of Electrons    NEL             ....   88
 Basis Dimension        Dim             ....  223
 Nuclear Repulsion      ENuc            ....    693.5767871750 Eh

Convergence Acceleration:
 AO-DIIS                CNVDIIS         .... on
   Start iteration      DIISMaxIt       ....    12
   Startup error        DIISStart       ....  0.200000
   # of expansion vecs  DIISMaxEq       ....     5
   Bias factor          DIISBfac        ....   1.050
   Max. coefficient     DIISMaxC        ....  10.000
 MO-DIIS                CNVKDIIS        .... off
 Trust-Rad. Augm. Hess. CNVTRAH         .... auto
   Auto Start mean grad. ratio tolernc. ....  1.125000
   Auto Start start iteration           ....    50
   Auto Start num. interpolation iter.  ....    10
   Max. Number of Micro iterations      ....    24
   Max. Number of Macro iterations      .... Maxiter - #DIIS iter
   Number of Davidson start vectors     ....     2
   Converg. threshold    (grad. norm)   ....   1.000e-05
   Grad. Scal. Fac. for Micro threshold ....   0.100
   Minimum threshold for Micro iter.    ....   1.000e-02
   NR start threshold (gradient norm)   ....   1.000e-04
   Initial trust radius                 ....   0.400
   Minimum AH scaling param. (alpha)    ....   1.000
   Maximum AH scaling param. (alpha)    .... 1000.000
   Quad. conv. algorithm                .... NR
   White noise on init. David. guess    .... on
   Maximum white noise                  ....   0.010
   Pseudo random numbers                .... off
   Inactive MOs                         .... canonical
   Orbital update algorithm             .... Taylor
   Preconditioner                       .... Diag
   Full preconditioner red. dimension   ....   250
 SOSCF                 CNVSOSCF           .... on
   Start iteration     SOSCFMaxIt         ....   150
   Startup grad/error  SOSCFStart         ....  0.003300
   Hessian update      SOSCFHessUp        .... L-BFGS
   Autom. constraints  SOSCFAutoConstrain .... off
 Level Shifting         CNVShift        .... on
   Level shift para.    LevelShift      ....    0.2500
   Turn off err/grad.   ShiftErr        ....    0.0010
 Zerner damping         CNVZerner       .... off
 Static damping         CNVDamp         .... on
   Fraction old density DampFac         ....    0.7000
   Max. Damping (<1)    DampMax         ....    0.9800
   Min. Damping (>=0)   DampMin         ....    0.0000
   Turn off err/grad.   DampErr         ....    0.1000

SCF Procedure:
 Maximum # iterations   MaxIter         ....   125
 SCF integral mode      SCFMode         .... Direct
   Integral package                     .... SHARK and LIBINT hybrid scheme
 Reset frequency        DirectResetFreq ....    20
 Integral Threshold     Thresh          ....  2.500e-11 Eh
 Primitive CutOff       TCut            ....  2.500e-12 Eh

Convergence Tolerance:
 Convergence Check Mode ConvCheckMode   .... Total+1el-Energy
 Convergence forced     ConvForced      .... 0
 Energy Change          TolE            ....  1.000e-08 Eh
 1-El. energy change                    ....  1.000e-05 Eh
 Orbital Gradient       TolG            ....  1.000e-05
 Orbital Rotation angle TolX            ....  1.000e-05
 DIIS Error             TolErr          ....  5.000e-07

------------------------------
INITIAL GUESS: MODEL POTENTIAL
------------------------------
Loading Hartree-Fock densities                     ... done
Calculating cut-offs                               ... done
Initializing the effective Hamiltonian             ... done
Setting up the integral package (SHARK)            ... done
Starting the Coulomb interaction                   ... done (   0.1 sec)
Making the grid                                    ... done (   0.1 sec)
Mapping shells                                     ... done
Starting the XC term evaluation                    ... done (   0.1 sec)
  promolecular density results
     # of electrons  =     87.992451567
     EX              =    -71.438657250
     EC              =     -3.854335188
     EX+EC           =    -75.292992438
Transforming the Hamiltonian                       ... done (   0.0 sec)
Diagonalizing the Hamiltonian                      ... done (   0.0 sec)
Back transforming the eigenvectors                 ... done (   0.0 sec)
Now organizing SCF variables                       ... done
                      ------------------
                      INITIAL GUESS DONE (   0.4 sec)
                      ------------------
             **** ENERGY FILE WAS UPDATED (1.en.tmp) ****
Finished Guess after   0.4 sec
Maximum memory used throughout the entire GUESS-calculation: 16.3 MB

-------------------------------------------------------------------------------------------
                                      ORCA LEAN-SCF
                              memory conserving SCF solver
-------------------------------------------------------------------------------------------

----------------------------------------D-I-I-S--------------------------------------------
Iteration    Energy (Eh)           Delta-E    RMSDP     MaxDP     DIISErr   Damp  Time(sec)
-------------------------------------------------------------------------------------------
               ***  Starting incremental Fock matrix formation  ***
    1    -554.0324231353554296     0.00e+00  3.04e-03  9.59e-02  2.59e-01  0.700   0.8
    2    -554.2057564473968796    -1.73e-01  2.02e-03  4.76e-02  9.74e-02  0.700   0.7
                               ***Turning on AO-DIIS***
    3    -554.2630779540843378    -5.73e-02  7.99e-04  1.70e-02  2.77e-02  0.700   0.7
    4    -554.2994072888222945    -3.63e-02  1.13e-03  1.96e-02  1.18e-02  0.000   0.7
    5    -554.3818768409391851    -8.25e-02  3.50e-04  9.55e-03  7.77e-03  0.000   0.7
                              *** Initializing SOSCF ***
---------------------------------------S-O-S-C-F--------------------------------------
Iteration    Energy (Eh)           Delta-E    RMSDP     MaxDP     MaxGrad    Time(sec)
--------------------------------------------------------------------------------------
    6    -554.3826521042719833    -7.75e-04  1.27e-04  3.02e-03  3.28e-03     0.7
               *** Restarting incremental Fock matrix formation ***
    7    -554.3827067011498002    -5.46e-05  1.02e-04  3.27e-03  8.50e-04     0.8
    8    -554.3826700385725417     3.67e-05  6.02e-05  2.64e-03  2.56e-03     0.6
    9    -554.3827160054468095    -4.60e-05  2.84e-05  6.58e-04  1.50e-04     0.6
   10    -554.3827142353784438     1.77e-06  1.65e-05  4.21e-04  2.94e-04     0.6
   11    -554.3827169507628696    -2.72e-06  6.58e-06  1.53e-04  3.61e-05     0.6
   12    -554.3827168498928586     1.01e-07  4.13e-06  9.34e-05  8.00e-05     0.6
   13    -554.3827169931171284    -1.43e-07  2.36e-06  5.23e-05  1.63e-05     0.6
   14    -554.3827169777350719     1.54e-08  1.56e-06  3.46e-05  2.53e-05     0.6
   15    -554.3827170018253128    -2.41e-08  3.13e-07  1.16e-05  1.58e-06     0.6
                  *** Gradient check signals convergence ***

               *****************************************************
               *                     SUCCESS                       *
               *           SCF CONVERGED AFTER  15 CYCLES          *
               *****************************************************

             **** ENERGY FILE WAS UPDATED (1.en.tmp) ****

----------------
TOTAL SCF ENERGY
----------------

Total Energy       :       -554.38271699719667 Eh          -15085.52066 eV

Components:
Nuclear Repulsion  :        693.57678717497720 Eh           18873.18387 eV
Electronic Energy  :      -1247.95950417217409 Eh          -33958.70454 eV
One Electron Energy:      -2129.84969386871580 Eh          -57956.15660 eV
Two Electron Energy:        881.89018969654182 Eh           23997.45207 eV

Virial components:
Potential Energy   :      -1106.05889496624354 Eh          -30097.39265 eV
Kinetic Energy     :        551.67617796904688 Eh           15011.87199 eV
Virial Ratio       :          2.00490602845697

DFT components:
N(Alpha)           :       44.000033977288 electrons
N(Beta)            :       44.000033977288 electrons
N(Total)           :       88.000067954576 electrons
E(X)               :      -73.002778839234 Eh       
E(C)               :       -3.853749470234 Eh       
E(XC)              :      -76.856528309468 Eh       

---------------
SCF CONVERGENCE
---------------

  Last Energy change         ...    2.4090e-08  Tolerance :   1.0000e-08
  Last MAX-Density change    ...    1.1579e-05  Tolerance :   1.0000e-07
  Last RMS-Density change    ...    3.1320e-07  Tolerance :   5.0000e-09
  Last DIIS Error            ...    3.2811e-03  Tolerance :   5.0000e-07
  Last Orbital Gradient      ...    1.5757e-06  Tolerance :   1.0000e-05
  Last Orbital Rotation      ...    4.5435e-06  Tolerance :   1.0000e-05


----------------
ORBITAL ENERGIES
----------------

  NO   OCC          E(Eh)            E(eV) 
   0   2.0000     -18.811201      -511.8788 
   1   2.0000     -18.752161      -510.2722 
   2   2.0000     -13.988982      -380.6595 
   3   2.0000     -10.025549      -272.8091 
   4   2.0000      -9.948975      -270.7254 
   5   2.0000      -9.913194      -269.7517 
   6   2.0000      -9.911631      -269.7092 
   7   2.0000      -9.905192      -269.5340 
   8   2.0000      -9.905026      -269.5294 
   9   2.0000      -9.903870      -269.4980 
  10   2.0000      -9.903320      -269.4830 
  11   2.0000      -9.903057      -269.4759 
  12   2.0000      -1.018639       -27.7186 
  13   2.0000      -0.930100       -25.3093 
  14   2.0000      -0.818014       -22.2593 
  15   2.0000      -0.780924       -21.2500 
  16   2.0000      -0.711613       -19.3640 
  17   2.0000      -0.674031       -18.3413 
  18   2.0000      -0.653528       -17.7834 
  19   2.0000      -0.605347       -16.4723 
  20   2.0000      -0.546182       -14.8624 
  21   2.0000      -0.540502       -14.7078 
  22   2.0000      -0.515126       -14.0173 
  23   2.0000      -0.465402       -12.6642 
  24   2.0000      -0.458447       -12.4750 
  25   2.0000      -0.428022       -11.6471 
  26   2.0000      -0.419063       -11.4033 
  27   2.0000      -0.406127       -11.0513 
  28   2.0000      -0.404257       -11.0004 
  29   2.0000      -0.396149       -10.7798 
  30   2.0000      -0.374351       -10.1866 
  31   2.0000      -0.368106       -10.0167 
  32   2.0000      -0.349270        -9.5041 
  33   2.0000      -0.346420        -9.4266 
  34   2.0000      -0.333206        -9.0670 
  35   2.0000      -0.317362        -8.6359 
  36   2.0000      -0.308547        -8.3960 
  37   2.0000      -0.291998        -7.9457 
  38   2.0000      -0.290513        -7.9053 
  39   2.0000      -0.271114        -7.3774 
  40   2.0000      -0.225896        -6.1469 
  41   2.0000      -0.217598        -5.9211 
  42   2.0000      -0.211194        -5.7469 
  43   2.0000      -0.195330        -5.3152 
  44   0.0000      -0.023838        -0.6487 
  45   0.0000      -0.022750        -0.6191 
  46   0.0000      -0.013878        -0.3776 
  47   0.0000       0.056935         1.5493 
  48   0.0000       0.073390         1.9970 
  49   0.0000       0.074452         2.0259 
  50   0.0000       0.097603         2.6559 
  51   0.0000       0.109600         2.9824 
  52   0.0000       0.123530         3.3614 
  53   0.0000       0.132120         3.5952 
  54   0.0000       0.148716         4.0468 
*Only the first 10 virtual orbitals were printed.

                    ********************************
                    * MULLIKEN POPULATION ANALYSIS *
                    ********************************

-----------------------
MULLIKEN ATOMIC CHARGES
-----------------------
   0 C :   -0.088499
   1 C :   -0.093515
   2 C :   -0.116050
   3 H :    0.088210
   4 H :    0.083584
   5 C :   -0.122244
   6 C :   -0.253239
   7 H :    0.087341
   8 C :    0.114206
   9 H :    0.087020
  10 C :   -0.089808
  11 H :    0.089285
  12 C :   -0.035990
  13 H :    0.114347
  14 H :    0.131019
  15 C :    0.495834
  16 H :    0.315051
  17 N :   -0.555942
  18 O :   -0.442115
  19 H :    0.241674
  20 O :   -0.426397
  21 H :    0.127609
  22 H :    0.248619
Sum of atomic charges:   -0.0000000

--------------------------------
MULLIKEN REDUCED ORBITAL CHARGES
--------------------------------
  0 C s       :     3.175659  s :     3.175659
      pz      :     0.945649  p :     2.878145
      px      :     0.962538
      py      :     0.969959
      dz2     :     0.009131  d :     0.034696
      dxz     :     0.007341
      dyz     :     0.006500
      dx2y2   :     0.004161
      dxy     :     0.007564

  1 C s       :     3.180653  s :     3.180653
      pz      :     0.959497  p :     2.877994
      px      :     0.947270
      py      :     0.971227
      dz2     :     0.006605  d :     0.034868
      dxz     :     0.006987
      dyz     :     0.007835
      dx2y2   :     0.007153
      dxy     :     0.006287

  2 C s       :     3.182964  s :     3.182964
      pz      :     0.960664  p :     2.898469
      px      :     0.962814
      py      :     0.974990
      dz2     :     0.006390  d :     0.034617
      dxz     :     0.007102
      dyz     :     0.007853
      dx2y2   :     0.007154
      dxy     :     0.006119

  3 H s       :     0.899339  s :     0.899339
      pz      :     0.004867  p :     0.012451
      px      :     0.004988
      py      :     0.002596

  4 H s       :     0.903930  s :     0.903930
      pz      :     0.005570  p :     0.012486
      px      :     0.002482
      py      :     0.004434

  5 C s       :     3.182586  s :     3.182586
      pz      :     0.972573  p :     2.904984
      px      :     0.963345
      py      :     0.969066
      dz2     :     0.006366  d :     0.034673
      dxz     :     0.009337
      dyz     :     0.006282
      dx2y2   :     0.007079
      dxy     :     0.005610

  6 C s       :     3.249495  s :     3.249495
      pz      :     1.009639  p :     2.967344
      px      :     0.951467
      py      :     1.006238
      dz2     :     0.007179  d :     0.036400
      dxz     :     0.008580
      dyz     :     0.005162
      dx2y2   :     0.006634
      dxy     :     0.008844

  7 H s       :     0.900213  s :     0.900213
      pz      :     0.005596  p :     0.012446
      px      :     0.002456
      py      :     0.004394

  8 C s       :     3.133461  s :     3.133461
      pz      :     0.894408  p :     2.710784
      px      :     0.913490
      py      :     0.902886
      dz2     :     0.009165  d :     0.041549
      dxz     :     0.009293
      dyz     :     0.007903
      dx2y2   :     0.007418
      dxy     :     0.007770

  9 H s       :     0.900513  s :     0.900513
      pz      :     0.002451  p :     0.012467
      px      :     0.005199
      py      :     0.004817

 10 C s       :     3.179760  s :     3.179760
      pz      :     0.956558  p :     2.875141
      px      :     0.965384
      py      :     0.953199
      dz2     :     0.006497  d :     0.034906
      dxz     :     0.009387
      dyz     :     0.006125
      dx2y2   :     0.007163
      dxy     :     0.005735

 11 H s       :     0.898223  s :     0.898223
      pz      :     0.004899  p :     0.012491
      px      :     0.005014
      py      :     0.002578

 12 C s       :     3.194561  s :     3.194561
      pz      :     1.007343  p :     2.783863
      px      :     0.897189
      py      :     0.879331
      dz2     :     0.009431  d :     0.057566
      dxz     :     0.010478
      dyz     :     0.009534
      dx2y2   :     0.014229
      dxy     :     0.013893

 13 H s       :     0.874088  s :     0.874088
      pz      :     0.005739  p :     0.011565
      px      :     0.003208
      py      :     0.002618

 14 H s       :     0.857380  s :     0.857380
      pz      :     0.003097  p :     0.011601
      px      :     0.002731
      py      :     0.005773

 15 C s       :     2.990077  s :     2.990077
      pz      :     0.787709  p :     2.389065
      px      :     0.786040
      py      :     0.815316
      dz2     :     0.020259  d :     0.125024
      dxz     :     0.016919
      dyz     :     0.027650
      dx2y2   :     0.023629
      dxy     :     0.036567

 16 H s       :     0.647054  s :     0.647054
      pz      :     0.011194  p :     0.037895
      px      :     0.010102
      py      :     0.016600

 17 N s       :     3.592737  s :     3.592737
      pz      :     1.204781  p :     3.934759
      px      :     1.192436
      py      :     1.537542
      dz2     :     0.003445  d :     0.028446
      dxz     :     0.010521
      dyz     :     0.003289
      dx2y2   :     0.004522
      dxy     :     0.006669

 18 O s       :     3.824681  s :     3.824681
      pz      :     1.695120  p :     4.594367
      px      :     1.678356
      py      :     1.220890
      dz2     :     0.003170  d :     0.023067
      dxz     :     0.003968
      dyz     :     0.005873
      dx2y2   :     0.003700
      dxy     :     0.006356

 19 H s       :     0.734377  s :     0.734377
      pz      :     0.008878  p :     0.023949
      px      :     0.007959
      py      :     0.007112

 20 O s       :     3.858011  s :     3.858011
      pz      :     1.393012  p :     4.540353
      px      :     1.385717
      py      :     1.761624
      dz2     :     0.007719  d :     0.028032
      dxz     :     0.007470
      dyz     :     0.002986
      dx2y2   :     0.005374
      dxy     :     0.004482

 21 H s       :     0.861501  s :     0.861501
      pz      :     0.005573  p :     0.010890
      px      :     0.002933
      py      :     0.002384

 22 H s       :     0.727440  s :     0.727440
      pz      :     0.010008  p :     0.023941
      px      :     0.006660
      py      :     0.007273



                     *******************************
                     * LOEWDIN POPULATION ANALYSIS *
                     *******************************

----------------------
LOEWDIN ATOMIC CHARGES
----------------------
   0 C :   -0.075900
   1 C :   -0.072111
   2 C :   -0.073991
   3 H :    0.072598
   4 H :    0.070411
   5 C :   -0.078329
   6 C :   -0.108364
   7 H :    0.072043
   8 C :   -0.015449
   9 H :    0.072009
  10 C :   -0.069287
  11 H :    0.071908
  12 C :   -0.044487
  13 H :    0.076325
  14 H :    0.085329
  15 C :    0.100860
  16 H :    0.180640
  17 N :   -0.245002
  18 O :   -0.128614
  19 H :    0.126939
  20 O :   -0.227515
  21 H :    0.081289
  22 H :    0.128698

-------------------------------
LOEWDIN REDUCED ORBITAL CHARGES
-------------------------------
  0 C s       :     2.895708  s :     2.895708
      pz      :     1.043164  p :     3.093953
      px      :     1.031569
      py      :     1.019220
      dz2     :     0.022905  d :     0.086240
      dxz     :     0.020112
      dyz     :     0.017259
      dx2y2   :     0.009916
      dxy     :     0.016048

  1 C s       :     2.896023  s :     2.896023
      pz      :     1.033151  p :     3.089322
      px      :     1.038429
      py      :     1.017742
      dz2     :     0.016138  d :     0.086766
      dxz     :     0.019101
      dyz     :     0.017104
      dx2y2   :     0.017437
      dxy     :     0.016987

  2 C s       :     2.894528  s :     2.894528
      pz      :     1.032137  p :     3.093423
      px      :     1.037245
      py      :     1.024040
      dz2     :     0.015717  d :     0.086041
      dxz     :     0.019119
      dyz     :     0.017098
      dx2y2   :     0.017318
      dxy     :     0.016789

  3 H s       :     0.886769  s :     0.886769
      pz      :     0.016519  p :     0.040633
      px      :     0.016921
      py      :     0.007192

  4 H s       :     0.888586  s :     0.888586
      pz      :     0.019471  p :     0.041003
      px      :     0.007030
      py      :     0.014501

  5 C s       :     2.896088  s :     2.896088
      pz      :     1.035722  p :     3.096054
      px      :     1.035149
      py      :     1.025183
      dz2     :     0.015946  d :     0.086188
      dxz     :     0.021358
      dyz     :     0.016952
      dx2y2   :     0.016383
      dxy     :     0.015549

  6 C s       :     2.898397  s :     2.898397
      pz      :     1.058355  p :     3.128383
      px      :     1.019228
      py      :     1.050800
      dz2     :     0.015217  d :     0.081584
      dxz     :     0.020291
      dyz     :     0.010938
      dx2y2   :     0.014096
      dxy     :     0.021043

  7 H s       :     0.887318  s :     0.887318
      pz      :     0.019391  p :     0.040639
      px      :     0.006889
      py      :     0.014359

  8 C s       :     2.872666  s :     2.872666
      pz      :     1.039282  p :     3.038140
      px      :     1.006125
      py      :     0.992733
      dz2     :     0.023911  d :     0.104643
      dxz     :     0.024321
      dyz     :     0.020419
      dx2y2   :     0.016909
      dxy     :     0.019084

  9 H s       :     0.887249  s :     0.887249
      pz      :     0.006966  p :     0.040742
      px      :     0.017767
      py      :     0.016008

 10 C s       :     2.895739  s :     2.895739
      pz      :     1.034848  p :     3.086758
      px      :     1.030392
      py      :     1.021518
      dz2     :     0.016352  d :     0.086790
      dxz     :     0.021401
      dyz     :     0.016789
      dx2y2   :     0.016782
      dxy     :     0.015466

 11 H s       :     0.886967  s :     0.886967
      pz      :     0.016771  p :     0.041125
      px      :     0.017118
      py      :     0.007236

 12 C s       :     2.884787  s :     2.884787
      pz      :     1.054819  p :     3.029186
      px      :     0.985058
      py      :     0.989310
      dz2     :     0.019961  d :     0.130514
      dxz     :     0.023495
      dyz     :     0.021639
      dx2y2   :     0.031888
      dxy     :     0.033531

 13 H s       :     0.883909  s :     0.883909
      pz      :     0.021783  p :     0.039767
      px      :     0.010409
      py      :     0.007574

 14 H s       :     0.874360  s :     0.874360
      pz      :     0.009635  p :     0.040311
      px      :     0.008728
      py      :     0.021948

 15 C s       :     2.857628  s :     2.857628
      pz      :     0.883122  p :     2.742777
      px      :     0.917277
      py      :     0.942378
      dz2     :     0.043414  d :     0.298735
      dxz     :     0.043812
      dyz     :     0.066586
      dx2y2   :     0.054823
      dxy     :     0.090099

 16 H s       :     0.703805  s :     0.703805
      pz      :     0.033798  p :     0.115555
      px      :     0.030376
      py      :     0.051381

 17 N s       :     3.197478  s :     3.197478
      pz      :     1.218072  p :     3.989652
      px      :     1.234429
      py      :     1.537151
      dz2     :     0.008309  d :     0.057872
      dxz     :     0.021236
      dyz     :     0.005786
      dx2y2   :     0.008302
      dxy     :     0.014239

 18 O s       :     3.471156  s :     3.471156
      pz      :     1.676743  p :     4.605802
      px      :     1.671408
      py      :     1.257651
      dz2     :     0.005873  d :     0.051656
      dxz     :     0.005578
      dyz     :     0.013361
      dx2y2   :     0.011440
      dxy     :     0.015404

 19 H s       :     0.794235  s :     0.794235
      pz      :     0.028486  p :     0.078826
      px      :     0.027464
      py      :     0.022876

 20 O s       :     3.554124  s :     3.554124
      pz      :     1.431931  p :     4.615413
      px      :     1.441970
      py      :     1.741512
      dz2     :     0.010981  d :     0.057978
      dxz     :     0.020849
      dyz     :     0.005932
      dx2y2   :     0.011306
      dxy     :     0.008909

 21 H s       :     0.878872  s :     0.878872
      pz      :     0.022248  p :     0.039839
      px      :     0.010608
      py      :     0.006983

 22 H s       :     0.791722  s :     0.791722
      pz      :     0.036731  p :     0.079579
      px      :     0.021089
      py      :     0.021760



                      *****************************
                      * MAYER POPULATION ANALYSIS *
                      *****************************

  NA   - Mulliken gross atomic population
  ZA   - Total nuclear charge
  QA   - Mulliken gross atomic charge
  VA   - Mayer's total valence
  BVA  - Mayer's bonded valence
  FA   - Mayer's free valence

  ATOM       NA         ZA         QA         VA         BVA        FA
  0 C      6.0885     6.0000    -0.0885     3.9485     3.9485    -0.0000
  1 C      6.0935     6.0000    -0.0935     3.9458     3.9458     0.0000
  2 C      6.1161     6.0000    -0.1161     3.9445     3.9445    -0.0000
  3 H      0.9118     1.0000     0.0882     0.9564     0.9564    -0.0000
  4 H      0.9164     1.0000     0.0836     0.9592     0.9592    -0.0000
  5 C      6.1222     6.0000    -0.1222     3.9482     3.9482    -0.0000
  6 C      6.2532     6.0000    -0.2532     3.8675     3.8675    -0.0000
  7 H      0.9127     1.0000     0.0873     0.9566     0.9566     0.0000
  8 C      5.8858     6.0000     0.1142     3.9674     3.9674     0.0000
  9 H      0.9130     1.0000     0.0870     0.9565     0.9565    -0.0000
 10 C      6.0898     6.0000    -0.0898     3.9479     3.9479    -0.0000
 11 H      0.9107     1.0000     0.0893     0.9608     0.9608     0.0000
 12 C      6.0360     6.0000    -0.0360     3.8624     3.8624     0.0000
 13 H      0.8857     1.0000     0.1143     0.9577     0.9577     0.0000
 14 H      0.8690     1.0000     0.1310     0.9557     0.9557     0.0000
 15 C      5.5042     6.0000     0.4958     3.9466     3.9466    -0.0000
 16 H      0.6849     1.0000     0.3151     0.9199     0.9199     0.0000
 17 N      7.5559     7.0000    -0.5559     2.9028     2.9028    -0.0000
 18 O      8.4421     8.0000    -0.4421     2.0521     2.0521    -0.0000
 19 H      0.7583     1.0000     0.2417     0.9195     0.9195    -0.0000
 20 O      8.4264     8.0000    -0.4264     2.1071     2.1071    -0.0000
 21 H      0.8724     1.0000     0.1276     0.9529     0.9529     0.0000
 22 H      0.7514     1.0000     0.2486     0.9303     0.9303    -0.0000

  Mayer bond orders larger than 0.100000
B(  0-C ,  1-C ) :   1.4490 B(  0-C ,  9-H ) :   0.9396 B(  0-C , 10-C ) :   1.4425 
B(  1-C ,  5-C ) :   1.4324 B(  1-C ,  7-H ) :   0.9383 B(  2-C ,  4-H ) :   0.9345 
B(  2-C ,  8-C ) :   1.4282 B(  2-C , 10-C ) :   1.4397 B(  3-H , 10-C ) :   0.9381 
B(  5-C ,  8-C ) :   1.4291 B(  5-C , 11-H ) :   0.9324 B(  6-C ,  8-C ) :   0.9850 
B(  6-C , 12-C ) :   0.9639 B(  6-C , 13-H ) :   0.9366 B(  6-C , 14-H ) :   0.9316 
B( 12-C , 15-C ) :   0.8906 B( 12-C , 17-N ) :   1.0508 B( 12-C , 21-H ) :   0.9242 
B( 15-C , 18-O ) :   1.0931 B( 15-C , 20-O ) :   1.9159 B( 16-H , 18-O ) :   0.8517 
B( 17-N , 19-H ) :   0.9087 B( 17-N , 22-H ) :   0.8959 

-------
TIMINGS
-------

Total SCF time: 0 days 0 hours 0 min 10 sec 

Total time                  ....      10.570 sec
Sum of individual times     ....       9.962 sec  ( 94.2%)

SCF preparation             ....       0.031 sec  (  0.3%)
Fock matrix formation       ....       9.817 sec  ( 92.9%)
  Startup                   ....       0.001 sec  (  0.0% of F)
  Split-RI-J                ....       3.883 sec  ( 39.6% of F)
  XC integration            ....       6.454 sec  ( 65.7% of F)
    XC Preparation          ....       0.000 sec  (  0.0% of XC)
    Basis function eval.    ....       2.293 sec  ( 35.5% of XC)
    Density eval.           ....       1.480 sec  ( 22.9% of XC)
    XC-Functional eval.     ....       1.050 sec  ( 16.3% of XC)
    XC-Potential eval.      ....       1.478 sec  ( 22.9% of XC)
Diagonalization             ....       0.000 sec  (  0.0%)
Density matrix formation    ....       0.007 sec  (  0.1%)
Total Energy calculation    ....       0.001 sec  (  0.0%)
Population analysis         ....       0.019 sec  (  0.2%)
Orbital Transformation      ....       0.014 sec  (  0.1%)
Orbital Orthonormalization  ....       0.000 sec  (  0.0%)
DIIS solution               ....       0.039 sec  (  0.4%)
SOSCF solution              ....       0.034 sec  (  0.3%)
Finished LeanSCF after  10.6 sec

Maximum memory used throughout the entire LEANSCF-calculation: 25.6 MB



-------------------------------------------------------------------------------
                          DFT DISPERSION CORRECTION                            
-------------------------------------------------------------------------------
Active option DFTDOPT                   ...         2   
Final C6-coefficient scaling factor     ...     1.250
Final VDW-radii scaling factor          ...     1.100
Damping factor alpha                    ...    20.000
-------------------------   ----------------
Dispersion correction           -0.032441341
-------------------------   ----------------


-------------------------   --------------------
FINAL SINGLE POINT ENERGY      -554.415158337980
-------------------------   --------------------

------------------------------------------------------------------------------
                         ORCA SCF GRADIENT CALCULATION
------------------------------------------------------------------------------

Nuc. rep. gradient        (SHARK) ... done (  0.0 sec)
HCore & Overlap gradient  (SHARK) ... done (  0.2 sec)
Split-RIJ-J gradient      (SHARK) ... done (  1.0 sec)
XC gradient                       ... done (  3.5 sec)
Dispersion correction             ... done (  0.0 sec)

-------------------
DISPERSION GRADIENT
-------------------

   1   C   :    0.000568607    0.000619696    0.000053969
   2   C   :   -0.000358672    0.000476744    0.000614027
   3   C   :   -0.001601320   -0.000896771   -0.000783352
   4   H   :   -0.000023471   -0.000014269   -0.000012272
   5   H   :   -0.000697654   -0.000152512    0.000165602
   6   C   :   -0.002068217   -0.000391451   -0.000309162
   7   C   :    0.000039137    0.000278812    0.000546566
   8   H   :   -0.000044668   -0.000010618   -0.000009749
   9   C   :   -0.000396149    0.000060301   -0.000346741
  10   H   :    0.000006761    0.000013585   -0.000000286
  11   C   :    0.000387307   -0.000042103   -0.000726139
  12   H   :   -0.000555187   -0.000368031   -0.000612107
  13   C   :    0.000895478    0.000637206   -0.000520302
  14   H   :   -0.000855475    0.000866374    0.000344699
  15   H   :    0.000305721    0.000145062   -0.000864739
  16   C   :    0.000171615    0.000014854    0.000721527
  17   H   :    0.000502818    0.000000682   -0.000092296
  18   N   :    0.000163316   -0.000449282    0.000341375
  19   O   :    0.001117854   -0.000697652    0.000508275
  20   H   :    0.000556981    0.000631364    0.000102006
  21   O   :    0.000341776   -0.001095207    0.000215421
  22   H   :    0.000765544   -0.000132639    0.000082694
  23   H   :    0.000777898    0.000505857    0.000580983

Difference to translation invariance:
           :   -0.0000000000   -0.0000000000    0.0000000000

Difference to rotation invariance:
           :   -0.0000000000    0.0000000000    0.0000000000

Norm of the Dispersion gradient    ...    0.0048613857
RMS gradient                       ...    0.0005852421
MAX gradient                       ...    0.0020682165

------------------
CARTESIAN GRADIENT
------------------

   1   C   :    0.008519293    0.008045225    0.001183473
   2   C   :   -0.000113526    0.007144103    0.009037399
   3   C   :   -0.000675984   -0.005895602   -0.006883080
   4   H   :    0.005519127    0.000289033   -0.005404639
   5   H   :   -0.000484121   -0.005104083   -0.006366192
   6   C   :   -0.006068008   -0.000909290    0.007338265
   7   C   :    0.002186307    0.002648766   -0.003842194
   8   H   :    0.000279624    0.004528472    0.006194719
   9   C   :   -0.004471061   -0.009563438    0.002683731
  10   H   :    0.005825403    0.005032786    0.000778187
  11   C   :    0.007830720    0.000752619   -0.008481415
  12   H   :   -0.005668936   -0.000978837    0.004781892
  13   C   :   -0.001998515   -0.002323123    0.000435942
  14   H   :   -0.003155783   -0.001819039    0.004782242
  15   H   :    0.000682888   -0.005388705   -0.001936930
  16   C   :    0.004397992   -0.001410382   -0.009631282
  17   H   :   -0.004721373   -0.000666930    0.004581412
  18   N   :    0.002137025   -0.010576709   -0.004834253
  19   O   :    0.017983334    0.014031034   -0.015996698
  20   H   :   -0.003460473    0.002331874   -0.001063756
  21   O   :   -0.024345411   -0.001909253    0.022649012
  22   H   :    0.002642050   -0.000225591   -0.002744663
  23   H   :   -0.002840576    0.001967071    0.002738827

Difference to translation invariance:
           :   -0.0000000000    0.0000000000    0.0000000000

Difference to rotation invariance:
           :    0.0002226054   -0.0003133661   -0.0001693356

Norm of the Cartesian gradient     ...    0.0577974306
RMS gradient                       ...    0.0069579930
MAX gradient                       ...    0.0243454106

-------
TIMINGS
-------

Total SCF gradient time     ....        4.624 sec

Densities                   ....       0.000 sec  (  0.0%)
One electron gradient       ....       0.187 sec  (  4.1%)
RI-J Coulomb gradient       ....       0.965 sec  ( 20.9%)
XC gradient                 ....       3.472 sec  ( 75.1%)

Maximum memory used throughout the entire SCFGRAD-calculation: 32.4 MB
------------------------------------------------------------------------------
                         ORCA GEOMETRY RELAXATION STEP
------------------------------------------------------------------------------

Reading the OPT-File                    .... done
Getting information on internals        .... done
Copying old internal coords+grads       .... done
Making the new internal coordinates     .... (2022 redundants) done
Validating the new internal coordinates .... (2022 redundants) done
Calculating the B-matrix                .... done
Calculating the G,G- and P matrices     .... done
Transforming gradient to internals      .... done
Projecting the internal gradient        .... done
Number of atoms                         ....  23
Number of internal coordinates          .... 107
Current Energy                          ....  -554.415158338 Eh
Current gradient norm                   ....     0.057797431 Eh/bohr
Maximum allowed component of the step   ....  0.300
Current trust radius                    ....  0.300
Evaluating the initial hessian          ....  (Almloef) done
Projecting the Hessian                  .... done
Forming the augmented Hessian           .... done
Diagonalizing the augmented Hessian     .... done
Last element of RFO vector              ....  0.978510149
Lowest eigenvalues of augmented Hessian:
 -0.008889800  0.010040041  0.011345794  0.012838830  0.017273504
Length of the computed step             ....  0.210727159
The final length of the internal step   ....  0.210727159
Converting the step to Cartesian space:
 Initial RMS(Int)=    0.0203717634
Transforming coordinates:
 Iter   0:  RMS(Cart)=    0.0831424183 RMS(Int)=    1.0517020804
 Iter   5:  RMS(Cart)=    0.0000001533 RMS(Int)=    0.0000000992
done
Storing new coordinates                 .... done

                                .--------------------.
          ----------------------|Geometry convergence|-------------------------
          Item                value                   Tolerance       Converged
          ---------------------------------------------------------------------
          RMS gradient        0.0067509076            0.0001000000      NO
          MAX gradient        0.0331068636            0.0003000000      NO
          RMS step            0.0203717634            0.0020000000      NO
          MAX step            0.0915666570            0.0040000000      NO
          -------------------------------------------------------------------------
          ........................................................
          Max(Bonds)      0.0160      Max(Angles)    2.17
          Max(Dihed)        5.25      Max(Improp)    0.00
          ---------------------------------------------------------------------

The optimization has not yet converged - more geometry cycles are needed


    ---------------------------------------------------------------------------
                         Redundant Internal Coordinates
                            (Angstroem and degrees)

        Definition                    Value    dE/dq     Step     New-Value
    ----------------------------------------------------------------------------
     1. B(C   1,C   0)                1.3839 -0.019076  0.0156    1.3996   
     2. B(H   4,C   2)                1.0806 -0.008166  0.0113    1.0919   
     3. B(C   5,C   1)                1.3838 -0.019072  0.0156    1.3994   
     4. B(H   7,C   1)                1.0804 -0.007678  0.0106    1.0911   
     5. B(C   8,C   5)                1.3887 -0.018017  0.0149    1.4036   
     6. B(C   8,C   6)                1.5006 -0.010601  0.0132    1.5138   
     7. B(C   8,C   2)                1.3894 -0.017613  0.0146    1.4040   
     8. B(H   9,C   0)                1.0800 -0.007735  0.0107    1.0907   
     9. B(C  10,H   3)                1.0802 -0.007726  0.0107    1.0909   
    10. B(C  10,C   2)                1.3829 -0.019028  0.0155    1.3984   
    11. B(C  10,C   0)                1.3846 -0.019238  0.0158    1.4004   
    12. B(H  11,C   5)                1.0814 -0.007442  0.0103    1.0917   
    13. B(C  12,C   6)                1.5452 -0.009960  0.0146    1.5598   
    14. B(H  13,C   6)                1.0919 -0.005924  0.0086    1.1004   
    15. B(H  14,C   6)                1.0907 -0.005620  0.0081    1.0987   
    16. B(C  15,C  12)                1.5234 -0.011568  0.0156    1.5391   
    17. B(N  17,C  12)                1.4494 -0.007740  0.0089    1.4583   
    18. B(O  18,H  16)                0.9711 -0.003172  0.0033    0.9744   
    19. B(O  18,C  15)                1.3350 -0.020950  0.0160    1.3510   
    20. B(H  19,N  17)                1.0146 -0.003733  0.0045    1.0192   
    21. B(O  20,C  15)                1.2035 -0.033107  0.0157    1.2192   
    22. B(H  21,C  12)                1.0941 -0.003493  0.0051    1.0992   
    23. B(H  22,N  17)                1.0162 -0.003477  0.0043    1.0204   
    24. A(C   1,C   0,C  10)          119.70  0.000522   -0.05    119.65   
    25. A(C   1,C   0,H   9)          120.16 -0.000306    0.03    120.19   
    26. A(H   9,C   0,C  10)          120.14 -0.000217    0.02    120.16   
    27. A(C   0,C   1,C   5)          120.09  0.000283   -0.03    120.06   
    28. A(C   0,C   1,H   7)          120.07 -0.000140    0.01    120.08   
    29. A(C   5,C   1,H   7)          119.84 -0.000144    0.01    119.86   
    30. A(C   8,C   2,C  10)          120.63 -0.000753    0.09    120.72   
    31. A(H   4,C   2,C   8)          119.42  0.000714   -0.10    119.32   
    32. A(H   4,C   2,C  10)          119.95  0.000039    0.01    119.96   
    33. A(C   1,C   5,C   8)          120.64 -0.000803    0.10    120.74   
    34. A(C   8,C   5,H  11)          119.52  0.001202   -0.18    119.34   
    35. A(C   1,C   5,H  11)          119.84 -0.000398    0.08    119.92   
    36. A(C  12,C   6,H  14)          107.07  0.003911   -0.66    106.41   
    37. A(H  13,C   6,H  14)          108.50 -0.000386   -0.61    107.88   
    38. A(C   8,C   6,H  14)          110.89  0.002458   -0.27    110.63   
    39. A(C  12,C   6,H  13)          108.28  0.003699   -0.48    107.80   
    40. A(C   8,C   6,H  13)          110.52  0.002671   -0.23    110.30   
    41. A(C   8,C   6,C  12)          111.45 -0.012054    2.17    113.62   
    42. A(C   5,C   8,C   6)          120.78 -0.000847    0.13    120.90   
    43. A(C   2,C   8,C   6)          120.37  0.000247   -0.02    120.35   
    44. A(C   2,C   8,C   5)          118.83  0.000590   -0.10    118.73   
    45. A(C   0,C  10,H   3)          120.01 -0.000184    0.02    120.03   
    46. A(C   0,C  10,C   2)          120.11  0.000161   -0.01    120.10   
    47. A(C   2,C  10,H   3)          119.88  0.000023   -0.01    119.87   
[...]
      dx2y2   :     0.004336
      dxy     :     0.007427

 18 O s       :     3.843070  s :     3.843070
      pz      :     1.634564  p :     4.589182
      px      :     1.715743
      py      :     1.238874
      dz2     :     0.003963  d :     0.023464
      dxz     :     0.004188
      dyz     :     0.008646
      dx2y2   :     0.002389
      dxy     :     0.004278

 19 H s       :     0.734261  s :     0.734261
      pz      :     0.008482  p :     0.023570
      px      :     0.008030
      py      :     0.007057

 20 O s       :     3.876800  s :     3.876800
      pz      :     1.359844  p :     4.534315
      px      :     1.413808
      py      :     1.760663
      dz2     :     0.009338  d :     0.027144
      dxz     :     0.007907
      dyz     :     0.005212
      dx2y2   :     0.002640
      dxy     :     0.002047

 21 H s       :     0.862612  s :     0.862612
      pz      :     0.005643  p :     0.010703
      px      :     0.002710
      py      :     0.002350

 22 H s       :     0.727309  s :     0.727309
      pz      :     0.010252  p :     0.023526
      px      :     0.006308
      py      :     0.006966



                     *******************************
                     * LOEWDIN POPULATION ANALYSIS *
                     *******************************

----------------------
LOEWDIN ATOMIC CHARGES
----------------------
   0 C :   -0.076408
   1 C :   -0.072883
   2 C :   -0.076790
   3 H :    0.074297
   4 H :    0.072151
   5 C :   -0.079621
   6 C :   -0.112574
   7 H :    0.074181
   8 C :   -0.018464
   9 H :    0.073779
  10 C :   -0.071801
  11 H :    0.078182
  12 C :   -0.039250
  13 H :    0.079788
  14 H :    0.084634
  15 C :    0.125352
  16 H :    0.183310
  17 N :   -0.248393
  18 O :   -0.147498
  19 H :    0.128726
  20 O :   -0.241684
  21 H :    0.080340
  22 H :    0.130628

-------------------------------
LOEWDIN REDUCED ORBITAL CHARGES
-------------------------------
  0 C s       :     2.908586  s :     2.908586
      pz      :     1.033993  p :     3.086692
      px      :     1.033584
      py      :     1.019116
      dz2     :     0.019830  d :     0.081130
      dxz     :     0.018711
      dyz     :     0.015495
      dx2y2   :     0.010868
      dxy     :     0.016226

  1 C s       :     2.908617  s :     2.908617
      pz      :     1.027109  p :     3.082627
      px      :     1.037700
      py      :     1.017817
      dz2     :     0.013813  d :     0.081638
      dxz     :     0.018209
      dyz     :     0.015186
      dx2y2   :     0.017411
      dxy     :     0.017020

  2 C s       :     2.907635  s :     2.907635
      pz      :     1.027341  p :     3.087942
      px      :     1.036960
      py      :     1.023641
      dz2     :     0.013484  d :     0.081213
      dxz     :     0.018081
      dyz     :     0.015238
      dx2y2   :     0.017512
      dxy     :     0.016898

  3 H s       :     0.886115  s :     0.886115
      pz      :     0.015079  p :     0.039588
      px      :     0.017789
      py      :     0.006720

  4 H s       :     0.888034  s :     0.888034
      pz      :     0.018519  p :     0.039815
      px      :     0.006478
      py      :     0.014819

  5 C s       :     2.908862  s :     2.908862
      pz      :     1.032003  p :     3.089780
      px      :     1.036958
      py      :     1.020819
      dz2     :     0.014016  d :     0.080980
      dxz     :     0.019191
      dyz     :     0.015777
      dx2y2   :     0.016625
      dxy     :     0.015370

  6 C s       :     2.906267  s :     2.906267
      pz      :     1.064414  p :     3.127302
      px      :     1.016282
      py      :     1.046606
      dz2     :     0.013358  d :     0.079006
      dxz     :     0.019082
      dyz     :     0.012566
      dx2y2   :     0.013446
      dxy     :     0.020554

  7 H s       :     0.886214  s :     0.886214
      pz      :     0.018599  p :     0.039605
      px      :     0.006376
      py      :     0.014629

  8 C s       :     2.884877  s :     2.884877
      pz      :     1.029566  p :     3.034852
      px      :     1.009973
      py      :     0.995314
      dz2     :     0.020858  d :     0.098734
      dxz     :     0.022968
      dyz     :     0.018490
      dx2y2   :     0.017333
      dxy     :     0.019084

  9 H s       :     0.886550  s :     0.886550
      pz      :     0.006778  p :     0.039671
      px      :     0.017474
      py      :     0.015419

 10 C s       :     2.908430  s :     2.908430
      pz      :     1.028840  p :     3.081766
      px      :     1.032475
      py      :     1.020451
      dz2     :     0.014383  d :     0.081605
      dxz     :     0.019465
      dyz     :     0.015502
      dx2y2   :     0.016859
      dxy     :     0.015396

 11 H s       :     0.881140  s :     0.881140
      pz      :     0.015302  p :     0.040678
      px      :     0.018658
      py      :     0.006718

 12 C s       :     2.895916  s :     2.895916
      pz      :     1.056656  p :     3.018923
      px      :     0.978452
      py      :     0.983815
      dz2     :     0.019023  d :     0.124411
      dxz     :     0.021898
      dyz     :     0.022755
      dx2y2   :     0.028330
      dxy     :     0.032405

 13 H s       :     0.881105  s :     0.881105
      pz      :     0.021490  p :     0.039107
      px      :     0.009921
      py      :     0.007697

 14 H s       :     0.876091  s :     0.876091
      pz      :     0.010285  p :     0.039275
      px      :     0.008081
      py      :     0.020909

 15 C s       :     2.873410  s :     2.873410
      pz      :     0.938801  p :     2.722782
      px      :     0.854247
      py      :     0.929734
      dz2     :     0.056612  d :     0.278457
      dxz     :     0.042287
      dyz     :     0.100096
      dx2y2   :     0.034051
      dxy     :     0.045411

 16 H s       :     0.703215  s :     0.703215
      pz      :     0.036230  p :     0.113475
      px      :     0.032127
      py      :     0.045118

 17 N s       :     3.226017  s :     3.226017
      pz      :     1.231529  p :     3.965416
      px      :     1.218659
      py      :     1.515228
      dz2     :     0.008811  d :     0.056960
      dxz     :     0.019444
      dyz     :     0.005852
      dx2y2   :     0.007708
      dxy     :     0.015144

 18 O s       :     3.497329  s :     3.497329
      pz      :     1.636136  p :     4.600808
      px      :     1.691186
      py      :     1.273486
      dz2     :     0.005943  d :     0.049362
      dxz     :     0.005419
      dyz     :     0.019552
      dx2y2   :     0.009092
      dxy     :     0.009356

 19 H s       :     0.794187  s :     0.794187
      pz      :     0.026279  p :     0.077087
      px      :     0.027894
      py      :     0.022914

 20 O s       :     3.569612  s :     3.569612
      pz      :     1.442495  p :     4.616624
      px      :     1.432233
      py      :     1.741896
      dz2     :     0.017934  d :     0.055447
      dxz     :     0.019317
      dyz     :     0.009859
      dx2y2   :     0.004508
      dxy     :     0.003830

 21 H s       :     0.880334  s :     0.880334
      pz      :     0.022679  p :     0.039326
      px      :     0.009716
      py      :     0.006931

 22 H s       :     0.791639  s :     0.791639
      pz      :     0.037477  p :     0.077733
      px      :     0.019691
      py      :     0.020564



                      *****************************
                      * MAYER POPULATION ANALYSIS *
                      *****************************

  NA   - Mulliken gross atomic population
  ZA   - Total nuclear charge
  QA   - Mulliken gross atomic charge
  VA   - Mayer's total valence
  BVA  - Mayer's bonded valence
  FA   - Mayer's free valence

  ATOM       NA         ZA         QA         VA         BVA        FA
  0 C      6.0913     6.0000    -0.0913     3.9372     3.9372     0.0000
  1 C      6.0960     6.0000    -0.0960     3.9315     3.9315    -0.0000
  2 C      6.1199     6.0000    -0.1199     3.9345     3.9345     0.0000
  3 H      0.9084     1.0000     0.0916     0.9575     0.9575    -0.0000
  4 H      0.9131     1.0000     0.0869     0.9599     0.9599     0.0000
  5 C      6.1273     6.0000    -0.1273     3.9269     3.9269     0.0000
  6 C      6.2466     6.0000    -0.2466     3.8609     3.8609    -0.0000
  7 H      0.9083     1.0000     0.0917     0.9576     0.9576     0.0000
  8 C      5.9046     6.0000     0.0954     3.9532     3.9532    -0.0000
  9 H      0.9094     1.0000     0.0906     0.9576     0.9576     0.0000
 10 C      6.0923     6.0000    -0.0923     3.9353     3.9353    -0.0000
 11 H      0.8955     1.0000     0.1045     0.9647     0.9647     0.0000
 12 C      6.0321     6.0000    -0.0321     3.8547     3.8547    -0.0000
 13 H      0.8803     1.0000     0.1197     0.9589     0.9589    -0.0000
 14 H      0.8732     1.0000     0.1268     0.9571     0.9571    -0.0000
 15 C      5.4869     6.0000     0.5131     3.9029     3.9029    -0.0000
 16 H      0.6828     1.0000     0.3172     0.9185     0.9185     0.0000
 17 N      7.5559     7.0000    -0.5559     2.8946     2.8946    -0.0000
 18 O      8.4557     8.0000    -0.4557     2.0522     2.0522     0.0000
 19 H      0.7578     1.0000     0.2422     0.9169     0.9169    -0.0000
 20 O      8.4383     8.0000    -0.4383     2.0786     2.0786     0.0000
 21 H      0.8733     1.0000     0.1267     0.9521     0.9521    -0.0000
 22 H      0.7508     1.0000     0.2492     0.9275     0.9275    -0.0000

  Mayer bond orders larger than 0.100000
B(  0-C ,  1-C ) :   1.4403 B(  0-C ,  9-H ) :   0.9394 B(  0-C , 10-C ) :   1.4375 
B(  1-C ,  5-C ) :   1.4260 B(  1-C ,  7-H ) :   0.9384 B(  2-C ,  4-H ) :   0.9346 
B(  2-C ,  8-C ) :   1.4227 B(  2-C , 10-C ) :   1.4324 B(  3-H , 10-C ) :   0.9381 
B(  5-C ,  8-C ) :   1.4203 B(  5-C , 11-H ) :   0.9289 B(  6-C ,  8-C ) :   0.9836 
B(  6-C , 12-C ) :   0.9634 B(  6-C , 13-H ) :   0.9325 B(  6-C , 14-H ) :   0.9326 
B( 12-C , 15-C ) :   0.8967 B( 12-C , 17-N ) :   1.0283 B( 12-C , 21-H ) :   0.9258 
B( 15-C , 18-O ) :   1.0850 B( 15-C , 20-O ) :   1.8641 B( 16-H , 18-O ) :   0.8524 
B( 17-N , 19-H ) :   0.9063 B( 17-N , 22-H ) :   0.8946 

-------
TIMINGS
-------

Total SCF time: 0 days 0 hours 0 min 4 sec 

Total time                  ....       4.443 sec
Sum of individual times     ....       3.840 sec  ( 86.4%)

SCF preparation             ....       0.037 sec  (  0.8%)
Fock matrix formation       ....       3.756 sec  ( 84.5%)
  Startup                   ....       0.001 sec  (  0.0% of F)
  Split-RI-J                ....       1.593 sec  ( 42.4% of F)
  XC integration            ....       2.689 sec  ( 71.6% of F)
    Basis function eval.    ....       0.984 sec  ( 36.6% of XC)
    Density eval.           ....       0.629 sec  ( 23.4% of XC)
    XC-Functional eval.     ....       0.459 sec  ( 17.1% of XC)
    XC-Potential eval.      ....       0.552 sec  ( 20.5% of XC)
Diagonalization             ....       0.000 sec  (  0.0%)
Density matrix formation    ....       0.003 sec  (  0.1%)
Total Energy calculation    ....       0.001 sec  (  0.0%)
Population analysis         ....       0.015 sec  (  0.3%)
Orbital Transformation      ....       0.005 sec  (  0.1%)
Orbital Orthonormalization  ....       0.000 sec  (  0.0%)
DIIS solution               ....       0.005 sec  (  0.1%)
SOSCF solution              ....       0.020 sec  (  0.5%)
Finished LeanSCF after   4.5 sec

Maximum memory used throughout the entire LEANSCF-calculation: 26.0 MB



-------------------------------------------------------------------------------
                          DFT DISPERSION CORRECTION                            
-------------------------------------------------------------------------------
Active option DFTDOPT                   ...         2   
Final C6-coefficient scaling factor     ...     1.250
Final VDW-radii scaling factor          ...     1.100
Damping factor alpha                    ...    20.000
-------------------------   ----------------
Dispersion correction           -0.031654118
-------------------------   ----------------


-------------------------   --------------------
FINAL SINGLE POINT ENERGY      -554.421132076295
-------------------------   --------------------

                                *** OPTIMIZATION RUN DONE ***


------------------------------------------------------------------------------
                              ORCA PROPERTY CALCULATIONS
------------------------------------------------------------------------------

GBWName                                 ... 1.gbw
Number of atoms                         ...     23
Number of basis functions               ...    223
Max core memory                         ...   4096 MB

Electric properties:
Dipole moment                           ... YES
Quadrupole moment                       ...  NO
Static polarizability (Dipole/Dipole)   ...  NO
Static polarizability (Dipole/Quad.)    ...  NO
Static polarizability (Quad./Quad.)     ...  NO
Static polarizability (Velocity)        ...  NO
Static hyperpolarizability              ...  NO

Atomic electric properties:
Dipole moment                           ...  NO
Quadrupole moment                       ...  NO
Static polarizability                   ...  NO

Choice of electric origin               ... Center of mass
Position of electric origin             ...    -6.400276     2.693126     0.255148

General magnetic properties:
Magnetizability                         ...  NO

EPR properties:
g-Tensor (aka g-matrix)                 ...  NO
Zero-Field splitting spin-orbit         ...  NO
Zero-field splitting spin-spin          ...  NO
Hyperfine couplings                     ...  NO (   0 nuclei)
Quadrupole couplings                    ...  NO (   0 nuclei)
Contact density                         ...  NO (   0 nuclei)

NMR properties:
Chemical shifts                         ...  NO (   0 nuclei)
Spin-rotation constants                 ...  NO (   0 nuclei)
Spin-spin couplings                     ...  NO (   0 nuclei,    0 pairs)

Choice of magnetic origin               ... GIAO
Position of magnetic origin             ...     0.000000     0.000000     0.000000

Properties with geometric perturbations:
SCF Hessian                             ...  NO
IR spectrum                             ...  NO
VCD spectrum                            ...  NO
X-ray spectroscopy properties:
SCF XES/XAS/RIXS spectra                ...  NO

SCF SOC stabilization energy            ...  NO
Diagonal Born-Oppenheimer correction    ...  NO

-------------
DIPOLE MOMENT
-------------

Method             : SCF
Type of density    : Electron Density
Multiplicity       :   1
Irrep              :   0
Energy             :  -554.3894779583582704 Eh
Basis              : AO
                                X                 Y                 Z
Electronic contribution:      1.919848741      -3.122542311      -0.841642918
Nuclear contribution   :     -1.903585682       2.652223040       1.153178858
                        -----------------------------------------
Total Dipole Moment    :      0.016263058      -0.470319271       0.311535940
                        -----------------------------------------
Magnitude (a.u.)       :      0.564375182
Magnitude (Debye)      :      1.434527709



--------------------
Rotational spectrum 
--------------------
 
Rotational constants in cm-1:             0.056887             0.020354             0.017939 
Rotational constants in MHz :          1705.435010           610.204349           537.790508 

Dipole components along the rotational axes: 
x,y,z [a.u.] :    -0.046467     0.262484     0.497456 
x,y,z [Debye]:    -0.118109     0.667182     1.264432 

 

Dipole moment calculation done in   0.0 sec 

Maximum memory used throughout the entire PROP-calculation: 15.1 MB

--------------------------------
SUGGESTED CITATIONS FOR THIS RUN
--------------------------------

Below you find a list of papers that are relevant to this ORCA run
We neither can nor want to force you to cite these papers, but we appreciate if you do
You receive ORCA, which is the product of decades of hard work by many enthusiastic individuals, for free
The only thing we kindly ask in return is that you cite our papers,
We deeply appreciate it, if you show your appreciation for ORCA by not just citing the generic ORCA reference.

Please note that relegating all ORCA citations to the supporting information does *not* help us.
SI sections are not indexed - citations you put there will not count into any citation statistics
But we need these citations in order to attract the funding resources that allow us to do what we are doing

Therefore, if you are a happy ORCA user, please consider citing a few of the papers listed below in the main body of your paper

In addition to the list printed below, the program has created the file 1.bibtex that contains the list in bibtex format
You can import this file easily into all common literature databanks and citation aid programs


List of essential papers. We consider these as the minimum necessary citations

  1. Neese, F.
     Software update: the ORCA program system, version 6.0
     WIRES Comput. Molec. Sci. 2025 15(1), e70019
     doi.org/10.1002/wcms.7019

List of papers to cite with high priority. The work reported in these papers was absolutely
necessary for this run to complete.
Our perspective: the developers of density functionals and basis sets usually get cited in chemistry papers
Good! But without the algorithms to do something with them, the functionals or basis sets would not do anything.
Hence, in our opinion, the algorithm design and method developments papers are equally worthy of getting cited

  1. Neese, F.
     An improvement of the resolution of the identity approximation for the formation of the Coulomb matrix
     J. Comp. Chem. 2003 24(14), 1740-1747
     doi.org/10.1002/jcc.10318
  2. Grimme, S.
     Semiempirical GGA-type density functional constructed with a long-range dispersion correction
     J.Comput.Chem. 2006 27(15), 1787-1799
     doi.org/10.1002/jcc.20495
  3. Neese, F.
     The SHARK Integral Generation and Digestion System
     J. Comp. Chem. 2022 44(3), 381
     doi.org/10.1002/jcc.26942

List of suggested additional citations. These are papers that are important in the 'surrounding' of 
of this run, or papers that preceded the highly important papers. If you like your results we are grateful for a citation.

  1. Neese, F.
     The ORCA program system
     WIRES Comput. Molec. Sci. 2012 2(1), 73-78
     doi.org/10.1002/wcms.81
  2. Neese, F.
     Software update: the ORCA program system, version 4.0
     WIRES Comput. Molec. Sci. 2018 8(1), 1-6
     doi.org/10.1002/wcms.1327
  3. Neese, F.; Wennmohs, F.; Becker, U.; Riplinger, C.
     The ORCA quantum chemistry program package
     J. Chem. Phys. 2020 152(22), 224108
     doi.org/10.1063/5.0004608
  4. Neese, F.
     Software update: The ORCA program system—Version 5.0
     WIRES Comput. Molec. Sci. 2022 12(1), e1606
     doi.org/10.1002/wcms.1606

List of optional additional citations

  1. Neese, F.
     Approximate second-order SCF convergence for spin unrestricted wavefunctions
     Chem. Phys. Lett. 2000 325(1-3), 93-98
     doi.org/10.1016/s0009-2614(00)00662-x

Timings for individual modules:

Sum of individual times          ...      194.053 sec (=   3.234 min)
Startup calculation              ...        9.532 sec (=   0.159 min)   4.9 %
SCF iterations                   ...      115.830 sec (=   1.930 min)  59.7 %
Property calculations            ...        0.040 sec (=   0.001 min)   0.0 %
SCF Gradient evaluation          ...       68.619 sec (=   1.144 min)  35.4 %
Geometry relaxation              ...        0.032 sec (=   0.001 min)   0.0 %
                             ****ORCA TERMINATED NORMALLY****
TOTAL RUN TIME: 0 days 0 hours 3 minutes 14 seconds 482 msec
