
                                 *****************
                                 * O   R   C   A *
                                 *****************

                                            #,                                       
                                            ###                                      
                                            ####                                     
                                            #####                                    
                                            ######                                   
                                           ########,                                 
                                     ,,################,,,,,                         
                               ,,#################################,,                 
                          ,,##########################################,,             
                       ,#########################################, ''#####,          
                    ,#############################################,,   '####,        
                  ,##################################################,,,,####,       
                ,###########''''           ''''###############################       
              ,#####''   ,,,,##########,,,,          '''####'''          '####       
            ,##' ,,,,###########################,,,                        '##       
           ' ,,###''''                  '''############,,,                           
         ,,##''                                '''############,,,,        ,,,,,,###''
      ,#''                                            '''#######################'''  
     '                                                          ''''####''''         
             ,#######,   #######,   ,#######,      ##                                
            ,#'     '#,  ##    ##  ,#'     '#,    #''#        ,####,    ,#,          
            ##       ##  ##   ,#'  ##            #'  '#       #'       ,# #          
            ##       ##  #######   ##           ,######,      #####,      #          
            '#,     ,#'  ##    ##  '#,     ,#' ,#      #,     #,   #      #          
             '#######'   ##     ##  '#######'  #'      '#     '####' #    #          



                #########################################################
                #                        -***-                          #
                #          Department of theory and spectroscopy        #
                #                                                       #
                #                      Frank Neese                      #
                #                                                       #
                #     Directorship, Architecture, Infrastructure        #
                #                    SHARK, DRIVERS                     #
                #        Core code/Algorithms in most modules           #
                #                                                       #
                #        Max Planck Institute fuer Kohlenforschung      #
                #                Kaiser Wilhelm Platz 1                 #
                #                 D-45470 Muelheim/Ruhr                 #
                #                      Germany                          #
                #                                                       #
                #                  All rights reserved                  #
                #                        -***-                          #
                #########################################################


                         Program Version 6.1.0  -  RELEASE   -
                                (GIT: $679e74b$)
                          ($2025-06-10 18:02:51 +0200$)


 With contributions from (in alphabetic order):
[Max-Planck-Institut fuer Kohlenforschung]                               
  Daniel Aravena         : Magnetic Suceptibility                        
  Michael Atanasov       : Ab Initio Ligand Field Theory (pilot matlab implementation)
  Alexander A. Auer      : GIAO ZORA, VPT2 properties, NMR spectrum      
  Ute Becker             : All parallelization in ORCA, NUMFREQ, NUMCALC 
  Giovanni Bistoni       : ED, misc. LED, open-shell LED, HFLD           
  Dmytro Bykov           : pre 5.0 version of the SCF Hessian            
  Marcos Casanova-Páez   : Triplet and SCS-CIS(D). UHF-(DLPNO)-IP/EA/STEOM-CCSD. UHF-CVS-IP/STEOM-CCSD   
  Vijay G. Chilkuri      : MRCI spin determinant printing, contributions to CSF-ICE 
  Pauline Colinet        : FMM embedding                                 
  Dipayan Datta          : RHF DLPNO-CCSD density                        
  Achintya Kumar Dutta   : EOM-CC, STEOM-CC                              
  Nicolas Foglia         : Exact transition moments, OPA infrastructure, MCD improvements    
  Dmitry Ganyushin       : Spin-Orbit,Spin-Spin,Magnetic field MRCI      
  Miquel Garcia-Rates    : C-PCM and meta-GGA Hessian, CCSD/C-PCM, Gaussian charge scheme 
  Tiago L. C. Gouveia    : GS-ROHF, GS-ROCIS                             
  Yang Guo               : DLPNO-NEVPT2, F12-NEVPT2, CIM, IAO-localization        
  Andreas Hansen         : Spin unrestricted coupled pair/coupled cluster methods 
  Ingolf Harden          : AUTO-CI MPn and infrastructure                
  Benjamin Helmich-Paris : MC-RPA, TRAH-(SCF,CASSCF), AVAS, COSX integrals, SCF dyn. polar., MC-PDFT, srDFT 
  Lee Huntington         : MR-EOM, pCC                                   
  Robert Izsak           : Overlap fitted RIJCOSX, COSX-SCS-MP3, EOM     
  Riya Kayal             : Wick's Theorem for AUTO-CI, AUTO-CI UHF-CCSDT 
  Emily Kempfer          : AUTO-CI RHF CISDT and CCSDT, approximate NEVPT4
  Christian Kollmar      : KDIIS, OOCD, Brueckner-CCSD(T), CCSD density, CASPT2, CASPT2-K, improved NEVPT2 
  Axel Koslowski         : Symmetry handling                             
  Simone Kossmann        : meta-GGA functionals, TD-DFT gradient, OOMP2, (MP2 Hessian; deprecated post 5.0) 
  Lucas Lang             : DCDCAS, Hyperfine gauge corrections, ICE-SOC+SSC
  Marvin Lechner         : AUTO-CI (C++ implementation), FIC-MRCC        
  Spencer Leger          : CASSCF response                               
  Dagmar Lenk            : GEPOL surface, SMD, ORCA-2-JSON               
  Dimitrios Liakos       : Extrapolation schemes; Compound Job, Property file
  Dimitrios Manganas     : Further ROCIS development; embedding schemes. LFT, Crystal Embedding 
  Dimitrios Pantazis     : SARC Basis sets                               
  Anastasios Papadopoulos: AUTO-CI, single reference methods and gradients 
  Taras Petrenko         : pre 6.0 DFT Hessian and TD-DFT gradient,  ECA, NRVS 
  Petra Pikulova         : Analytic Raman intensities                    
  Peter Pinski           : DLPNO-MP2, DLPNO-MP2 Gradient                 
  Shashank Vittal Rao    : ES-AILFT, MagRelax                            
  Christoph Reimann      : Effective Core Potentials                     
  Marius Retegan         : Local ZFS, SOC                                
  Christoph Riplinger    : Optimizer, TS searches, QM/MM, DLPNO-CCSD(T), (RO)-DLPNO pert. Triples 
  Michael Roemelt        : Original ROCIS implementation, recursive CI coupling coefficients
  Masaaki Saitow         : Open-shell DLPNO-CCSD energy and density      
  Barbara Sandhoefer     : DKH picture change effects                    
  Yorick L. A. Schmerwitz: GMF and freeze-and-release deltaSCF, NEB S-IDPP initial path                    
  Kantharuban Sivalingam : CASSCF convergence/infrastructure, NEVPT2, NEVPT3, NEVPT4(SD), FIC-MRCI and CEPA variants
  Bernardo de Souza      : ESD, SOC TD-DFT                               
  Georgi L. Stoychev     : AutoAux, RI-MP2 NMR, DLPNO-MP2 response, X2C  
  Van Anh Tran           : RI-MP2 g-tensors                              
  Willem Van den Heuvel  : Paramagnetic NMR                              
  Zikuan Wang            : NOTCH, Electric field optimization            
  Frank Wennmohs         : Technical directorship and infrastructure     
  Hang Xu                : AUTO-CI-Response properties                   
                                                                         
[FACCTs GmbH]                                                            
  Markus Bursch, Nicolas Foglia, Miquel Garcia-Rates, Ingolf Harden, Hagen Neugebauer, Anastasios Papadopoulos, 
  Christoph Riplinger, Bernardo de Souza, Georgi L. Stoychev                                                    
                                                                 
  APM, various basis sets, CI-OPT, improved COSX, DLPNO-Multilevel,           
  DOCKER, DRACO, updates on ESD, Fragmentator, GOAT, IRC, LR-CPCM, L-BFGS, MBIS, meta-GGA TD-DFT gradient, ML-optimized integration grids, 
  MM, NACMEs, nearIR, NEB, NEB-TS, NL-DFT gradient (VV10), 2- and 3-layer-ONIOM, interface openCOSMO-RS, QMMM,   
  Crystal-QMMM, RESP, rigid body optimization, SF, symmetry and pop. for TD-DFT, various functionals, SOLVATOR                                   
                                                                         
[Other institutions]                                                     
  V. Asgeirsson          : NEB                                           
  Christoph Bannwarth    : sTDA-DFT, sTD-DFT, PBEh-3c, B97-3c, D3        
  Giovanni Bistoni       : ETS/NOCV, ADLD/ADEX, COVALED                  
  Martin Brehm           : Molecular dynamics                            
  Ronald Cardenas        : ETS/NOCV                                      
  Martina Colucci        : COVALED                                       
  Sebastian Ehlert       : rSCAN, r2SCAN, r2SCAN-3c, D4, dhf basis sets  
  Marvin Friede          : D4 for Fr, Ra, Ac-Lr                          
  Lars Goerigk           : TD-DFT with DH, B97 family of functionals     
  Stefan Grimme          : VdW corrections, initial TS optimization, DFT functionals, gCP, sTDA/sTD-DF 
  Waldemar Hujo          : DFT-NL                                        
  H. Jonsson             : NEB                                           
  Holger Kruse           : gCP                                           
  Marcel Mueller         : wB97X-3c, vDZP basis set                      
  Hagen Neugebauer       : wr2SCAN, Native XTB                           
  Gianluca Regni         : ADLD/ADEX                                     
  Tobias Risthaus        : pre 6.0 range-separated hybrid DFT and stability analysis
  Lukas Wittmann         : regularized MP2, r2SCAN double-hybrids, wr2SCAN        
                                                                         
We gratefully acknowledge several colleagues who have allowed us to      
interface, adapt or use parts of their codes:                            
  Ed Valeev, F. Pavosevic, A. Kumar             : LibInt (2-el integral package), F12 methods 
  Garnet Chan, S. Sharma, J. Yang, R. Olivares  : DMRG                   
  Ulf Ekstrom                                   : XCFun DFT Library      
  Mihaly Kallay                                 : mrcc  (arbitrary order and MRCC methods)
  Frank Weinhold                                : gennbo (NPA and NBO analysis)           
  Simon Mueller                                 : openCOSMO-RS                            
  Christopher J. Cramer and Donald G. Truhlar   : smd solvation model                     
  S Lehtola, MJT Oliveira, MAL Marques          : LibXC Library                           
  Liviu Ungur et al                             : ANISO software                          


 Your calculation uses the libint2 library for the computation of 2-el integrals
 For citations please refer to: http://libint.valeyev.net

 Your ORCA version has been built with support for libXC version: 7.0.0
 For citations please refer to: https://libxc.gitlab.io

 This ORCA versions uses:
   CBLAS   interface :  Fast vector & matrix operations
   LAPACKE interface :  Fast linear algebra routines
   SCALAPACK package :  Parallel linear algebra routines
   Shared memory     :  Shared parallel matrices
   BLAS/LAPACK       :  OpenBLAS 0.3.29  USE64BITINT DYNAMIC_ARCH NO_AFFINITY Haswell SINGLE_THREADED
        Core in use  :  Haswell
   Copyright (c) 2011-2014, The OpenBLAS Project


  ***********************************
  * Starting time: Thu Aug 14 12:17:07 2025
  * Host name:     CHEMLAB02
  * Process ID:    1770208
  * Working dir.:  /home/vivek/mm-project/vivek/MP2/k/2
  ***********************************



***************************************
The coordinates will be read from file: /home/vivek/mm-project/vivek/xtb-goat/k/K_CONF/2.xyz
***************************************


================================================================================

----- Orbital basis set information -----
Your calculation utilizes the basis: 6-31G**
   H-He, Li-Ne : W. J. Hehre, R. Ditchfield and J.A. Pople, J. Chem. Phys. 56, 2257 (1972).
                 Note: He and Ne are unpublished basis sets taken from the Gaussian program.
                 Note: Li and B from J. D. Dill and J. A. Pople, J. Chem. Phys. 62, 2921 (1975).
   Na - Ar     : M. M. Francl, W. J. Pietro, W. J. Hehre, J. S. Binkley, M. S. Gordon, 
                 D. J. DeFrees and J. A. Pople, J. Chem. Phys. 77, 3654 (1982).
   K - Zn      : V. A. Rassolov, J. A. Pople, M. A. Ratner, and T. L. Windus, J. Chem. Phys. 109, 1223 (1998).

================================================================================
                                        WARNINGS
                       Please study these warnings very carefully!
================================================================================


WARNING: No MP2 level density has been requested!
         To calculate MP2 level properties use
         %mp2 Density relaxed end
         or
         %mp2 Density unrelaxed end

WARNING: Post HF methods need fully converged wavefunctions
  ===> : Setting SCFConvForced true
         You can overwrite this default with %scf ConvForced false 


================================================================================
                                       INPUT FILE
================================================================================
NAME = 2.inp
|  1> ! MP2 6-31G** 
|  2> 
|  3> * xyzfile 0 1 /home/vivek/mm-project/vivek/xtb-goat/k/K_CONF/2.xyz
|  4> 
|  5>                          ****END OF INPUT****
================================================================================

                       ****************************
                       * Single Point Calculation *
                       ****************************

---------------------------------
CARTESIAN COORDINATES (ANGSTROEM)
---------------------------------
  C    -14.095102    6.331892    0.888261
  C    -12.570352    6.502627    0.952812
  H    -14.563467    8.028325   -0.138497
  H    -14.639555    8.202098    1.487756
  N    -14.840200    7.566662    0.722000
  C    -11.861011    5.160685    1.103395
  H    -12.234840    6.998171    0.038997
  H    -12.317955    7.148807    1.799206
  C    -10.349334    5.293930    1.282784
  H    -12.267527    4.644331    1.975776
  H    -12.053344    4.547526    0.222760
  C     -9.641760    5.724318   -0.014321
  H    -10.125589    6.023308    2.063088
  H     -9.940403    4.327548    1.587667
  C     -8.155005    5.870705    0.282608
  H     -6.932802    6.983862    1.236030
  N     -9.905718    4.767543   -1.069040
  O     -7.884645    6.931696    1.051773
  H    -14.351639    5.677482    0.050906
  H    -14.449411    5.857012    1.807672
  H     -9.504265    3.869031   -0.816787
  O     -7.303076    5.121383   -0.117187
  H    -10.019027    6.704180   -0.324392
  H     -9.456229    5.060256   -1.930199

----------------------------
CARTESIAN COORDINATES (A.U.)
----------------------------
  NO LB      ZA    FRAG     MASS         X           Y           Z
   0 C     6.0000    0    12.011  -26.635882   11.965542    1.678569
   1 C     6.0000    0    12.011  -23.754523   12.288184    1.800554
   2 H     1.0000    0     1.008  -27.520963   15.171335   -0.261722
   3 H     1.0000    0     1.008  -27.664749   15.499719    2.811451
   4 N     7.0000    0    14.007  -28.043914   14.298918    1.364382
   5 C     6.0000    0    12.011  -22.414063    9.752282    2.085114
   6 H     1.0000    0     1.008  -23.120496   13.224627    0.073694
   7 H     1.0000    0     1.008  -23.277561   13.509287    3.400007
   8 C     6.0000    0    12.011  -19.557406   10.004079    2.424111
   9 H     1.0000    0     1.008  -23.182266    8.776513    3.733676
  10 H     1.0000    0     1.008  -22.777519    8.593578    0.420956
  11 C     6.0000    0    12.011  -18.220286   10.817394   -0.027062
  12 H     1.0000    0     1.008  -19.134590   11.382403    3.898670
  13 H     1.0000    0     1.008  -18.784639    8.177880    3.000256
  14 C     6.0000    0    12.011  -15.410726   11.094024    0.534051
  15 H     1.0000    0     1.008  -13.101097   13.197587    2.335758
  16 N     7.0000    0    14.007  -18.719094    9.009351   -2.020193
  17 O     8.0000    0    15.999  -14.899819   13.099008    1.987564
  18 H     1.0000    0     1.008  -27.120668   10.728886    0.096199
  19 H     1.0000    0     1.008  -27.305429   11.068149    3.416005
  20 H     1.0000    0     1.008  -17.960459    7.311410   -1.543504
  21 O     8.0000    0    15.999  -13.800813    9.678011   -0.221451
  22 H     1.0000    0     1.008  -18.933218   12.669064   -0.613012
  23 H     1.0000    0     1.008  -17.869682    9.562498   -3.647548

--------------------------------
INTERNAL COORDINATES (ANGSTROEM)
--------------------------------
 C      0   0   0     0.000000000000     0.00000000     0.00000000
 C      1   0   0     1.535636391910     0.00000000     0.00000000
 H      1   2   0     2.037518540282    99.02431307     0.00000000
 H      3   1   2     1.637280211660    66.32918485   266.47819700
 N      3   1   2     1.014972660968    41.98973450   232.49816818
 C      2   1   3     1.525335174131   111.59712200   205.12433866
 H      2   1   3     1.092332693476   108.67788956   326.35830155
 H      2   1   3     1.094365410588   109.09634923    83.83817511
 C      6   2   1     1.528104780208   113.26077377   184.56699485
 H      6   2   1     1.092211914588   108.76492404   305.15807373
 H      6   2   1     1.090171250090   109.45274710    63.27676158
 C      9   6   2     1.538952474689   112.35066855   288.21547196
 H      9   6   2     1.091296269690   110.18425559    49.64722158
 H      9   6   2     1.092736923027   109.01668157   168.43177940
 C     12   9   6     1.523166807067   108.14098139   178.19691753
 H     15  12   9     1.908379767096   141.13090492   290.19969531
 N     12   9   6     1.448283420948   110.19763098   301.58962022
 O     16  15  12     0.970915213511    41.06098055   358.26613942
 H      1   2   3     1.093263743126   109.37423678    96.81176616
 H      1   2   3     1.093783816580   109.54639053   214.92495912
 H     17  12   9     1.015932750299   109.35553167   296.08644141
 O     15  12   9     1.202955486900   124.51448520   109.01378193
 H     12   9   6     1.094807773826   109.30366149    61.10286665
 H     17  12   9     1.014552619502   110.29174801   178.79215662

---------------------------
INTERNAL COORDINATES (A.U.)
---------------------------
 C      0   0   0     0.000000000000     0.00000000     0.00000000
 C      1   0   0     2.901932221993     0.00000000     0.00000000
 H      1   2   0     3.850352033920    99.02431307     0.00000000
 H      3   1   2     3.094011204526    66.32918485   266.47819700
 N      3   1   2     1.918020362646    41.98973450   232.49816818
 C      2   1   3     2.882465741544   111.59712200   205.12433866
 H      2   1   3     2.064209637798   108.67788956   326.35830155
 H      2   1   3     2.068050916447   109.09634923    83.83817511
 C      6   2   1     2.887699538529   113.26077377   184.56699485
 H      6   2   1     2.063981398777   108.76492404   305.15807373
 H      6   2   1     2.060125101745   109.45274710    63.27676158
 C      9   6   2     2.908198710282   112.35066855   288.21547196
 H      9   6   2     2.062251080685   110.18425559    49.64722158
 H      9   6   2     2.064973520944   109.01668157   168.43177940
 C     12   9   6     2.878368121637   108.14098139   178.19691753
 H     15  12   9     3.606315119328   141.13090492   290.19969531
 N     12   9   6     2.736859029889   110.19763098   301.58962022
 O     16  15  12     1.834763852794    41.06098055   358.26613942
 H      1   2   3     2.065969066653   109.37423678    96.81176616
 H      1   2   3     2.066951863052   109.54639053   214.92495912
 H     17  12   9     1.919834668546   109.35553167   296.08644141
 O     15  12   9     2.273256421539   124.51448520   109.01378193
 H     12   9   6     2.068886861819   109.30366149    61.10286665
 H     17  12   9     1.917226599311   110.29174801   178.79215662

---------------------
BASIS SET INFORMATION
---------------------
There are 4 groups of distinct atoms

 Group   1 Type C   : 10s4p1d contracted to 3s2p1d pattern {631/31/1}
 Group   2 Type H   : 4s1p contracted to 2s1p pattern {31/1}
 Group   3 Type N   : 10s4p1d contracted to 3s2p1d pattern {631/31/1}
 Group   4 Type O   : 10s4p1d contracted to 3s2p1d pattern {631/31/1}

Atom   0C    basis set group =>   1
Atom   1C    basis set group =>   1
Atom   2H    basis set group =>   2
Atom   3H    basis set group =>   2
Atom   4N    basis set group =>   3
Atom   5C    basis set group =>   1
Atom   6H    basis set group =>   2
Atom   7H    basis set group =>   2
Atom   8C    basis set group =>   1
Atom   9H    basis set group =>   2
Atom  10H    basis set group =>   2
Atom  11C    basis set group =>   1
Atom  12H    basis set group =>   2
Atom  13H    basis set group =>   2
Atom  14C    basis set group =>   1
Atom  15H    basis set group =>   2
Atom  16N    basis set group =>   3
Atom  17O    basis set group =>   4
Atom  18H    basis set group =>   2
Atom  19H    basis set group =>   2
Atom  20H    basis set group =>   2
Atom  21O    basis set group =>   4
Atom  22H    basis set group =>   2
Atom  23H    basis set group =>   2
------------------------------------------------------------------------------
                             ORCA STARTUP CALCULATIONS
------------------------------------------------------------------------------
------------------------------------------------------------------------------
                   ___                                                        
                  /   \      - P O W E R E D   B Y -                         
                 /     \                                                     
                 |  |  |   _    _      __       _____    __    __             
                 |  |  |  | |  | |    /  \     |  _  \  |  |  /  |          
                  \  \/   | |  | |   /    \    | | | |  |  | /  /          
                 / \  \   | |__| |  /  /\  \   | |_| |  |  |/  /          
                |  |  |   |  __  | /  /__\  \  |    /   |      \           
                |  |  |   | |  | | |   __   |  |    \   |  |\   \          
                \     /   | |  | | |  |  |  |  | |\  \  |  | \   \       
                 \___/    |_|  |_| |__|  |__|  |_| \__\ |__|  \__/        
                                                                              
                      - O R C A' S   B I G   F R I E N D -                    
                                      &                                       
                       - I N T E G R A L  F E E D E R -                       
                                                                              
 v1 FN, 2020, v2 2021, v3 2022-2024                                           
------------------------------------------------------------------------------


----------------------
SHARK INTEGRAL PACKAGE
----------------------

Number of atoms                             ...     24
Number of basis functions                   ...    210
Number of shells                            ...    102
Maximum angular momentum                    ...      2
Integral batch strategy                     ... SHARK/LIBINT Hybrid
RI-J (if used) integral strategy            ... SPLIT-RIJ (Revised 2003 algorithm where possible)
Printlevel                                  ...      1
Contraction scheme used                     ... SEGMENTED contraction
Prescreening option                         ... SCHWARTZ
   Thresh                                   ... 1.000e-10
   Tcut                                     ... 1.000e-11
   Tpresel                                  ... 1.000e-11 
Coulomb Range Separation                    ... NOT USED
Exchange Range Separation                   ... NOT USED
Multipole approximations                    ... NOT USED
Finite Nucleus Model                        ... NOT USED
CABS basis                                  ... NOT available
Auxiliary Coulomb fitting basis             ... NOT available
Auxiliary J/K fitting basis                 ... NOT available
Auxiliary Correlation fitting basis         ... NOT available
Auxiliary 'external' fitting basis          ... NOT available

Checking pre-screening integrals            ... done (  0.0 sec) Dimension = 102
   => SHARK Basis and OBASIS are compatible. Storing Pre-screening
Shell pair information
Shell pair cut-off parameter TPreSel        ...   1.0e-11
Total number of shell pairs                 ...      5253
Shell pairs after pre-screening             ...      4302
Total number of primitive shell pairs       ...     24562
Primitive shell pairs kept                  ...     13039
          la=0 lb=0:   1428 shell pairs
          la=1 lb=0:   1616 shell pairs
          la=1 lb=1:    483 shell pairs
          la=2 lb=0:    466 shell pairs
          la=2 lb=1:    265 shell pairs
          la=2 lb=2:     44 shell pairs

Checking whether 4 symmetric matrices of dimension 210 fit in memory
:Max Core in MB      =   4096.00
 MB in use           =      6.89
 MB left             =   4089.11
 MB needed           =      0.68
 Data fit in memory  = YES
Calculating Nuclear repulsion               ... done (  0.0 sec) ENN=    552.814330909703 Eh

Diagonalization of the overlap matrix:
Smallest eigenvalue                        ... 2.682e-03
Time for diagonalization                   ...    0.002 sec
Threshold for overlap eigenvalues          ... 1.000e-07
Number of eigenvalues below threshold      ... 0
Time for construction of square roots      ...    0.001 sec
Total time needed                          ...    0.003 sec

-------------------
DFT GRID GENERATION
-------------------

General Integration Accuracy     IntAcc      ... 4.388
Radial Grid Type                 RadialGrid  ... OptM3 with GC (2021)
Angular Grid (max. ang.)         AngularGrid ... 4 (Lebedev-302)
Angular grid pruning method      GridPruning ... 4 (adaptive)
Weight generation scheme         WeightScheme... mBecke (2022)
Basis function cutoff            BFCut       ... 1.0000e-10
Integration weight cutoff        WCut        ... 1.0000e-14
Partially contracted basis set               ... off
Rotationally invariant grid construction     ... off
Angular grids for H and He will be reduced by one unit

Total number of grid points                  ...   104905
Total number of batches                      ...     1650
Average number of points per batch           ...       63
Average number of grid points per atom       ...     4371
Grids setup in   0.4 sec
Initializing property integral containers    ... done (  0.0 sec)

SHARK setup successfully completed in   0.5 seconds

Maximum memory used throughout the entire STARTUP-calculation: 41.7 MB
-------------------------------------------------------------------------------
                                 ORCA GUESS
                   Start orbitals & Density for SCF / CASSCF
-------------------------------------------------------------------------------

------------
SCF SETTINGS
------------
Hamiltonian:
 Ab initio Hamiltonian  Method          .... Hartree-Fock(GTOs)


General Settings:
 Integral files         IntName         .... 2
 Hartree-Fock type      HFTyp           .... RHF
 Total Charge           Charge          ....    0
 Multiplicity           Mult            ....    1
 Number of Electrons    NEL             ....   80
 Basis Dimension        Dim             ....  210
 Nuclear Repulsion      ENuc            ....    552.8143309097 Eh

Convergence Acceleration:
 AO-DIIS                CNVDIIS         .... on
   Start iteration      DIISMaxIt       ....    12
   Startup error        DIISStart       ....  0.200000
   # of expansion vecs  DIISMaxEq       ....     5
   Bias factor          DIISBfac        ....   1.050
   Max. coefficient     DIISMaxC        ....  10.000
 MO-DIIS                CNVKDIIS        .... off
 Trust-Rad. Augm. Hess. CNVTRAH         .... auto
   Auto Start mean grad. ratio tolernc. ....  1.125000
   Auto Start start iteration           ....    50
   Auto Start num. interpolation iter.  ....    10
   Max. Number of Micro iterations      ....    24
   Max. Number of Macro iterations      .... Maxiter - #DIIS iter
   Number of Davidson start vectors     ....     2
   Converg. threshold    (grad. norm)   ....   5.000e-05
   Grad. Scal. Fac. for Micro threshold ....   0.100
   Minimum threshold for Micro iter.    ....   1.000e-02
   NR start threshold (gradient norm)   ....   1.000e-04
   Initial trust radius                 ....   0.400
   Minimum AH scaling param. (alpha)    ....   1.000
   Maximum AH scaling param. (alpha)    .... 1000.000
   Quad. conv. algorithm                .... NR
   White noise on init. David. guess    .... on
   Maximum white noise                  ....   0.010
   Pseudo random numbers                .... off
   Inactive MOs                         .... canonical
   Orbital update algorithm             .... Taylor
   Preconditioner                       .... Diag
   Full preconditioner red. dimension   ....   250
 SOSCF                 CNVSOSCF           .... on
   Start iteration     SOSCFMaxIt         ....   150
   Startup grad/error  SOSCFStart         ....  0.003300
   Hessian update      SOSCFHessUp        .... L-BFGS
   Autom. constraints  SOSCFAutoConstrain .... off
 Level Shifting         CNVShift        .... on
   Level shift para.    LevelShift      ....    0.2500
   Turn off err/grad.   ShiftErr        ....    0.0010
 Zerner damping         CNVZerner       .... off
 Static damping         CNVDamp         .... on
   Fraction old density DampFac         ....    0.7000
   Max. Damping (<1)    DampMax         ....    0.9800
   Min. Damping (>=0)   DampMin         ....    0.0000
   Turn off err/grad.   DampErr         ....    0.1000

SCF Procedure:
 Maximum # iterations   MaxIter         ....   125
 SCF integral mode      SCFMode         .... Direct
   Integral package                     .... SHARK and LIBINT hybrid scheme
 Reset frequency        DirectResetFreq ....    20
 Integral Threshold     Thresh          ....  1.000e-10 Eh
 Primitive CutOff       TCut            ....  1.000e-11 Eh

Convergence Tolerance:
 Convergence Check Mode ConvCheckMode   .... Total+1el-Energy
 Convergence forced     ConvForced      .... 1
 Energy Change          TolE            ....  1.000e-06 Eh
 1-El. energy change                    ....  1.000e-03 Eh
 Orbital Gradient       TolG            ....  5.000e-05
 Orbital Rotation angle TolX            ....  5.000e-05
 DIIS Error             TolErr          ....  1.000e-06

------------------------------
INITIAL GUESS: MODEL POTENTIAL
------------------------------
Loading Hartree-Fock densities                     ... done
Calculating cut-offs                               ... done
Initializing the effective Hamiltonian             ... done
Setting up the integral package (SHARK)            ... done
Starting the Coulomb interaction                   ... done (   0.1 sec)
Making the grid                                    ... done (   0.1 sec)
Mapping shells                                     ... done
Starting the XC term evaluation                    ... done (   0.1 sec)
Transforming the Hamiltonian                       ... done (   0.0 sec)
Diagonalizing the Hamiltonian                      ... done (   0.0 sec)
Back transforming the eigenvectors                 ... done (   0.0 sec)
Now organizing SCF variables                       ... done
                      ------------------
                      INITIAL GUESS DONE (   0.3 sec)
                      ------------------
             **** ENERGY FILE WAS UPDATED (2.en.tmp) ****
Finished Guess after   0.3 sec
Maximum memory used throughout the entire GUESS-calculation: 12.4 MB

-------------------------------------------------------------------------------------------
                                      ORCA LEAN-SCF
                              memory conserving SCF solver
-------------------------------------------------------------------------------------------

----------------------------------------D-I-I-S--------------------------------------------
Iteration    Energy (Eh)           Delta-E    RMSDP     MaxDP     DIISErr   Damp  Time(sec)
-------------------------------------------------------------------------------------------
               ***  Starting incremental Fock matrix formation  ***
    1    -493.5140081332975797     0.00e+00  2.43e-03  6.64e-02  2.70e-01  0.700   2.1
    2    -493.6972654004172227    -1.83e-01  1.83e-03  4.90e-02  1.71e-01  0.700   2.0
                               ***Turning on AO-DIIS***
    3    -493.8040669792807194    -1.07e-01  9.67e-04  2.30e-02  9.86e-02  0.700   2.0
    4    -493.8709997024817540    -6.69e-02  2.16e-03  4.97e-02  6.70e-02  0.000   1.9
    5    -494.0188306068092743    -1.48e-01  2.47e-04  4.88e-03  5.07e-03  0.000   2.0
                              *** Initializing SOSCF ***
---------------------------------------S-O-S-C-F--------------------------------------
Iteration    Energy (Eh)           Delta-E    RMSDP     MaxDP     MaxGrad    Time(sec)
--------------------------------------------------------------------------------------
    6    -494.0193776365159692    -5.47e-04  1.25e-04  2.81e-03  2.83e-03     1.8
               *** Restarting incremental Fock matrix formation ***
    7    -494.0194941419559882    -1.17e-04  7.27e-05  2.21e-03  1.64e-03     2.1
    8    -494.0195259155851772    -3.18e-05  7.00e-05  1.75e-03  4.94e-04     1.7
    9    -494.0195368944374650    -1.10e-05  1.17e-05  2.24e-04  1.79e-04     1.7
   10    -494.0195376140808321    -7.20e-07  7.14e-06  1.63e-04  6.75e-05     1.5
                 **** Energy Check signals convergence ****

               *****************************************************
               *                     SUCCESS                       *
               *           SCF CONVERGED AFTER  10 CYCLES          *
               *****************************************************

             **** ENERGY FILE WAS UPDATED (2.en.tmp) ****

----------------
TOTAL SCF ENERGY
----------------

Total Energy       :       -494.01953775582058 Eh          -13442.95505 eV

Components:
Nuclear Repulsion  :        552.81433090970279 Eh           15042.84271 eV
Electronic Energy  :      -1046.83386866552337 Eh          -28485.79776 eV
One Electron Energy:      -1770.63191898664672 Eh          -48181.34401 eV
Two Electron Energy:        723.79805032112336 Eh           19695.54625 eV

Virial components:
Potential Energy   :       -987.54681519319274 Eh          -26872.51501 eV
Kinetic Energy     :        493.52727743737211 Eh           13429.55996 eV
Virial Ratio       :          2.00099743284911

---------------
SCF CONVERGENCE
---------------

  Last Energy change         ...    7.1964e-07  Tolerance :   1.0000e-06
  Last MAX-Density change    ...    1.6283e-04  Tolerance :   1.0000e-05
  Last RMS-Density change    ...    7.1369e-06  Tolerance :   1.0000e-06
  Last DIIS Error            ...    2.8288e-03  Tolerance :   1.0000e-06
  Last Orbital Gradient      ...    6.7483e-05  Tolerance :   5.0000e-05
  Last Orbital Rotation      ...    1.3331e-04  Tolerance :   5.0000e-05


----------------
ORBITAL ENERGIES
----------------

  NO   OCC          E(Eh)            E(eV) 
   0   2.0000     -20.619850      -561.0946 
   1   2.0000     -20.555484      -559.3432 
   2   2.0000     -15.549943      -423.1355 
   3   2.0000     -15.534252      -422.7085 
   4   2.0000     -11.383406      -309.7582 
   5   2.0000     -11.274803      -306.8030 
   6   2.0000     -11.241158      -305.8875 
   7   2.0000     -11.231459      -305.6235 
   8   2.0000     -11.216061      -305.2045 
   9   2.0000     -11.215047      -305.1770 
  10   2.0000      -1.470171       -40.0054 
  11   2.0000      -1.363995       -37.1162 
  12   2.0000      -1.200935       -32.6791 
  13   2.0000      -1.175173       -31.9781 
  14   2.0000      -1.071652       -29.1611 
  15   2.0000      -0.999849       -27.2073 
  16   2.0000      -0.930694       -25.3255 
  17   2.0000      -0.846201       -23.0263 
  18   2.0000      -0.811928       -22.0937 
  19   2.0000      -0.782179       -21.2842 
  20   2.0000      -0.709734       -19.3128 
  21   2.0000      -0.701446       -19.0873 
  22   2.0000      -0.683364       -18.5953 
  23   2.0000      -0.670717       -18.2511 
  24   2.0000      -0.629985       -17.1428 
  25   2.0000      -0.612070       -16.6553 
  26   2.0000      -0.608752       -16.5650 
  27   2.0000      -0.596299       -16.2261 
  28   2.0000      -0.581589       -15.8259 
  29   2.0000      -0.554967       -15.1014 
  30   2.0000      -0.538444       -14.6518 
  31   2.0000      -0.520186       -14.1550 
  32   2.0000      -0.503563       -13.7027 
  33   2.0000      -0.493094       -13.4178 
  34   2.0000      -0.479579       -13.0500 
  35   2.0000      -0.471913       -12.8414 
  36   2.0000      -0.461501       -12.5581 
  37   2.0000      -0.449701       -12.2370 
  38   2.0000      -0.402219       -10.9449 
  39   2.0000      -0.374545       -10.1919 
  40   0.0000       0.184997         5.0340 
  41   0.0000       0.216210         5.8834 
  42   0.0000       0.222080         6.0431 
  43   0.0000       0.231944         6.3115 
  44   0.0000       0.249696         6.7946 
  45   0.0000       0.264270         7.1911 
  46   0.0000       0.272047         7.4028 
  47   0.0000       0.288293         7.8448 
  48   0.0000       0.313712         8.5365 
  49   0.0000       0.317812         8.6481 
  50   0.0000       0.333199         9.0668 
*Only the first 10 virtual orbitals were printed.

                    ********************************
                    * MULLIKEN POPULATION ANALYSIS *
                    ********************************

-----------------------
MULLIKEN ATOMIC CHARGES
-----------------------
   0 C :   -0.021825
   1 C :   -0.224769
   2 H :    0.258170
   3 H :    0.257483
   4 N :   -0.699686
   5 C :   -0.221154
   6 H :    0.101597
   7 H :    0.097984
   8 C :   -0.237042
   9 H :    0.110453
  10 H :    0.150377
  11 C :   -0.032916
  12 H :    0.140113
  13 H :    0.121067
  14 C :    0.781316
  15 H :    0.372540
  16 N :   -0.677157
  17 O :   -0.637267
  18 H :    0.118331
  19 H :    0.113317
  20 H :    0.280571
  21 O :   -0.585735
  22 H :    0.156265
  23 H :    0.277965
Sum of atomic charges:    0.0000000

--------------------------------
MULLIKEN REDUCED ORBITAL CHARGES
--------------------------------
  0 C s       :     3.190446  s :     3.190446
      pz      :     1.069679  p :     2.765589
      px      :     0.852210
      py      :     0.843699
      dz2     :     0.011409  d :     0.065790
      dxz     :     0.006427
      dyz     :     0.014695
      dx2y2   :     0.018383
      dxy     :     0.014876

  1 C s       :     3.236438  s :     3.236438
      pz      :     1.037370  p :     2.939989
      px      :     0.936210
      py      :     0.966409
      dz2     :     0.008994  d :     0.048343
      dxz     :     0.005731
      dyz     :     0.013558
      dx2y2   :     0.011494
      dxy     :     0.008565

  2 H s       :     0.715721  s :     0.715721
      pz      :     0.012610  p :     0.026109
      px      :     0.007429
      py      :     0.006070

  3 H s       :     0.716415  s :     0.716415
      pz      :     0.010626  p :     0.026102
      px      :     0.007221
      py      :     0.008255

  4 N s       :     3.606499  s :     3.606499
      pz      :     1.166002  p :     4.058440
      px      :     1.759267
      py      :     1.133171
      dz2     :     0.004465  d :     0.034747
      dxz     :     0.005335
      dyz     :     0.012619
      dx2y2   :     0.002531
      dxy     :     0.009796

  5 C s       :     3.234200  s :     3.234200
      pz      :     1.068997  p :     2.938209
      px      :     0.900334
      py      :     0.968879
      dz2     :     0.008987  d :     0.048745
      dxz     :     0.005956
      dyz     :     0.012969
      dx2y2   :     0.011707
      dxy     :     0.009125

  6 H s       :     0.886010  s :     0.886010
      pz      :     0.006773  p :     0.012392
      px      :     0.002452
      py      :     0.003167

  7 H s       :     0.889739  s :     0.889739
      pz      :     0.005977  p :     0.012277
      px      :     0.002090
      py      :     0.004210

  8 C s       :     3.241948  s :     3.241948
      pz      :     0.934404  p :     2.946680
      px      :     0.953570
      py      :     1.058706
      dz2     :     0.008113  d :     0.048414
      dxz     :     0.009279
      dyz     :     0.011579
      dx2y2   :     0.011721
      dxy     :     0.007721

  9 H s       :     0.877101  s :     0.877101
      pz      :     0.006263  p :     0.012446
      px      :     0.002755
      py      :     0.003428

 10 H s       :     0.836746  s :     0.836746
      pz      :     0.007092  p :     0.012877
      px      :     0.001843
      py      :     0.003942

 11 C s       :     3.201972  s :     3.201972
      pz      :     0.890427  p :     2.760374
      px      :     0.878690
      py      :     0.991256
      dz2     :     0.014247  d :     0.070571
      dxz     :     0.012532
      dyz     :     0.017015
      dx2y2   :     0.018305
      dxy     :     0.008472

 12 H s       :     0.847396  s :     0.847396
      pz      :     0.005466  p :     0.012491
      px      :     0.001923
      py      :     0.005102

 13 H s       :     0.866548  s :     0.866548
      pz      :     0.002317  p :     0.012385
      px      :     0.002606
      py      :     0.007463

 14 C s       :     2.949985  s :     2.949985
      pz      :     0.629079  p :     2.122758
      px      :     0.875592
      py      :     0.618086
      dz2     :     0.021385  d :     0.145941
      dxz     :     0.020321
      dyz     :     0.028019
      dx2y2   :     0.048214
      dxy     :     0.028002

 15 H s       :     0.585953  s :     0.585953
      pz      :     0.008697  p :     0.041506
      px      :     0.025876
      py      :     0.006933

 16 N s       :     3.599727  s :     3.599727
      pz      :     1.139818  p :     4.043026
      px      :     1.751005
      py      :     1.152203
      dz2     :     0.005681  d :     0.034404
      dxz     :     0.008725
      dyz     :     0.008745
      dx2y2   :     0.003143
      dxy     :     0.008109

 17 O s       :     3.836684  s :     3.836684
      pz      :     1.700044  p :     4.775295
      px      :     1.464403
      py      :     1.610848
      dz2     :     0.004484  d :     0.025288
      dxz     :     0.001137
      dyz     :     0.006913
      dx2y2   :     0.010921
      dxy     :     0.001833

 18 H s       :     0.869632  s :     0.869632
      pz      :     0.005950  p :     0.012037
      px      :     0.002079
      py      :     0.004008

 19 H s       :     0.874678  s :     0.874678
      pz      :     0.006831  p :     0.012005
      px      :     0.002460
      py      :     0.002713

 20 H s       :     0.693370  s :     0.693370
      pz      :     0.004147  p :     0.026059
      px      :     0.008275
      py      :     0.013637

 21 O s       :     3.871759  s :     3.871759
      pz      :     1.546195  p :     4.681262
      px      :     1.592837
      py      :     1.542230
      dz2     :     0.004647  d :     0.032714
      dxz     :     0.007475
      dyz     :     0.004403
      dx2y2   :     0.007246
      dxy     :     0.008944

 22 H s       :     0.831529  s :     0.831529
      pz      :     0.001868  p :     0.012205
      px      :     0.002709
      py      :     0.007629

 23 H s       :     0.695949  s :     0.695949
      pz      :     0.013061  p :     0.026086
      px      :     0.008525
      py      :     0.004501



                     *******************************
                     * LOEWDIN POPULATION ANALYSIS *
                     *******************************

----------------------
LOEWDIN ATOMIC CHARGES
----------------------
   0 C :   -0.042165
   1 C :   -0.131458
   2 H :    0.122140
   3 H :    0.121889
   4 N :   -0.299177
   5 C :   -0.114213
   6 H :    0.054495
   7 H :    0.052885
   8 C :   -0.106395
   9 H :    0.059878
  10 H :    0.074999
  11 C :   -0.027655
  12 H :    0.070623
  13 H :    0.064185
  14 C :    0.228046
  15 H :    0.201443
  16 N :   -0.273468
  17 O :   -0.211093
  18 H :    0.061550
  19 H :    0.059024
  20 H :    0.134334
  21 O :   -0.311292
  22 H :    0.079026
  23 H :    0.132399

-------------------------------
LOEWDIN REDUCED ORBITAL CHARGES
-------------------------------
  0 C s       :     2.879526  s :     2.879526
      pz      :     1.079853  p :     3.035088
      px      :     0.994149
      py      :     0.961086
      dz2     :     0.020746  d :     0.127550
      dxz     :     0.011595
      dyz     :     0.025944
      dx2y2   :     0.039217
      dxy     :     0.030048

  1 C s       :     2.899569  s :     2.899569
      pz      :     1.066519  p :     3.140118
      px      :     1.030612
      py      :     1.042987
      dz2     :     0.016169  d :     0.091772
      dxz     :     0.010816
      dyz     :     0.023857
      dx2y2   :     0.023350
      dxy     :     0.017579

  2 H s       :     0.796851  s :     0.796851
      pz      :     0.036712  p :     0.081009
      px      :     0.025737
      py      :     0.018560

  3 H s       :     0.797159  s :     0.797159
      pz      :     0.031064  p :     0.080952
      px      :     0.024880
      py      :     0.025008

  4 N s       :     3.190967  s :     3.190967
      pz      :     1.166457  p :     4.046894
      px      :     1.713671
      py      :     1.166767
      dz2     :     0.009502  d :     0.061315
      dxz     :     0.006243
      dyz     :     0.024100
      dx2y2   :     0.006186
      dxy     :     0.015283

  5 C s       :     2.886122  s :     2.886122
      pz      :     1.080790  p :     3.135687
      px      :     1.006537
      py      :     1.048360
      dz2     :     0.016203  d :     0.092403
      dxz     :     0.011260
      dyz     :     0.022113
      dx2y2   :     0.023867
      dxy     :     0.018960

  6 H s       :     0.906160  s :     0.906160
      pz      :     0.019854  p :     0.039345
      px      :     0.008994
      py      :     0.010497

  7 H s       :     0.908280  s :     0.908280
      pz      :     0.017712  p :     0.038835
      px      :     0.007846
      py      :     0.013278

  8 C s       :     2.892240  s :     2.892240
      pz      :     1.020771  p :     3.122663
      px      :     1.030926
      py      :     1.070967
      dz2     :     0.015680  d :     0.091492
      dxz     :     0.019048
      dyz     :     0.020273
      dx2y2   :     0.022250
      dxy     :     0.014240

  9 H s       :     0.900918  s :     0.900918
      pz      :     0.018764  p :     0.039204
      px      :     0.009199
      py      :     0.011241

 10 H s       :     0.883457  s :     0.883457
      pz      :     0.021250  p :     0.041544
      px      :     0.007111
      py      :     0.013182

 11 C s       :     2.868651  s :     2.868651
      pz      :     0.998922  p :     3.017637
      px      :     0.993757
      py      :     1.024958
      dz2     :     0.028370  d :     0.141366
      dxz     :     0.026676
      dyz     :     0.033070
      dx2y2   :     0.036308
      dxy     :     0.016943

 12 H s       :     0.889014  s :     0.889014
      pz      :     0.017154  p :     0.040363
      px      :     0.007591
      py      :     0.015617

 13 H s       :     0.896154  s :     0.896154
      pz      :     0.008274  p :     0.039661
      px      :     0.009323
      py      :     0.022063

 14 C s       :     2.848777  s :     2.848777
      pz      :     0.736764  p :     2.606416
      px      :     1.040595
      py      :     0.829058
      dz2     :     0.044648  d :     0.316761
      dxz     :     0.041047
      dyz     :     0.065150
      dx2y2   :     0.105464
      dxy     :     0.060453

 15 H s       :     0.678212  s :     0.678212
      pz      :     0.026480  p :     0.120344
      px      :     0.071903
      py      :     0.021961

 16 N s       :     3.185840  s :     3.185840
      pz      :     1.160237  p :     4.026509
      px      :     1.700754
      py      :     1.165519
      dz2     :     0.013476  d :     0.061119
      dxz     :     0.012320
      dyz     :     0.017535
      dx2y2   :     0.006676
      dxy     :     0.011111

 17 O s       :     3.457794  s :     3.457794
      pz      :     1.671351  p :     4.705347
      px      :     1.433978
      py      :     1.600018
      dz2     :     0.006626  d :     0.047952
      dxz     :     0.004297
      dyz     :     0.012927
      dx2y2   :     0.018092
      dxy     :     0.006011

 18 H s       :     0.900480  s :     0.900480
      pz      :     0.018035  p :     0.037970
      px      :     0.007060
      py      :     0.012875

 19 H s       :     0.903208  s :     0.903208
      pz      :     0.020256  p :     0.037768
      px      :     0.008125
      py      :     0.009387

 20 H s       :     0.783907  s :     0.783907
      pz      :     0.013163  p :     0.081759
      px      :     0.027739
      py      :     0.040856

 21 O s       :     3.548002  s :     3.548002
      pz      :     1.527776  p :     4.706062
      px      :     1.624939
      py      :     1.553347
      dz2     :     0.007394  d :     0.057228
      dxz     :     0.010722
      dyz     :     0.008082
      dx2y2   :     0.012055
      dxy     :     0.018975

 22 H s       :     0.880900  s :     0.880900
      pz      :     0.007557  p :     0.040075
      px      :     0.009695
      py      :     0.022823

 23 H s       :     0.786009  s :     0.786009
      pz      :     0.038637  p :     0.081592
      px      :     0.028993
      py      :     0.013962



                      *****************************
                      * MAYER POPULATION ANALYSIS *
                      *****************************

  NA   - Mulliken gross atomic population
  ZA   - Total nuclear charge
  QA   - Mulliken gross atomic charge
  VA   - Mayer's total valence
  BVA  - Mayer's bonded valence
  FA   - Mayer's free valence

  ATOM       NA         ZA         QA         VA         BVA        FA
  0 C      6.0218     6.0000    -0.0218     3.8022     3.8022     0.0000
  1 C      6.2248     6.0000    -0.2248     3.7936     3.7936    -0.0000
  2 H      0.7418     1.0000     0.2582     0.9101     0.9101    -0.0000
  3 H      0.7425     1.0000     0.2575     0.9103     0.9103    -0.0000
  4 N      7.6997     7.0000    -0.6997     2.7555     2.7555    -0.0000
  5 C      6.2212     6.0000    -0.2212     3.7903     3.7903     0.0000
  6 H      0.8984     1.0000     0.1016     0.9519     0.9519     0.0000
  7 H      0.9020     1.0000     0.0980     0.9527     0.9527     0.0000
  8 C      6.2370     6.0000    -0.2370     3.7879     3.7879     0.0000
  9 H      0.8895     1.0000     0.1105     0.9496     0.9496     0.0000
 10 H      0.8496     1.0000     0.1504     0.9502     0.9502     0.0000
 11 C      6.0329     6.0000    -0.0329     3.7445     3.7445     0.0000
 12 H      0.8599     1.0000     0.1401     0.9487     0.9487     0.0000
 13 H      0.8789     1.0000     0.1211     0.9507     0.9507    -0.0000
 14 C      5.2187     6.0000     0.7813     3.7019     3.7019     0.0000
 15 H      0.6275     1.0000     0.3725     0.8716     0.8716     0.0000
 16 N      7.6772     7.0000    -0.6772     2.7727     2.7727     0.0000
 17 O      8.6373     8.0000    -0.6373     1.8181     1.8181     0.0000
 18 H      0.8817     1.0000     0.1183     0.9475     0.9475     0.0000
 19 H      0.8867     1.0000     0.1133     0.9481     0.9481    -0.0000
 20 H      0.7194     1.0000     0.2806     0.9061     0.9061    -0.0000
 21 O      8.5857     8.0000    -0.5857     1.9023     1.9023    -0.0000
 22 H      0.8437     1.0000     0.1563     0.9408     0.9408     0.0000
 23 H      0.7220     1.0000     0.2780     0.9044     0.9044     0.0000

  Mayer bond orders larger than 0.100000
B(  0-C ,  1-C ) :   0.9632 B(  0-C ,  4-N ) :   0.9450 B(  0-C , 18-H ) :   0.9731 
B(  0-C , 19-H ) :   0.9737 B(  1-C ,  5-C ) :   0.9637 B(  1-C ,  6-H ) :   0.9723 
B(  1-C ,  7-H ) :   0.9728 B(  2-H ,  4-N ) :   0.9154 B(  3-H ,  4-N ) :   0.9157 
B(  5-C ,  8-C ) :   0.9738 B(  5-C ,  9-H ) :   0.9759 B(  5-C , 10-H ) :   0.9599 
B(  8-C , 11-C ) :   0.9538 B(  8-C , 12-H ) :   0.9662 B(  8-C , 13-H ) :   0.9718 
B( 11-C , 14-C ) :   0.9243 B( 11-C , 16-N ) :   0.9874 B( 11-C , 22-H ) :   0.9537 
B( 14-C , 17-O ) :   0.9671 B( 14-C , 21-O ) :   1.8379 B( 15-H , 17-O ) :   0.8399 
B( 16-N , 20-H ) :   0.8997 B( 16-N , 23-H ) :   0.9083 

-------
TIMINGS
-------

Total SCF time: 0 days 0 hours 0 min 20 sec 

Total time                  ....      20.237 sec
Sum of individual times     ....      18.805 sec  ( 92.9%)

SCF preparation             ....       0.016 sec  (  0.1%)
Fock matrix formation       ....      18.726 sec  ( 92.5%)
  Startup                   ....       0.001 sec  (  0.0% of F)
  Coulomb+Exchange Fock     ....      20.149 sec  (107.6% of F)
Diagonalization             ....       0.000 sec  (  0.0%)
Density matrix formation    ....       0.004 sec  (  0.0%)
Total Energy calculation    ....       0.001 sec  (  0.0%)
Population analysis         ....       0.003 sec  (  0.0%)
Orbital Transformation      ....       0.007 sec  (  0.0%)
Orbital Orthonormalization  ....       0.000 sec  (  0.0%)
DIIS solution               ....       0.033 sec  (  0.2%)
SOSCF solution              ....       0.013 sec  (  0.1%)
Finished LeanSCF after  20.2 sec

Maximum memory used throughout the entire LEANSCF-calculation: 16.0 MB

------------------------------------------------------------------------------
                                ORCA  MP2 
------------------------------------------------------------------------------

Freezing NCore=20 chemical core electrons

----------
MP2 ENERGY (disk based algorithm)
----------

Dimension of the basis                      ...  210
Memory devoted to MP2                       ... 4096 MB   
Data format for buffers                     ... DOUBLE
Compression type for matrix containers      ... UNCOMPRESSED

-------------------------
SHARK HALF TRANSFORMATION (Exchange order)
-------------------------

Number of basis functions                   ...    210
Number of operators                         ...      1
   Operator  0:   10-  39 (p-index in (p*|q*))
   Operator  0:   10-  39 (q-index in (p*|q*)
Integral generator used                     ... SHARK
Contraction scheme used                     ... SEGMENTED CONTRACTION
MaxCore in resort                           ...   4096 MB

Half transformed integrals for op=   0      ... 2.SHARK_MNPQ0.tmp
Resorted half transformed integrals         ... 2.KAO_aa.tmp

Half trafo (segmented) done. Total time = 14.0 sec. integrals= 12.3 sec trafo=  1.5 sec

----------------------
SHARK INTEGRAL SORTING (Exchange)
----------------------

Input container                             ... 2.SHARK_MNPQ0.tmp
Output container                            ... 2.KAO_aa.tmp
Range of AO-indices                         ...    0 -  209
Range of bra indices i                      ...   10 -   39
Range of ket indices j                      ...   10 -   39
Symmetric i,j range                         ... YES
Number of (i,j) pairs generated             ...  465
Max Core memory in MB                       ...   4096

Available core memory in MB                 ...   4085.32
MB needed for one item                      ...      0.34
Fixed MB needed                             ...      0.00
Number of items                             ...       465
Number of batches                           ...         1
Items treated per batch                     ...       465
Batch   0                                   ...      0-   464 (   465)
   => Closing output file and leaving
done (  0.2 sec)

SHARK half integral transformation done. Total time = 14.2 sec.


Finished integral transformation - now doing MP2 part

OPERATOR COMBINATION   0   0: ij=( 10.. 39, 10.. 39)
  Internal MO  12
  Internal MO  15
  Internal MO  18
  Internal MO  21
  Internal MO  24
  Internal MO  27
  Internal MO  30
  Internal MO  33
  Internal MO  36
  Internal MO  39
-----------------------------------------------
 MP2 CORRELATION ENERGY   :     -1.531809069 Eh
-----------------------------------------------


-------
TIMINGS
-------
Total time                :   14.465 sec
Integral trafo            :   14.225 sec ( 98.3%)
K(i,j)                    :    0.197 sec (  1.4%)
T(i,j)                    :    0.006 sec (  0.0%)

---------------------------------------
MP2 TOTAL ENERGY:     -495.551346824 Eh
---------------------------------------

Maximum memory used throughout the entire MP2-calculation: 168.5 MB

-------------------------   --------------------
FINAL SINGLE POINT ENERGY      -495.551346824482
-------------------------   --------------------


------------------------------------------------------------------------------
                              ORCA PROPERTY CALCULATIONS
------------------------------------------------------------------------------

GBWName                                 ... 2.gbw
Number of atoms                         ...     24
Number of basis functions               ...    210
Max core memory                         ...   4096 MB

Electric properties:
Dipole moment                           ... YES
Quadrupole moment                       ...  NO
Static polarizability (Dipole/Dipole)   ...  NO
Static polarizability (Dipole/Quad.)    ...  NO
Static polarizability (Quad./Quad.)     ...  NO
Static polarizability (Velocity)        ...  NO
Static hyperpolarizability              ...  NO

Atomic electric properties:
Dipole moment                           ...  NO
Quadrupole moment                       ...  NO
Static polarizability                   ...  NO

Choice of electric origin               ... Center of mass
Position of electric origin             ...   -20.095128    11.237537     0.946477

General magnetic properties:
Magnetizability                         ...  NO

EPR properties:
g-Tensor (aka g-matrix)                 ...  NO
Zero-Field splitting spin-orbit         ...  NO
Zero-field splitting spin-spin          ...  NO
Hyperfine couplings                     ...  NO (   0 nuclei)
Quadrupole couplings                    ...  NO (   0 nuclei)
Contact density                         ...  NO (   0 nuclei)

NMR properties:
Chemical shifts                         ...  NO (   0 nuclei)
Spin-rotation constants                 ...  NO (   0 nuclei)
Spin-spin couplings                     ...  NO (   0 nuclei,    0 pairs)

Choice of magnetic origin               ... GIAO
Position of magnetic origin             ...     0.000000     0.000000     0.000000

Properties with geometric perturbations:
SCF Hessian                             ...  NO
IR spectrum                             ...  NO
VCD spectrum                            ...  NO
X-ray spectroscopy properties:
SCF XES/XAS/RIXS spectra                ...  NO

SCF SOC stabilization energy            ...  NO
Diagonal Born-Oppenheimer correction    ...  NO

-------------
DIPOLE MOMENT
-------------

Method             : SCF
Type of density    : Electron Density
Multiplicity       :   1
Irrep              :   0
Energy             :  -494.0195377558205792 Eh
Basis              : AO
                                X                 Y                 Z
Electronic contribution:     13.656366735      -0.211146032      -1.587060538
Nuclear contribution   :    -13.046513763       0.773023519       1.912992456
                        -----------------------------------------
Total Dipole Moment    :      0.609852972       0.561877487       0.325931917
                        -----------------------------------------
Magnitude (a.u.)       :      0.890987415
Magnitude (Debye)      :      2.264710028



--------------------
Rotational spectrum 
--------------------
 
Rotational constants in cm-1:             0.096193             0.016389             0.015434 
Rotational constants in MHz :          2883.790384           491.330846           462.694070 

Dipole components along the rotational axes: 
x,y,z [a.u.] :    -0.460485     0.761371    -0.046117 
x,y,z [Debye]:    -1.170461     1.935250    -0.117220 

 

Dipole moment calculation done in   0.0 sec 

Maximum memory used throughout the entire PROP-calculation: 10.9 MB

--------------------------------
SUGGESTED CITATIONS FOR THIS RUN
--------------------------------

Below you find a list of papers that are relevant to this ORCA run
We neither can nor want to force you to cite these papers, but we appreciate if you do
You receive ORCA, which is the product of decades of hard work by many enthusiastic individuals, for free
The only thing we kindly ask in return is that you cite our papers,
We deeply appreciate it, if you show your appreciation for ORCA by not just citing the generic ORCA reference.

Please note that relegating all ORCA citations to the supporting information does *not* help us.
SI sections are not indexed - citations you put there will not count into any citation statistics
But we need these citations in order to attract the funding resources that allow us to do what we are doing

Therefore, if you are a happy ORCA user, please consider citing a few of the papers listed below in the main body of your paper

In addition to the list printed below, the program has created the file 2.bibtex that contains the list in bibtex format
You can import this file easily into all common literature databanks and citation aid programs


List of essential papers. We consider these as the minimum necessary citations

  1. Neese, F.
     Software update: the ORCA program system, version 6.0
     WIRES Comput. Molec. Sci. 2025 15(1), e70019
     doi.org/10.1002/wcms.7019

List of papers to cite with high priority. The work reported in these papers was absolutely
necessary for this run to complete.
Our perspective: the developers of density functionals and basis sets usually get cited in chemistry papers
Good! But without the algorithms to do something with them, the functionals or basis sets would not do anything.
Hence, in our opinion, the algorithm design and method developments papers are equally worthy of getting cited

  1. Neese, F.
     The SHARK Integral Generation and Digestion System
     J. Comp. Chem. 2022 44(3), 381
     doi.org/10.1002/jcc.26942

List of suggested additional citations. These are papers that are important in the 'surrounding' of 
of this run, or papers that preceded the highly important papers. If you like your results we are grateful for a citation.

  1. Neese, F.
     The ORCA program system
     WIRES Comput. Molec. Sci. 2012 2(1), 73-78
     doi.org/10.1002/wcms.81
  2. Neese, F.
     Software update: the ORCA program system, version 4.0
     WIRES Comput. Molec. Sci. 2018 8(1), 1-6
     doi.org/10.1002/wcms.1327
  3. Neese, F.; Wennmohs, F.; Becker, U.; Riplinger, C.
     The ORCA quantum chemistry program package
     J. Chem. Phys. 2020 152(22), 224108
     doi.org/10.1063/5.0004608
  4. Neese, F.
     Software update: The ORCA program system—Version 5.0
     WIRES Comput. Molec. Sci. 2022 12(1), e1606
     doi.org/10.1002/wcms.1606

List of optional additional citations

  1. Neese, F.
     Approximate second-order SCF convergence for spin unrestricted wavefunctions
     Chem. Phys. Lett. 2000 325(1-3), 93-98
     doi.org/10.1016/s0009-2614(00)00662-x

Timings for individual modules:

Sum of individual times          ...       35.543 sec (=   0.592 min)
Startup calculation              ...        0.496 sec (=   0.008 min)   1.4 %
SCF iterations                   ...       20.531 sec (=   0.342 min)  57.8 %
Property calculations            ...        0.026 sec (=   0.000 min)   0.1 %
MP2 module                       ...       14.490 sec (=   0.242 min)  40.8 %
                             ****ORCA TERMINATED NORMALLY****
TOTAL RUN TIME: 0 days 0 hours 0 minutes 35 seconds 583 msec
