
                                 *****************
                                 * O   R   C   A *
                                 *****************

                                            #,                                       
                                            ###                                      
                                            ####                                     
                                            #####                                    
                                            ######                                   
                                           ########,                                 
                                     ,,################,,,,,                         
                               ,,#################################,,                 
                          ,,##########################################,,             
                       ,#########################################, ''#####,          
                    ,#############################################,,   '####,        
                  ,##################################################,,,,####,       
                ,###########''''           ''''###############################       
              ,#####''   ,,,,##########,,,,          '''####'''          '####       
            ,##' ,,,,###########################,,,                        '##       
           ' ,,###''''                  '''############,,,                           
         ,,##''                                '''############,,,,        ,,,,,,###''
      ,#''                                            '''#######################'''  
     '                                                          ''''####''''         
             ,#######,   #######,   ,#######,      ##                                
            ,#'     '#,  ##    ##  ,#'     '#,    #''#        ,####,    ,#,          
            ##       ##  ##   ,#'  ##            #'  '#       #'       ,# #          
            ##       ##  #######   ##           ,######,      #####,      #          
            '#,     ,#'  ##    ##  '#,     ,#' ,#      #,     #,   #      #          
             '#######'   ##     ##  '#######'  #'      '#     '####' #    #          



                #########################################################
                #                        -***-                          #
                #          Department of theory and spectroscopy        #
                #                                                       #
                #                      Frank Neese                      #
                #                                                       #
                #     Directorship, Architecture, Infrastructure        #
                #                    SHARK, DRIVERS                     #
                #        Core code/Algorithms in most modules           #
                #                                                       #
                #        Max Planck Institute fuer Kohlenforschung      #
                #                Kaiser Wilhelm Platz 1                 #
                #                 D-45470 Muelheim/Ruhr                 #
                #                      Germany                          #
                #                                                       #
                #                  All rights reserved                  #
                #                        -***-                          #
                #########################################################


                         Program Version 6.1.0  -  RELEASE   -
                                (GIT: $679e74b$)
                          ($2025-06-10 18:02:51 +0200$)


 With contributions from (in alphabetic order):
[Max-Planck-Institut fuer Kohlenforschung]                               
  Daniel Aravena         : Magnetic Suceptibility                        
  Michael Atanasov       : Ab Initio Ligand Field Theory (pilot matlab implementation)
  Alexander A. Auer      : GIAO ZORA, VPT2 properties, NMR spectrum      
  Ute Becker             : All parallelization in ORCA, NUMFREQ, NUMCALC 
  Giovanni Bistoni       : ED, misc. LED, open-shell LED, HFLD           
  Dmytro Bykov           : pre 5.0 version of the SCF Hessian            
  Marcos Casanova-Páez   : Triplet and SCS-CIS(D). UHF-(DLPNO)-IP/EA/STEOM-CCSD. UHF-CVS-IP/STEOM-CCSD   
  Vijay G. Chilkuri      : MRCI spin determinant printing, contributions to CSF-ICE 
  Pauline Colinet        : FMM embedding                                 
  Dipayan Datta          : RHF DLPNO-CCSD density                        
  Achintya Kumar Dutta   : EOM-CC, STEOM-CC                              
  Nicolas Foglia         : Exact transition moments, OPA infrastructure, MCD improvements    
  Dmitry Ganyushin       : Spin-Orbit,Spin-Spin,Magnetic field MRCI      
  Miquel Garcia-Rates    : C-PCM and meta-GGA Hessian, CCSD/C-PCM, Gaussian charge scheme 
  Tiago L. C. Gouveia    : GS-ROHF, GS-ROCIS                             
  Yang Guo               : DLPNO-NEVPT2, F12-NEVPT2, CIM, IAO-localization        
  Andreas Hansen         : Spin unrestricted coupled pair/coupled cluster methods 
  Ingolf Harden          : AUTO-CI MPn and infrastructure                
  Benjamin Helmich-Paris : MC-RPA, TRAH-(SCF,CASSCF), AVAS, COSX integrals, SCF dyn. polar., MC-PDFT, srDFT 
  Lee Huntington         : MR-EOM, pCC                                   
  Robert Izsak           : Overlap fitted RIJCOSX, COSX-SCS-MP3, EOM     
  Riya Kayal             : Wick's Theorem for AUTO-CI, AUTO-CI UHF-CCSDT 
  Emily Kempfer          : AUTO-CI RHF CISDT and CCSDT, approximate NEVPT4
  Christian Kollmar      : KDIIS, OOCD, Brueckner-CCSD(T), CCSD density, CASPT2, CASPT2-K, improved NEVPT2 
  Axel Koslowski         : Symmetry handling                             
  Simone Kossmann        : meta-GGA functionals, TD-DFT gradient, OOMP2, (MP2 Hessian; deprecated post 5.0) 
  Lucas Lang             : DCDCAS, Hyperfine gauge corrections, ICE-SOC+SSC
  Marvin Lechner         : AUTO-CI (C++ implementation), FIC-MRCC        
  Spencer Leger          : CASSCF response                               
  Dagmar Lenk            : GEPOL surface, SMD, ORCA-2-JSON               
  Dimitrios Liakos       : Extrapolation schemes; Compound Job, Property file
  Dimitrios Manganas     : Further ROCIS development; embedding schemes. LFT, Crystal Embedding 
  Dimitrios Pantazis     : SARC Basis sets                               
  Anastasios Papadopoulos: AUTO-CI, single reference methods and gradients 
  Taras Petrenko         : pre 6.0 DFT Hessian and TD-DFT gradient,  ECA, NRVS 
  Petra Pikulova         : Analytic Raman intensities                    
  Peter Pinski           : DLPNO-MP2, DLPNO-MP2 Gradient                 
  Shashank Vittal Rao    : ES-AILFT, MagRelax                            
  Christoph Reimann      : Effective Core Potentials                     
  Marius Retegan         : Local ZFS, SOC                                
  Christoph Riplinger    : Optimizer, TS searches, QM/MM, DLPNO-CCSD(T), (RO)-DLPNO pert. Triples 
  Michael Roemelt        : Original ROCIS implementation, recursive CI coupling coefficients
  Masaaki Saitow         : Open-shell DLPNO-CCSD energy and density      
  Barbara Sandhoefer     : DKH picture change effects                    
  Yorick L. A. Schmerwitz: GMF and freeze-and-release deltaSCF, NEB S-IDPP initial path                    
  Kantharuban Sivalingam : CASSCF convergence/infrastructure, NEVPT2, NEVPT3, NEVPT4(SD), FIC-MRCI and CEPA variants
  Bernardo de Souza      : ESD, SOC TD-DFT                               
  Georgi L. Stoychev     : AutoAux, RI-MP2 NMR, DLPNO-MP2 response, X2C  
  Van Anh Tran           : RI-MP2 g-tensors                              
  Willem Van den Heuvel  : Paramagnetic NMR                              
  Zikuan Wang            : NOTCH, Electric field optimization            
  Frank Wennmohs         : Technical directorship and infrastructure     
  Hang Xu                : AUTO-CI-Response properties                   
                                                                         
[FACCTs GmbH]                                                            
  Markus Bursch, Nicolas Foglia, Miquel Garcia-Rates, Ingolf Harden, Hagen Neugebauer, Anastasios Papadopoulos, 
  Christoph Riplinger, Bernardo de Souza, Georgi L. Stoychev                                                    
                                                                 
  APM, various basis sets, CI-OPT, improved COSX, DLPNO-Multilevel,           
  DOCKER, DRACO, updates on ESD, Fragmentator, GOAT, IRC, LR-CPCM, L-BFGS, MBIS, meta-GGA TD-DFT gradient, ML-optimized integration grids, 
  MM, NACMEs, nearIR, NEB, NEB-TS, NL-DFT gradient (VV10), 2- and 3-layer-ONIOM, interface openCOSMO-RS, QMMM,   
  Crystal-QMMM, RESP, rigid body optimization, SF, symmetry and pop. for TD-DFT, various functionals, SOLVATOR                                   
                                                                         
[Other institutions]                                                     
  V. Asgeirsson          : NEB                                           
  Christoph Bannwarth    : sTDA-DFT, sTD-DFT, PBEh-3c, B97-3c, D3        
  Giovanni Bistoni       : ETS/NOCV, ADLD/ADEX, COVALED                  
  Martin Brehm           : Molecular dynamics                            
  Ronald Cardenas        : ETS/NOCV                                      
  Martina Colucci        : COVALED                                       
  Sebastian Ehlert       : rSCAN, r2SCAN, r2SCAN-3c, D4, dhf basis sets  
  Marvin Friede          : D4 for Fr, Ra, Ac-Lr                          
  Lars Goerigk           : TD-DFT with DH, B97 family of functionals     
  Stefan Grimme          : VdW corrections, initial TS optimization, DFT functionals, gCP, sTDA/sTD-DF 
  Waldemar Hujo          : DFT-NL                                        
  H. Jonsson             : NEB                                           
  Holger Kruse           : gCP                                           
  Marcel Mueller         : wB97X-3c, vDZP basis set                      
  Hagen Neugebauer       : wr2SCAN, Native XTB                           
  Gianluca Regni         : ADLD/ADEX                                     
  Tobias Risthaus        : pre 6.0 range-separated hybrid DFT and stability analysis
  Lukas Wittmann         : regularized MP2, r2SCAN double-hybrids, wr2SCAN        
                                                                         
We gratefully acknowledge several colleagues who have allowed us to      
interface, adapt or use parts of their codes:                            
  Ed Valeev, F. Pavosevic, A. Kumar             : LibInt (2-el integral package), F12 methods 
  Garnet Chan, S. Sharma, J. Yang, R. Olivares  : DMRG                   
  Ulf Ekstrom                                   : XCFun DFT Library      
  Mihaly Kallay                                 : mrcc  (arbitrary order and MRCC methods)
  Frank Weinhold                                : gennbo (NPA and NBO analysis)           
  Simon Mueller                                 : openCOSMO-RS                            
  Christopher J. Cramer and Donald G. Truhlar   : smd solvation model                     
  S Lehtola, MJT Oliveira, MAL Marques          : LibXC Library                           
  Liviu Ungur et al                             : ANISO software                          


 Your calculation uses the libint2 library for the computation of 2-el integrals
 For citations please refer to: http://libint.valeyev.net

 Your ORCA version has been built with support for libXC version: 7.0.0
 For citations please refer to: https://libxc.gitlab.io

 This ORCA versions uses:
   CBLAS   interface :  Fast vector & matrix operations
   LAPACKE interface :  Fast linear algebra routines
   SCALAPACK package :  Parallel linear algebra routines
   Shared memory     :  Shared parallel matrices
   BLAS/LAPACK       :  OpenBLAS 0.3.29  USE64BITINT DYNAMIC_ARCH NO_AFFINITY Haswell SINGLE_THREADED
        Core in use  :  Haswell
   Copyright (c) 2011-2014, The OpenBLAS Project


  ***********************************
  * Starting time: Thu Aug 14 12:10:32 2025
  * Host name:     CHEMLAB02
  * Process ID:    1769370
  * Working dir.:  /home/vivek/mm-project/vivek/B97-D/g/1
  ***********************************



***************************************
The coordinates will be read from file: /home/vivek/mm-project/vivek/xtb-goat/g/G_CONF/1.xyz
***************************************


Your calculation utilizes empirical dispersion correction


Warning: RI is on but no J-basis has been assigned. Assigning Def2/J (nothing to worry about!)
================================================================================

----- Orbital basis set information -----
Your calculation utilizes the basis: 6-31G**
   H-He, Li-Ne : W. J. Hehre, R. Ditchfield and J.A. Pople, J. Chem. Phys. 56, 2257 (1972).
                 Note: He and Ne are unpublished basis sets taken from the Gaussian program.
                 Note: Li and B from J. D. Dill and J. A. Pople, J. Chem. Phys. 62, 2921 (1975).
   Na - Ar     : M. M. Francl, W. J. Pietro, W. J. Hehre, J. S. Binkley, M. S. Gordon, 
                 D. J. DeFrees and J. A. Pople, J. Chem. Phys. 77, 3654 (1982).
   K - Zn      : V. A. Rassolov, J. A. Pople, M. A. Ratner, and T. L. Windus, J. Chem. Phys. 109, 1223 (1998).

----- AuxJ basis set information -----
Your calculation utilizes the auxiliary basis: def2/J
   H-Rn: F. Weigend, Phys. Chem. Chem. Phys. 8, 1057 (2006).
   Fr-Lr: K. Eichkorn, F. Weigend, O. Treutler, R. Ahlrichs; Theor. Chem. Acc. 97, 119 (1997).

================================================================================
                                        WARNINGS
                       Please study these warnings very carefully!
================================================================================


INFO   : The exchange functional is Grimme's B97(-D)
         As described in S. Grimme, J. Comput. Chem. 27, 1787 (2006).
         Note that this functional defaults to a pure GGA. 

INFO   : The correlation functional is Grimme's B97(-D)
         As described in S. Grimme, J. Comput. Chem. 27, 1787 (2006).

================================================================================
                                       INPUT FILE
================================================================================
NAME = 1.inp
|  1> ! B97-D 6-31G** 
|  2> 
|  3> * xyzfile 0 1 /home/vivek/mm-project/vivek/xtb-goat/g/G_CONF/1.xyz
|  4> 
|  5>                          ****END OF INPUT****
================================================================================

                       ****************************
                       * Single Point Calculation *
                       ****************************

---------------------------------
CARTESIAN COORDINATES (ANGSTROEM)
---------------------------------
  C     -4.969531   -1.295744   -0.272784
  C     -4.610334   -2.514344    0.564030
  H     -6.400171   -0.449500    0.900261
  H     -4.905131    0.163365    1.143459
  N     -5.544529   -0.172391    0.431076
  O     -4.890890   -2.342470    1.864309
  H     -4.056359   -0.969104   -0.780905
  H     -5.668084   -1.626602   -1.048133
  H     -4.650091   -3.135239    2.368134
  O     -4.129167   -3.527655    0.134780

----------------------------
CARTESIAN COORDINATES (A.U.)
----------------------------
  NO LB      ZA    FRAG     MASS         X           Y           Z
   0 C     6.0000    0    12.011   -9.391054   -2.448601   -0.515486
   1 C     6.0000    0    12.011   -8.712269   -4.751421    1.065863
   2 H     1.0000    0     1.008  -12.094570   -0.849432    1.701247
   3 H     1.0000    0     1.008   -9.269355    0.308714    2.160824
   4 N     7.0000    0    14.007  -10.477641   -0.325773    0.814616
   5 O     8.0000    0    15.999   -9.242442   -4.426626    3.523033
   6 H     1.0000    0     1.008   -7.665408   -1.831341   -1.475696
   7 H     1.0000    0     1.008  -10.711127   -3.073833   -1.980685
   8 H     1.0000    0     1.008   -8.787399   -5.924743    4.475125
   9 O     8.0000    0    15.999   -7.802994   -6.666301    0.254697

--------------------------------
INTERNAL COORDINATES (ANGSTROEM)
--------------------------------
 C      0   0   0     0.000000000000     0.00000000     0.00000000
 C      1   0   0     1.521271172273     0.00000000     0.00000000
 H      1   2   0     2.034426353871   100.49040745     0.00000000
 H      3   1   2     1.633980008467    66.32282083    94.81933961
 N      3   1   2     1.014419565635    41.73734339   128.77452034
 O      2   1   3     1.341259392811   112.40994576   335.74552634
 H      1   2   3     1.094880818100   107.29735651   146.64118884
 H      1   2   3     1.094810688104   107.34606613   261.44340269
 H      6   2   1     0.969694293611   110.30333218   180.03141052
 O      2   1   3     1.201073183789   125.01673062   155.75170483

---------------------------
INTERNAL COORDINATES (A.U.)
---------------------------
 C      0   0   0     0.000000000000     0.00000000     0.00000000
 C      1   0   0     2.874785891026     0.00000000     0.00000000
 H      1   2   0     3.844508648449   100.49040745     0.00000000
 H      3   1   2     3.087774724305    66.32282083    94.81933961
 N      3   1   2     1.916975163941    41.73734339   128.77452034
 O      2   1   3     2.534612926962   112.40994576   335.74552634
 H      1   2   3     2.069024895492   107.29735651   146.64118884
 H      1   2   3     2.068892369007   107.34606613   261.44340269
 H      6   2   1     1.832456648551   110.30333218   180.03141052
 O      2   1   3     2.269699384158   125.01673062   155.75170483

---------------------
BASIS SET INFORMATION
---------------------
There are 4 groups of distinct atoms

 Group   1 Type C   : 10s4p1d contracted to 3s2p1d pattern {631/31/1}
 Group   2 Type H   : 4s1p contracted to 2s1p pattern {31/1}
 Group   3 Type N   : 10s4p1d contracted to 3s2p1d pattern {631/31/1}
 Group   4 Type O   : 10s4p1d contracted to 3s2p1d pattern {631/31/1}

Atom   0C    basis set group =>   1
Atom   1C    basis set group =>   1
Atom   2H    basis set group =>   2
Atom   3H    basis set group =>   2
Atom   4N    basis set group =>   3
Atom   5O    basis set group =>   4
Atom   6H    basis set group =>   2
Atom   7H    basis set group =>   2
Atom   8H    basis set group =>   2
Atom   9O    basis set group =>   4
---------------------------------
AUXILIARY/J BASIS SET INFORMATION
---------------------------------
There are 4 groups of distinct atoms

 Group   1 Type C   : 12s5p4d2f1g contracted to 6s4p3d1f1g pattern {711111/2111/211/2/1}
 Group   2 Type H   : 5s2p1d contracted to 3s1p1d pattern {311/2/1}
 Group   3 Type N   : 12s5p4d2f1g contracted to 6s4p3d1f1g pattern {711111/2111/211/2/1}
 Group   4 Type O   : 12s5p4d2f1g contracted to 6s4p3d1f1g pattern {711111/2111/211/2/1}

Atom   0C    basis set group =>   1
Atom   1C    basis set group =>   1
Atom   2H    basis set group =>   2
Atom   3H    basis set group =>   2
Atom   4N    basis set group =>   3
Atom   5O    basis set group =>   4
Atom   6H    basis set group =>   2
Atom   7H    basis set group =>   2
Atom   8H    basis set group =>   2
Atom   9O    basis set group =>   4
------------------------------------------------------------------------------
                             ORCA STARTUP CALCULATIONS
                           -- RI-GTO INTEGRALS CHOSEN --
------------------------------------------------------------------------------
------------------------------------------------------------------------------
                   ___                                                        
                  /   \      - P O W E R E D   B Y -                         
                 /     \                                                     
                 |  |  |   _    _      __       _____    __    __             
                 |  |  |  | |  | |    /  \     |  _  \  |  |  /  |          
                  \  \/   | |  | |   /    \    | | | |  |  | /  /          
                 / \  \   | |__| |  /  /\  \   | |_| |  |  |/  /          
                |  |  |   |  __  | /  /__\  \  |    /   |      \           
                |  |  |   | |  | | |   __   |  |    \   |  |\   \          
                \     /   | |  | | |  |  |  |  | |\  \  |  | \   \       
                 \___/    |_|  |_| |__|  |__|  |_| \__\ |__|  \__/        
                                                                              
                      - O R C A' S   B I G   F R I E N D -                    
                                      &                                       
                       - I N T E G R A L  F E E D E R -                       
                                                                              
 v1 FN, 2020, v2 2021, v3 2022-2024                                           
------------------------------------------------------------------------------


----------------------
SHARK INTEGRAL PACKAGE
----------------------

Number of atoms                             ...     10
Number of basis functions                   ...     95
Number of shells                            ...     45
Maximum angular momentum                    ...      2
Integral batch strategy                     ... SHARK/LIBINT Hybrid
RI-J (if used) integral strategy            ... SPLIT-RIJ (Revised 2003 algorithm where possible)
Printlevel                                  ...      1
Contraction scheme used                     ... SEGMENTED contraction
Prescreening option                         ... SCHWARTZ
   Thresh                                   ... 1.000e-10
   Tcut                                     ... 1.000e-11
   Tpresel                                  ... 1.000e-11 
Coulomb Range Separation                    ... NOT USED
Exchange Range Separation                   ... NOT USED
Multipole approximations                    ... NOT USED
Finite Nucleus Model                        ... NOT USED
CABS basis                                  ... NOT available
Auxiliary Coulomb fitting basis             ... AVAILABLE
   # of basis functions in Aux-J            ...    300
   # of shells in Aux-J                     ...    100
   Maximum angular momentum in Aux-J        ...      4
Auxiliary J/K fitting basis                 ... NOT available
Auxiliary Correlation fitting basis         ... NOT available
Auxiliary 'external' fitting basis          ... NOT available

Checking pre-screening integrals            ... done (  0.0 sec) Dimension = 45
   => SHARK Basis and OBASIS are compatible. Storing Pre-screening
Shell pair information
Shell pair cut-off parameter TPreSel        ...   1.0e-11
Total number of shell pairs                 ...      1035
Shell pairs after pre-screening             ...      1009
Total number of primitive shell pairs       ...      5170
Primitive shell pairs kept                  ...      3725
          la=0 lb=0:    314 shell pairs
          la=1 lb=0:    365 shell pairs
          la=1 lb=1:    117 shell pairs
          la=2 lb=0:    123 shell pairs
          la=2 lb=1:     75 shell pairs
          la=2 lb=2:     15 shell pairs

Checking whether 4 symmetric matrices of dimension 95 fit in memory
:Max Core in MB      =   4096.00
 MB in use           =      4.70
 MB left             =   4091.30
 MB needed           =      0.14
 Data fit in memory  = YES
Calculating RI/J V-Matrix + Cholesky decomp.... done (  0.0 sec)
Calculating Nuclear repulsion               ... done (  0.0 sec) ENN=    180.504609186114 Eh

Diagonalization of the overlap matrix:
Smallest eigenvalue                        ... 4.190e-03
Time for diagonalization                   ...    0.001 sec
Threshold for overlap eigenvalues          ... 1.000e-07
Number of eigenvalues below threshold      ... 0
Time for construction of square roots      ...    0.000 sec
Total time needed                          ...    0.001 sec

-------------------
DFT GRID GENERATION
-------------------

General Integration Accuracy     IntAcc      ... 4.388
Radial Grid Type                 RadialGrid  ... OptM3 with GC (2021)
Angular Grid (max. ang.)         AngularGrid ... 4 (Lebedev-302)
Angular grid pruning method      GridPruning ... 4 (adaptive)
Weight generation scheme         WeightScheme... mBecke (2022)
Basis function cutoff            BFCut       ... 1.0000e-10
Integration weight cutoff        WCut        ... 1.0000e-14
Partially contracted basis set               ... off
Rotationally invariant grid construction     ... off
Angular grids for H and He will be reduced by one unit

Total number of grid points                  ...    46631
Total number of batches                      ...      734
Average number of points per batch           ...       63
Average number of grid points per atom       ...     4663
Grids setup in   0.1 sec
Initializing property integral containers    ... done (  0.0 sec)

SHARK setup successfully completed in   0.2 seconds

Maximum memory used throughout the entire STARTUP-calculation: 19.9 MB
-------------------------------------------------------------------------------
                                 ORCA GUESS
                   Start orbitals & Density for SCF / CASSCF
-------------------------------------------------------------------------------

------------
SCF SETTINGS
------------
Hamiltonian:
 Density Functional     Method          .... DFT(GTOs)
 Exchange Functional    Exchange        .... B97(D)
 Correlation Functional Correlation     .... B97(D)
 Gradients option       PostSCFGGA      .... off
 RI-approximation to the Coulomb term is turned on
   Number of AuxJ basis functions       .... 300


General Settings:
 Integral files         IntName         .... 1
 Hartree-Fock type      HFTyp           .... RHF
 Total Charge           Charge          ....    0
 Multiplicity           Mult            ....    1
 Number of Electrons    NEL             ....   40
 Basis Dimension        Dim             ....   95
 Nuclear Repulsion      ENuc            ....    180.5046091861 Eh

Convergence Acceleration:
 AO-DIIS                CNVDIIS         .... on
   Start iteration      DIISMaxIt       ....    12
   Startup error        DIISStart       ....  0.200000
   # of expansion vecs  DIISMaxEq       ....     5
   Bias factor          DIISBfac        ....   1.050
   Max. coefficient     DIISMaxC        ....  10.000
 MO-DIIS                CNVKDIIS        .... off
 Trust-Rad. Augm. Hess. CNVTRAH         .... auto
   Auto Start mean grad. ratio tolernc. ....  1.125000
   Auto Start start iteration           ....    50
   Auto Start num. interpolation iter.  ....    10
   Max. Number of Micro iterations      ....    24
   Max. Number of Macro iterations      .... Maxiter - #DIIS iter
   Number of Davidson start vectors     ....     2
   Converg. threshold    (grad. norm)   ....   5.000e-05
   Grad. Scal. Fac. for Micro threshold ....   0.100
   Minimum threshold for Micro iter.    ....   1.000e-02
   NR start threshold (gradient norm)   ....   1.000e-04
   Initial trust radius                 ....   0.400
   Minimum AH scaling param. (alpha)    ....   1.000
   Maximum AH scaling param. (alpha)    .... 1000.000
   Quad. conv. algorithm                .... NR
   White noise on init. David. guess    .... on
   Maximum white noise                  ....   0.010
   Pseudo random numbers                .... off
   Inactive MOs                         .... canonical
   Orbital update algorithm             .... Taylor
   Preconditioner                       .... Diag
   Full preconditioner red. dimension   ....   250
 SOSCF                 CNVSOSCF           .... on
   Start iteration     SOSCFMaxIt         ....   150
   Startup grad/error  SOSCFStart         ....  0.003300
   Hessian update      SOSCFHessUp        .... L-BFGS
   Autom. constraints  SOSCFAutoConstrain .... off
 Level Shifting         CNVShift        .... on
   Level shift para.    LevelShift      ....    0.2500
   Turn off err/grad.   ShiftErr        ....    0.0010
 Zerner damping         CNVZerner       .... off
 Static damping         CNVDamp         .... on
   Fraction old density DampFac         ....    0.7000
   Max. Damping (<1)    DampMax         ....    0.9800
   Min. Damping (>=0)   DampMin         ....    0.0000
   Turn off err/grad.   DampErr         ....    0.1000

SCF Procedure:
 Maximum # iterations   MaxIter         ....   125
 SCF integral mode      SCFMode         .... Direct
   Integral package                     .... SHARK and LIBINT hybrid scheme
 Reset frequency        DirectResetFreq ....    20
 Integral Threshold     Thresh          ....  1.000e-10 Eh
 Primitive CutOff       TCut            ....  1.000e-11 Eh

Convergence Tolerance:
 Convergence Check Mode ConvCheckMode   .... Total+1el-Energy
 Convergence forced     ConvForced      .... 0
 Energy Change          TolE            ....  1.000e-06 Eh
 1-El. energy change                    ....  1.000e-03 Eh
 Orbital Gradient       TolG            ....  5.000e-05
 Orbital Rotation angle TolX            ....  5.000e-05
 DIIS Error             TolErr          ....  1.000e-06

------------------------------
INITIAL GUESS: MODEL POTENTIAL
------------------------------
Loading Hartree-Fock densities                     ... done
Calculating cut-offs                               ... done
Initializing the effective Hamiltonian             ... done
Setting up the integral package (SHARK)            ... done
Starting the Coulomb interaction                   ... done (   0.0 sec)
Making the grid                                    ... done (   0.0 sec)
Mapping shells                                     ... done
Starting the XC term evaluation                    ... done (   0.0 sec)
  promolecular density results
     # of electrons  =     39.997714786
     EX              =    -34.197685535
     EC              =     -1.793294947
     EX+EC           =    -35.990980482
Transforming the Hamiltonian                       ... done (   0.0 sec)
Diagonalizing the Hamiltonian                      ... done (   0.0 sec)
Back transforming the eigenvectors                 ... done (   0.0 sec)
Now organizing SCF variables                       ... done
                      ------------------
                      INITIAL GUESS DONE (   0.1 sec)
                      ------------------
             **** ENERGY FILE WAS UPDATED (1.en.tmp) ****
Finished Guess after   0.1 sec
Maximum memory used throughout the entire GUESS-calculation: 8.2 MB

-------------------------------------------------------------------------------------------
                                      ORCA LEAN-SCF
                              memory conserving SCF solver
-------------------------------------------------------------------------------------------

----------------------------------------D-I-I-S--------------------------------------------
Iteration    Energy (Eh)           Delta-E    RMSDP     MaxDP     DIISErr   Damp  Time(sec)
-------------------------------------------------------------------------------------------
               ***  Starting incremental Fock matrix formation  ***
    1    -284.0170811659251058     0.00e+00  5.86e-03  1.09e-01  2.62e-01  0.700   0.1
    2    -284.1330358840907593    -1.16e-01  3.50e-03  5.74e-02  9.60e-02  0.700   0.1
                               ***Turning on AO-DIIS***
    3    -284.1659906156558009    -3.30e-02  1.24e-03  1.35e-02  2.65e-02  0.700   0.1
    4    -284.1886814217297115    -2.27e-02  1.59e-03  1.70e-02  1.44e-02  0.000   0.1
    5    -284.2423125006324653    -5.36e-02  5.86e-04  6.61e-03  9.83e-03  0.000   0.1
    6    -284.2428265882215328    -5.14e-04  2.14e-04  2.19e-03  3.51e-03  0.000   0.1
                              *** Initializing SOSCF ***
---------------------------------------S-O-S-C-F--------------------------------------
Iteration    Energy (Eh)           Delta-E    RMSDP     MaxDP     MaxGrad    Time(sec)
--------------------------------------------------------------------------------------
    7    -284.2428703799689629    -4.38e-05  7.46e-05  7.99e-04  9.50e-04     0.1
               *** Restarting incremental Fock matrix formation ***
    8    -284.2428754480553152    -5.07e-06  4.58e-05  6.68e-04  1.22e-04     0.1
    9    -284.2428756039505515    -1.56e-07  2.03e-05  3.61e-04  1.55e-04     0.1
                 **** Energy Check signals convergence ****

               *****************************************************
               *                     SUCCESS                       *
               *           SCF CONVERGED AFTER   9 CYCLES          *
               *****************************************************

             **** ENERGY FILE WAS UPDATED (1.en.tmp) ****

----------------
TOTAL SCF ENERGY
----------------

Total Energy       :       -284.24287584528167 Eh           -7734.64187 eV

Components:
Nuclear Repulsion  :        180.50460918611398 Eh            4911.78013 eV
Electronic Energy  :       -464.74748503139563 Eh          -12646.42200 eV
One Electron Energy:       -745.55903176086576 Eh          -20287.69266 eV
Two Electron Energy:        280.81154672947014 Eh            7641.27066 eV

Virial components:
Potential Energy   :       -567.03778297363635 Eh          -15429.88251 eV
Kinetic Energy     :        282.79490712835468 Eh            7695.24064 eV
Virial Ratio       :          2.00512020789777

DFT components:
N(Alpha)           :       19.999990958147 electrons
N(Beta)            :       19.999990958147 electrons
N(Total)           :       39.999981916293 electrons
E(X)               :      -34.935728872385 Eh       
E(C)               :       -1.783084897422 Eh       
E(XC)              :      -36.718813769807 Eh       

---------------
SCF CONVERGENCE
---------------

  Last Energy change         ...    1.5590e-07  Tolerance :   1.0000e-06
  Last MAX-Density change    ...    3.6052e-04  Tolerance :   1.0000e-05
  Last RMS-Density change    ...    2.0320e-05  Tolerance :   1.0000e-06
  Last DIIS Error            ...    9.5033e-04  Tolerance :   1.0000e-06
  Last Orbital Gradient      ...    1.5480e-04  Tolerance :   5.0000e-05
  Last Orbital Rotation      ...    3.3345e-04  Tolerance :   5.0000e-05


----------------
ORBITAL ENERGIES
----------------

  NO   OCC          E(Eh)            E(eV) 
   0   2.0000     -18.816609      -512.0260 
   1   2.0000     -18.750325      -510.2223 
   2   2.0000     -13.990214      -380.6931 
   3   2.0000     -10.029304      -272.9112 
   4   2.0000      -9.946326      -270.6533 
   5   2.0000      -1.021433       -27.7946 
   6   2.0000      -0.930693       -25.3255 
   7   2.0000      -0.814350       -22.1596 
   8   2.0000      -0.645188       -17.5565 
   9   2.0000      -0.564550       -15.3622 
  10   2.0000      -0.459197       -12.4954 
  11   2.0000      -0.441500       -12.0138 
  12   2.0000      -0.416990       -11.3469 
  13   2.0000      -0.391597       -10.6559 
  14   2.0000      -0.370495       -10.0817 
  15   2.0000      -0.339271        -9.2320 
  16   2.0000      -0.331837        -9.0298 
  17   2.0000      -0.271944        -7.4000 
  18   2.0000      -0.242190        -6.5903 
  19   2.0000      -0.186294        -5.0693 
  20   0.0000      -0.016144        -0.4393 
  21   0.0000       0.043809         1.1921 
  22   0.0000       0.078553         2.1375 
  23   0.0000       0.115731         3.1492 
  24   0.0000       0.119400         3.2490 
  25   0.0000       0.171455         4.6655 
  26   0.0000       0.185021         5.0347 
  27   0.0000       0.209745         5.7074 
  28   0.0000       0.279138         7.5957 
  29   0.0000       0.352250         9.5852 
  30   0.0000       0.505534        13.7563 
*Only the first 10 virtual orbitals were printed.

                    ********************************
                    * MULLIKEN POPULATION ANALYSIS *
                    ********************************

-----------------------
MULLIKEN ATOMIC CHARGES
-----------------------
   0 C :   -0.172623
   1 C :    0.486732
   2 H :    0.245516
   3 H :    0.245496
   4 N :   -0.560287
   5 O :   -0.459244
   6 H :    0.152389
   7 H :    0.152435
   8 H :    0.319754
   9 O :   -0.410168
Sum of atomic charges:   -0.0000000

--------------------------------
MULLIKEN REDUCED ORBITAL CHARGES
--------------------------------
  0 C s       :     3.222515  s :     3.222515
      pz      :     0.979656  p :     2.899696
      px      :     1.056230
      py      :     0.863810
      dz2     :     0.006316  d :     0.050412
      dxz     :     0.010142
      dyz     :     0.013124
      dx2y2   :     0.011245
      dxy     :     0.009585

  1 C s       :     2.992420  s :     2.992420
      pz      :     0.741218  p :     2.396103
      px      :     0.794534
      py      :     0.860351
      dz2     :     0.035703  d :     0.124745
      dxz     :     0.021254
      dyz     :     0.034095
      dx2y2   :     0.018049
      dxy     :     0.015644

  2 H s       :     0.730547  s :     0.730547
      pz      :     0.007223  p :     0.023938
      px      :     0.010267
      py      :     0.006447

  3 H s       :     0.730564  s :     0.730564
      pz      :     0.008975  p :     0.023940
      px      :     0.007267
      py      :     0.007697

  4 N s       :     3.577360  s :     3.577360
      pz      :     1.353056  p :     3.954568
      px      :     1.160244
      py      :     1.441267
      dz2     :     0.003255  d :     0.028358
      dxz     :     0.010460
      dyz     :     0.004632
      dx2y2   :     0.004784
      dxy     :     0.005228

  5 O s       :     3.817625  s :     3.817625
      pz      :     1.305929  p :     4.618860
      px      :     1.747961
      py      :     1.564969
      dz2     :     0.005487  d :     0.022759
      dxz     :     0.004425
      dyz     :     0.006756
      dx2y2   :     0.003584
      dxy     :     0.002506

  6 H s       :     0.836529  s :     0.836529
      pz      :     0.003417  p :     0.011082
      px      :     0.005276
      py      :     0.002389

  7 H s       :     0.836488  s :     0.836488
      pz      :     0.004640  p :     0.011077
      px      :     0.003947
      py      :     0.002489

  8 H s       :     0.642354  s :     0.642354
      pz      :     0.010784  p :     0.037892
      px      :     0.009830
      py      :     0.017278

  9 O s       :     3.853181  s :     3.853181
      pz      :     1.709937  p :     4.528920
      px      :     1.402847
      py      :     1.416136
      dz2     :     0.003543  d :     0.028067
      dxz     :     0.002563
      dyz     :     0.006640
      dx2y2   :     0.007776
      dxy     :     0.007545



                     *******************************
                     * LOEWDIN POPULATION ANALYSIS *
                     *******************************

----------------------
LOEWDIN ATOMIC CHARGES
----------------------
   0 C :   -0.100341
   1 C :    0.097353
   2 H :    0.126296
   3 H :    0.126299
   4 N :   -0.256737
   5 O :   -0.147030
   6 H :    0.095618
   7 H :    0.095551
   8 H :    0.182126
   9 O :   -0.219134

-------------------------------
LOEWDIN REDUCED ORBITAL CHARGES
-------------------------------
  0 C s       :     2.897061  s :     2.897061
      pz      :     1.038575  p :     3.090020
      px      :     1.074448
      py      :     0.976998
      dz2     :     0.013066  d :     0.113259
      dxz     :     0.021498
      dyz     :     0.032563
      dx2y2   :     0.024972
      dxy     :     0.021161

  1 C s       :     2.861344  s :     2.861344
      pz      :     0.906574  p :     2.743714
      px      :     0.826074
      py      :     1.011066
      dz2     :     0.088607  d :     0.297589
      dxz     :     0.048905
      dyz     :     0.083475
      dx2y2   :     0.040889
      dxy     :     0.035712

  2 H s       :     0.794836  s :     0.794836
      pz      :     0.022625  p :     0.078868
      px      :     0.036072
      py      :     0.020171

  3 H s       :     0.794833  s :     0.794833
      pz      :     0.031317  p :     0.078868
      px      :     0.024259
      py      :     0.023292

  4 N s       :     3.189903  s :     3.189903
      pz      :     1.377934  p :     4.008811
      px      :     1.185312
      py      :     1.445565
      dz2     :     0.005792  d :     0.058023
      dxz     :     0.019578
      dyz     :     0.009843
      dx2y2   :     0.011134
      dxy     :     0.011676

  5 O s       :     3.472638  s :     3.472638
      pz      :     1.344799  p :     4.623724
      px      :     1.716745
      py      :     1.562179
      dz2     :     0.017329  d :     0.050668
      dxz     :     0.009372
      dyz     :     0.015806
      dx2y2   :     0.005128
      dxy     :     0.003033

  6 H s       :     0.865483  s :     0.865483
      pz      :     0.011728  p :     0.038899
      px      :     0.019929
      py      :     0.007242

  7 H s       :     0.865541  s :     0.865541
      pz      :     0.017339  p :     0.038908
      px      :     0.014319
      py      :     0.007249

  8 H s       :     0.701742  s :     0.701742
      pz      :     0.031718  p :     0.116132
      px      :     0.028759
      py      :     0.055654

  9 O s       :     3.553932  s :     3.553932
      pz      :     1.701354  p :     4.606769
      px      :     1.411750
      py      :     1.493665
      dz2     :     0.008164  d :     0.058434
      dxz     :     0.005000
      dyz     :     0.014663
      dx2y2   :     0.014844
      dxy     :     0.015762



                      *****************************
                      * MAYER POPULATION ANALYSIS *
                      *****************************

  NA   - Mulliken gross atomic population
  ZA   - Total nuclear charge
  QA   - Mulliken gross atomic charge
  VA   - Mayer's total valence
  BVA  - Mayer's bonded valence
  FA   - Mayer's free valence

  ATOM       NA         ZA         QA         VA         BVA        FA
  0 C      6.1726     6.0000    -0.1726     3.8696     3.8696    -0.0000
  1 C      5.5133     6.0000     0.4867     3.9622     3.9622    -0.0000
  2 H      0.7545     1.0000     0.2455     0.9212     0.9212    -0.0000
  3 H      0.7545     1.0000     0.2455     0.9211     0.9211    -0.0000
  4 N      7.5603     7.0000    -0.5603     2.8993     2.8993    -0.0000
  5 O      8.4592     8.0000    -0.4592     2.0577     2.0577    -0.0000
  6 H      0.8476     1.0000     0.1524     0.9461     0.9461    -0.0000
  7 H      0.8476     1.0000     0.1524     0.9461     0.9461    -0.0000
  8 H      0.6802     1.0000     0.3198     0.9172     0.9172    -0.0000
  9 O      8.4102     8.0000    -0.4102     2.0982     2.0982    -0.0000

  Mayer bond orders larger than 0.100000
B(  0-C ,  1-C ) :   0.9147 B(  0-C ,  4-N ) :   1.0473 B(  0-C ,  6-H ) :   0.9377 
B(  0-C ,  7-H ) :   0.9378 B(  1-C ,  5-O ) :   1.1009 B(  1-C ,  9-O ) :   1.9161 
B(  2-H ,  4-N ) :   0.9106 B(  3-H ,  4-N ) :   0.9106 B(  5-O ,  8-H ) :   0.8521 


-------
TIMINGS
-------

Total SCF time: 0 days 0 hours 0 min 1 sec 

Total time                  ....       1.414 sec
Sum of individual times     ....       1.294 sec  ( 91.5%)

SCF preparation             ....       0.021 sec  (  1.5%)
Fock matrix formation       ....       1.215 sec  ( 85.9%)
  Startup                   ....       0.000 sec  (  0.0% of F)
  Split-RI-J                ....       0.281 sec  ( 23.2% of F)
  XC integration            ....       1.053 sec  ( 86.7% of F)
    XC Preparation          ....       0.000 sec  (  0.0% of XC)
    Basis function eval.    ....       0.349 sec  ( 33.1% of XC)
    Density eval.           ....       0.187 sec  ( 17.8% of XC)
    XC-Functional eval.     ....       0.272 sec  ( 25.8% of XC)
    XC-Potential eval.      ....       0.215 sec  ( 20.4% of XC)
Diagonalization             ....       0.000 sec  (  0.0%)
Density matrix formation    ....       0.008 sec  (  0.6%)
Total Energy calculation    ....       0.000 sec  (  0.0%)
Population analysis         ....       0.015 sec  (  1.1%)
Orbital Transformation      ....       0.009 sec  (  0.6%)
Orbital Orthonormalization  ....       0.000 sec  (  0.0%)
DIIS solution               ....       0.014 sec  (  1.0%)
SOSCF solution              ....       0.012 sec  (  0.9%)
Finished LeanSCF after   1.4 sec

Maximum memory used throughout the entire LEANSCF-calculation: 10.2 MB



-------------------------------------------------------------------------------
                          DFT DISPERSION CORRECTION                            
-------------------------------------------------------------------------------
Active option DFTDOPT                   ...         2   
Final C6-coefficient scaling factor     ...     1.250
Final VDW-radii scaling factor          ...     1.100
Damping factor alpha                    ...    20.000
-------------------------   ----------------
Dispersion correction           -0.007248638
-------------------------   ----------------


-------------------------   --------------------
FINAL SINGLE POINT ENERGY      -284.250124483760
-------------------------   --------------------


------------------------------------------------------------------------------
                              ORCA PROPERTY CALCULATIONS
------------------------------------------------------------------------------

GBWName                                 ... 1.gbw
Number of atoms                         ...     10
Number of basis functions               ...     95
Max core memory                         ...   4096 MB

Electric properties:
Dipole moment                           ... YES
Quadrupole moment                       ...  NO
Static polarizability (Dipole/Dipole)   ...  NO
Static polarizability (Dipole/Quad.)    ...  NO
Static polarizability (Quad./Quad.)     ...  NO
Static polarizability (Velocity)        ...  NO
Static hyperpolarizability              ...  NO

Atomic electric properties:
Dipole moment                           ...  NO
Quadrupole moment                       ...  NO
Static polarizability                   ...  NO

Choice of electric origin               ... Center of mass
Position of electric origin             ...    -9.136176    -3.729734     1.110750

General magnetic properties:
Magnetizability                         ...  NO

EPR properties:
g-Tensor (aka g-matrix)                 ...  NO
Zero-Field splitting spin-orbit         ...  NO
Zero-field splitting spin-spin          ...  NO
Hyperfine couplings                     ...  NO (   0 nuclei)
Quadrupole couplings                    ...  NO (   0 nuclei)
Contact density                         ...  NO (   0 nuclei)

NMR properties:
Chemical shifts                         ...  NO (   0 nuclei)
Spin-rotation constants                 ...  NO (   0 nuclei)
Spin-spin couplings                     ...  NO (   0 nuclei,    0 pairs)

Choice of magnetic origin               ... GIAO
Position of magnetic origin             ...     0.000000     0.000000     0.000000

Properties with geometric perturbations:
SCF Hessian                             ...  NO
IR spectrum                             ...  NO
VCD spectrum                            ...  NO
X-ray spectroscopy properties:
SCF XES/XAS/RIXS spectra                ...  NO

SCF SOC stabilization energy            ...  NO
Diagonal Born-Oppenheimer correction    ...  NO

-------------
DIPOLE MOMENT
-------------

Method             : SCF
Type of density    : Electron Density
Multiplicity       :   1
Irrep              :   0
Energy             :  -284.2428758452816737 Eh
Basis              : AO
                                X                 Y                 Z
Electronic contribution:      1.224107396      -3.441337898       1.081729298
Nuclear contribution   :     -1.407721969       3.594746712      -0.322769869
                        -----------------------------------------
Total Dipole Moment    :     -0.183614573       0.153408814       0.758959429
                        -----------------------------------------
Magnitude (a.u.)       :      0.795781371
Magnitude (Debye)      :      2.022715496



--------------------
Rotational spectrum 
--------------------
 
Rotational constants in cm-1:             0.337787             0.135684             0.100146 
Rotational constants in MHz :         10126.588332          4067.698344          3002.301173 

Dipole components along the rotational axes: 
x,y,z [a.u.] :     0.131445     0.784848     0.001867 
x,y,z [Debye]:     0.334107     1.994926     0.004745 

 

Dipole moment calculation done in   0.0 sec 

Maximum memory used throughout the entire PROP-calculation: 5.8 MB

--------------------------------
SUGGESTED CITATIONS FOR THIS RUN
--------------------------------

Below you find a list of papers that are relevant to this ORCA run
We neither can nor want to force you to cite these papers, but we appreciate if you do
You receive ORCA, which is the product of decades of hard work by many enthusiastic individuals, for free
The only thing we kindly ask in return is that you cite our papers,
We deeply appreciate it, if you show your appreciation for ORCA by not just citing the generic ORCA reference.

Please note that relegating all ORCA citations to the supporting information does *not* help us.
SI sections are not indexed - citations you put there will not count into any citation statistics
But we need these citations in order to attract the funding resources that allow us to do what we are doing

Therefore, if you are a happy ORCA user, please consider citing a few of the papers listed below in the main body of your paper

In addition to the list printed below, the program has created the file 1.bibtex that contains the list in bibtex format
You can import this file easily into all common literature databanks and citation aid programs


List of essential papers. We consider these as the minimum necessary citations

  1. Neese, F.
     Software update: the ORCA program system, version 6.0
     WIRES Comput. Molec. Sci. 2025 15(1), e70019
     doi.org/10.1002/wcms.7019

List of papers to cite with high priority. The work reported in these papers was absolutely
necessary for this run to complete.
Our perspective: the developers of density functionals and basis sets usually get cited in chemistry papers
Good! But without the algorithms to do something with them, the functionals or basis sets would not do anything.
Hence, in our opinion, the algorithm design and method developments papers are equally worthy of getting cited

  1. Neese, F.
     An improvement of the resolution of the identity approximation for the formation of the Coulomb matrix
     J. Comp. Chem. 2003 24(14), 1740-1747
     doi.org/10.1002/jcc.10318
  2. Grimme, S.
     Semiempirical GGA-type density functional constructed with a long-range dispersion correction
     J.Comput.Chem. 2006 27(15), 1787-1799
     doi.org/10.1002/jcc.20495
  3. Neese, F.
     The SHARK Integral Generation and Digestion System
     J. Comp. Chem. 2022 44(3), 381
     doi.org/10.1002/jcc.26942

List of suggested additional citations. These are papers that are important in the 'surrounding' of 
of this run, or papers that preceded the highly important papers. If you like your results we are grateful for a citation.

  1. Neese, F.
     The ORCA program system
     WIRES Comput. Molec. Sci. 2012 2(1), 73-78
     doi.org/10.1002/wcms.81
  2. Neese, F.
     Software update: the ORCA program system, version 4.0
     WIRES Comput. Molec. Sci. 2018 8(1), 1-6
     doi.org/10.1002/wcms.1327
  3. Neese, F.; Wennmohs, F.; Becker, U.; Riplinger, C.
     The ORCA quantum chemistry program package
     J. Chem. Phys. 2020 152(22), 224108
     doi.org/10.1063/5.0004608
  4. Neese, F.
     Software update: The ORCA program system—Version 5.0
     WIRES Comput. Molec. Sci. 2022 12(1), e1606
     doi.org/10.1002/wcms.1606

List of optional additional citations

  1. Neese, F.
     Approximate second-order SCF convergence for spin unrestricted wavefunctions
     Chem. Phys. Lett. 2000 325(1-3), 93-98
     doi.org/10.1016/s0009-2614(00)00662-x

Timings for individual modules:

Sum of individual times          ...        1.736 sec (=   0.029 min)
Startup calculation              ...        0.178 sec (=   0.003 min)  10.3 %
SCF iterations                   ...        1.530 sec (=   0.025 min)  88.1 %
Property calculations            ...        0.028 sec (=   0.000 min)   1.6 %
                             ****ORCA TERMINATED NORMALLY****
TOTAL RUN TIME: 0 days 0 hours 0 minutes 1 seconds 774 msec
