
                                 *****************
                                 * O   R   C   A *
                                 *****************

                                            #,                                       
                                            ###                                      
                                            ####                                     
                                            #####                                    
                                            ######                                   
                                           ########,                                 
                                     ,,################,,,,,                         
                               ,,#################################,,                 
                          ,,##########################################,,             
                       ,#########################################, ''#####,          
                    ,#############################################,,   '####,        
                  ,##################################################,,,,####,       
                ,###########''''           ''''###############################       
              ,#####''   ,,,,##########,,,,          '''####'''          '####       
            ,##' ,,,,###########################,,,                        '##       
           ' ,,###''''                  '''############,,,                           
         ,,##''                                '''############,,,,        ,,,,,,###''
      ,#''                                            '''#######################'''  
     '                                                          ''''####''''         
             ,#######,   #######,   ,#######,      ##                                
            ,#'     '#,  ##    ##  ,#'     '#,    #''#        ,####,    ,#,          
            ##       ##  ##   ,#'  ##            #'  '#       #'       ,# #          
            ##       ##  #######   ##           ,######,      #####,      #          
            '#,     ,#'  ##    ##  '#,     ,#' ,#      #,     #,   #      #          
             '#######'   ##     ##  '#######'  #'      '#     '####' #    #          



                #########################################################
                #                        -***-                          #
                #          Department of theory and spectroscopy        #
                #                                                       #
                #                      Frank Neese                      #
                #                                                       #
                #     Directorship, Architecture, Infrastructure        #
                #                    SHARK, DRIVERS                     #
                #        Core code/Algorithms in most modules           #
                #                                                       #
                #        Max Planck Institute fuer Kohlenforschung      #
                #                Kaiser Wilhelm Platz 1                 #
                #                 D-45470 Muelheim/Ruhr                 #
                #                      Germany                          #
                #                                                       #
                #                  All rights reserved                  #
                #                        -***-                          #
                #########################################################


                         Program Version 6.1.0  -  RELEASE   -
                                (GIT: $679e74b$)
                          ($2025-06-10 18:02:51 +0200$)


 With contributions from (in alphabetic order):
[Max-Planck-Institut fuer Kohlenforschung]                               
  Daniel Aravena         : Magnetic Suceptibility                        
  Michael Atanasov       : Ab Initio Ligand Field Theory (pilot matlab implementation)
  Alexander A. Auer      : GIAO ZORA, VPT2 properties, NMR spectrum      
  Ute Becker             : All parallelization in ORCA, NUMFREQ, NUMCALC 
  Giovanni Bistoni       : ED, misc. LED, open-shell LED, HFLD           
  Dmytro Bykov           : pre 5.0 version of the SCF Hessian            
  Marcos Casanova-Páez   : Triplet and SCS-CIS(D). UHF-(DLPNO)-IP/EA/STEOM-CCSD. UHF-CVS-IP/STEOM-CCSD   
  Vijay G. Chilkuri      : MRCI spin determinant printing, contributions to CSF-ICE 
  Pauline Colinet        : FMM embedding                                 
  Dipayan Datta          : RHF DLPNO-CCSD density                        
  Achintya Kumar Dutta   : EOM-CC, STEOM-CC                              
  Nicolas Foglia         : Exact transition moments, OPA infrastructure, MCD improvements    
  Dmitry Ganyushin       : Spin-Orbit,Spin-Spin,Magnetic field MRCI      
  Miquel Garcia-Rates    : C-PCM and meta-GGA Hessian, CCSD/C-PCM, Gaussian charge scheme 
  Tiago L. C. Gouveia    : GS-ROHF, GS-ROCIS                             
  Yang Guo               : DLPNO-NEVPT2, F12-NEVPT2, CIM, IAO-localization        
  Andreas Hansen         : Spin unrestricted coupled pair/coupled cluster methods 
  Ingolf Harden          : AUTO-CI MPn and infrastructure                
  Benjamin Helmich-Paris : MC-RPA, TRAH-(SCF,CASSCF), AVAS, COSX integrals, SCF dyn. polar., MC-PDFT, srDFT 
  Lee Huntington         : MR-EOM, pCC                                   
  Robert Izsak           : Overlap fitted RIJCOSX, COSX-SCS-MP3, EOM     
  Riya Kayal             : Wick's Theorem for AUTO-CI, AUTO-CI UHF-CCSDT 
  Emily Kempfer          : AUTO-CI RHF CISDT and CCSDT, approximate NEVPT4
  Christian Kollmar      : KDIIS, OOCD, Brueckner-CCSD(T), CCSD density, CASPT2, CASPT2-K, improved NEVPT2 
  Axel Koslowski         : Symmetry handling                             
  Simone Kossmann        : meta-GGA functionals, TD-DFT gradient, OOMP2, (MP2 Hessian; deprecated post 5.0) 
  Lucas Lang             : DCDCAS, Hyperfine gauge corrections, ICE-SOC+SSC
  Marvin Lechner         : AUTO-CI (C++ implementation), FIC-MRCC        
  Spencer Leger          : CASSCF response                               
  Dagmar Lenk            : GEPOL surface, SMD, ORCA-2-JSON               
  Dimitrios Liakos       : Extrapolation schemes; Compound Job, Property file
  Dimitrios Manganas     : Further ROCIS development; embedding schemes. LFT, Crystal Embedding 
  Dimitrios Pantazis     : SARC Basis sets                               
  Anastasios Papadopoulos: AUTO-CI, single reference methods and gradients 
  Taras Petrenko         : pre 6.0 DFT Hessian and TD-DFT gradient,  ECA, NRVS 
  Petra Pikulova         : Analytic Raman intensities                    
  Peter Pinski           : DLPNO-MP2, DLPNO-MP2 Gradient                 
  Shashank Vittal Rao    : ES-AILFT, MagRelax                            
  Christoph Reimann      : Effective Core Potentials                     
  Marius Retegan         : Local ZFS, SOC                                
  Christoph Riplinger    : Optimizer, TS searches, QM/MM, DLPNO-CCSD(T), (RO)-DLPNO pert. Triples 
  Michael Roemelt        : Original ROCIS implementation, recursive CI coupling coefficients
  Masaaki Saitow         : Open-shell DLPNO-CCSD energy and density      
  Barbara Sandhoefer     : DKH picture change effects                    
  Yorick L. A. Schmerwitz: GMF and freeze-and-release deltaSCF, NEB S-IDPP initial path                    
  Kantharuban Sivalingam : CASSCF convergence/infrastructure, NEVPT2, NEVPT3, NEVPT4(SD), FIC-MRCI and CEPA variants
  Bernardo de Souza      : ESD, SOC TD-DFT                               
  Georgi L. Stoychev     : AutoAux, RI-MP2 NMR, DLPNO-MP2 response, X2C  
  Van Anh Tran           : RI-MP2 g-tensors                              
  Willem Van den Heuvel  : Paramagnetic NMR                              
  Zikuan Wang            : NOTCH, Electric field optimization            
  Frank Wennmohs         : Technical directorship and infrastructure     
  Hang Xu                : AUTO-CI-Response properties                   
                                                                         
[FACCTs GmbH]                                                            
  Markus Bursch, Nicolas Foglia, Miquel Garcia-Rates, Ingolf Harden, Hagen Neugebauer, Anastasios Papadopoulos, 
  Christoph Riplinger, Bernardo de Souza, Georgi L. Stoychev                                                    
                                                                 
  APM, various basis sets, CI-OPT, improved COSX, DLPNO-Multilevel,           
  DOCKER, DRACO, updates on ESD, Fragmentator, GOAT, IRC, LR-CPCM, L-BFGS, MBIS, meta-GGA TD-DFT gradient, ML-optimized integration grids, 
  MM, NACMEs, nearIR, NEB, NEB-TS, NL-DFT gradient (VV10), 2- and 3-layer-ONIOM, interface openCOSMO-RS, QMMM,   
  Crystal-QMMM, RESP, rigid body optimization, SF, symmetry and pop. for TD-DFT, various functionals, SOLVATOR                                   
                                                                         
[Other institutions]                                                     
  V. Asgeirsson          : NEB                                           
  Christoph Bannwarth    : sTDA-DFT, sTD-DFT, PBEh-3c, B97-3c, D3        
  Giovanni Bistoni       : ETS/NOCV, ADLD/ADEX, COVALED                  
  Martin Brehm           : Molecular dynamics                            
  Ronald Cardenas        : ETS/NOCV                                      
  Martina Colucci        : COVALED                                       
  Sebastian Ehlert       : rSCAN, r2SCAN, r2SCAN-3c, D4, dhf basis sets  
  Marvin Friede          : D4 for Fr, Ra, Ac-Lr                          
  Lars Goerigk           : TD-DFT with DH, B97 family of functionals     
  Stefan Grimme          : VdW corrections, initial TS optimization, DFT functionals, gCP, sTDA/sTD-DF 
  Waldemar Hujo          : DFT-NL                                        
  H. Jonsson             : NEB                                           
  Holger Kruse           : gCP                                           
  Marcel Mueller         : wB97X-3c, vDZP basis set                      
  Hagen Neugebauer       : wr2SCAN, Native XTB                           
  Gianluca Regni         : ADLD/ADEX                                     
  Tobias Risthaus        : pre 6.0 range-separated hybrid DFT and stability analysis
  Lukas Wittmann         : regularized MP2, r2SCAN double-hybrids, wr2SCAN        
                                                                         
We gratefully acknowledge several colleagues who have allowed us to      
interface, adapt or use parts of their codes:                            
  Ed Valeev, F. Pavosevic, A. Kumar             : LibInt (2-el integral package), F12 methods 
  Garnet Chan, S. Sharma, J. Yang, R. Olivares  : DMRG                   
  Ulf Ekstrom                                   : XCFun DFT Library      
  Mihaly Kallay                                 : mrcc  (arbitrary order and MRCC methods)
  Frank Weinhold                                : gennbo (NPA and NBO analysis)           
  Simon Mueller                                 : openCOSMO-RS                            
  Christopher J. Cramer and Donald G. Truhlar   : smd solvation model                     
  S Lehtola, MJT Oliveira, MAL Marques          : LibXC Library                           
  Liviu Ungur et al                             : ANISO software                          


 Your calculation uses the libint2 library for the computation of 2-el integrals
 For citations please refer to: http://libint.valeyev.net

 Your ORCA version has been built with support for libXC version: 7.0.0
 For citations please refer to: https://libxc.gitlab.io

 This ORCA versions uses:
   CBLAS   interface :  Fast vector & matrix operations
   LAPACKE interface :  Fast linear algebra routines
   SCALAPACK package :  Parallel linear algebra routines
   Shared memory     :  Shared parallel matrices
   BLAS/LAPACK       :  OpenBLAS 0.3.29  USE64BITINT DYNAMIC_ARCH NO_AFFINITY Haswell SINGLE_THREADED
        Core in use  :  Haswell
   Copyright (c) 2011-2014, The OpenBLAS Project


  ***********************************
  * Starting time: Sat Aug 30 14:50:57 2025
  * Host name:     chemlab03
  * Process ID:    75417
  * Working dir.:  /home/vivek/mm-project/vivek/xtb-goat/B97-D-opt/c/2
  ***********************************



***************************************
The coordinates will be read from file: /home/vivek/mm-project/vivek/xtb-goat/xtb-goat/c/C_CONF/2.xyz
***************************************


Your calculation utilizes empirical dispersion correction


Warning: RI is on but no J-basis has been assigned. Assigning Def2/J (nothing to worry about!)
================================================================================

----- Orbital basis set information -----
Your calculation utilizes the basis: 6-31G**
   H-He, Li-Ne : W. J. Hehre, R. Ditchfield and J.A. Pople, J. Chem. Phys. 56, 2257 (1972).
                 Note: He and Ne are unpublished basis sets taken from the Gaussian program.
                 Note: Li and B from J. D. Dill and J. A. Pople, J. Chem. Phys. 62, 2921 (1975).
   Na - Ar     : M. M. Francl, W. J. Pietro, W. J. Hehre, J. S. Binkley, M. S. Gordon, 
                 D. J. DeFrees and J. A. Pople, J. Chem. Phys. 77, 3654 (1982).
   K - Zn      : V. A. Rassolov, J. A. Pople, M. A. Ratner, and T. L. Windus, J. Chem. Phys. 109, 1223 (1998).

----- AuxJ basis set information -----
Your calculation utilizes the auxiliary basis: def2/J
   H-Rn: F. Weigend, Phys. Chem. Chem. Phys. 8, 1057 (2006).
   Fr-Lr: K. Eichkorn, F. Weigend, O. Treutler, R. Ahlrichs; Theor. Chem. Acc. 97, 119 (1997).

================================================================================
                                        WARNINGS
                       Please study these warnings very carefully!
================================================================================


WARNING: Geometry Optimization
  ===> : Switching off AutoStart
         For restart on a previous wavefunction, please use MOREAD

INFO   : The exchange functional is Grimme's B97(-D)
         As described in S. Grimme, J. Comput. Chem. 27, 1787 (2006).
         Note that this functional defaults to a pure GGA. 

INFO   : The correlation functional is Grimme's B97(-D)
         As described in S. Grimme, J. Comput. Chem. 27, 1787 (2006).

================================================================================
                                       INPUT FILE
================================================================================
NAME = 2.inp
|  1> ! B97-D 6-31G** opt
|  2> 
|  3> * xyzfile 0 1 /home/vivek/mm-project/vivek/xtb-goat/xtb-goat/c/C_CONF/2.xyz
|  4> 
|  5>                          ****END OF INPUT****
================================================================================

                       *****************************
                       * Geometry Optimization Run *
                       *****************************

Geometry optimization settings:
Update method            Update   .... BFGS
Choice of coordinates    CoordSys .... (2022) Redundant Internals
Initial Hessian          InHess   .... Almloef's Model
Max. no of cycles        MaxIter  .... 50

Convergence Tolerances:
Energy Change            TolE     ....  5.0000e-06 Eh
Max. Gradient            TolMAXG  ....  3.0000e-04 Eh/bohr
RMS Gradient             TolRMSG  ....  1.0000e-04 Eh/bohr
Max. Displacement        TolMAXD  ....  4.0000e-03 bohr
RMS Displacement         TolRMSD  ....  2.0000e-03 bohr
Strict Convergence                .... False

------------------------------------------------------------------------------
                        ORCA OPTIMIZATION COORDINATE SETUP
------------------------------------------------------------------------------

The optimization will be done in redundant internal coordinates (2022)
Making redundant internal coordinates   ...  (2022 redundants) done
Evaluating the initial hessian          ...  (Almloef) done
Evaluating the coordinates              ...  done
Calculating the B-matrix                .... done
Calculating the G-matrix                .... done
The number of degrees of freedom        ....   54

    -----------------------------------------------------------------
                    Redundant Internal Coordinates


    -----------------------------------------------------------------
         Definition                    Initial Value    Approx d2E/dq
    -----------------------------------------------------------------
      1. B(H   2,C   1)                  1.0904         0.359619   
      2. B(C   5,C   1)                  1.5345         0.367487   
      3. B(C   5,H   0)                  1.0952         0.353348   
      4. B(S   7,H   3)                  1.3313         0.400209   
      5. B(S   7,C   1)                  1.8188         0.348616   
      6. B(N   8,H   6)                  1.0143         0.425915   
      7. B(N   8,C   5)                  1.4495         0.449777   
      8. B(H   9,N   8)                  1.0162         0.422934   
      9. B(C  10,C   5)                  1.5282         0.376021   
     10. B(C  10,O   4)                  1.3306         0.695990   
     11. B(H  11,C   1)                  1.0893         0.361067   
     12. B(O  12,C  10)                  1.2022         1.115372   
     13. B(H  13,O   4)                  0.9711         0.499191   
     14. A(H   2,C   1,C   5)          110.0812         0.323374   
     15. A(H   2,C   1,H  11)          109.1409         0.290901   
     16. A(C   5,C   1,S   7)          113.5768         0.376979   
     17. A(H   2,C   1,S   7)          105.5657         0.336853   
     18. A(C   5,C   1,H  11)          109.1853         0.323588   
     19. A(S   7,C   1,H  11)          109.1738         0.337079   
     20. A(C  10,O   4,H  13)          111.1918         0.374920   
     21. A(C   1,C   5,N   8)          107.8537         0.371716   
     22. A(C   1,C   5,C  10)          108.6007         0.362737   
     23. A(H   0,C   5,N   8)          109.2922         0.331357   
     24. A(H   0,C   5,C  10)          108.8452         0.323659   
     25. A(N   8,C   5,C  10)          112.5947         0.373189   
     26. A(H   0,C   5,C   1)          109.6188         0.322443   
     27. A(C   1,S   7,H   3)           96.3248         0.367659   
     28. A(H   6,N   8,H   9)          107.2725         0.301390   
     29. A(C   5,N   8,H   9)          109.2504         0.338479   
     30. A(C   5,N   8,H   6)          110.5620         0.338876   
     31. A(O   4,C  10,C   5)          112.4979         0.402706   
     32. A(C   5,C  10,O  12)          123.7294         0.438044   
     33. A(O   4,C  10,O  12)          123.7719         0.486935   
     34. D(N   8,C   5,C   1,H   2)     68.6526         0.010805   
     35. D(N   8,C   5,C   1,S   7)   -173.2303         0.010805   
     36. D(H   0,C   5,C   1,H   2)   -172.4458         0.010805   
     37. D(H   0,C   5,C   1,H  11)     67.7625         0.010805   
     38. D(H   0,C   5,C   1,S   7)    -54.3287         0.010805   
     39. D(N   8,C   5,C   1,H  11)    -51.1391         0.010805   
     40. D(H   3,S   7,C   1,H   2)   -176.8675         0.010000   
     41. D(H   3,S   7,C   1,H  11)    -59.6590         0.010000   
     42. D(H   3,S   7,C   1,C   5)     62.4386         0.010000   
     43. D(H   9,N   8,C   5,C   1)    -68.7915         0.017257   
     44. D(H   9,N   8,C   5,H   0)    172.0988         0.017257   
     45. D(H   6,N   8,C   5,C  10)    -66.8224         0.017257   
     46. D(H   6,N   8,C   5,C   1)    173.3752         0.017257   
     47. D(H   6,N   8,C   5,H   0)     54.2655         0.017257   
     48. D(C   5,C  10,O   4,H  13)    176.7632         0.036235   
     49. D(O  12,C  10,C   5,C   1)     86.9592         0.010565   
     50. D(O  12,C  10,C   5,H   0)   -153.7527         0.010565   
     51. D(O   4,C  10,C   5,N   8)    147.2710         0.010565   
     52. D(O   4,C  10,C   5,C   1)    -93.3599         0.010565   
     53. D(O   4,C  10,C   5,H   0)     25.9281         0.010565   
     54. D(O  12,C  10,O   4,H  13)     -3.5561         0.036235   
    -----------------------------------------------------------------

Number of atoms                         .... 14
Number of degrees of freedom            .... 54


         *************************************************************
         *                GEOMETRY OPTIMIZATION CYCLE   1            *
         *************************************************************
---------------------------------
CARTESIAN COORDINATES (ANGSTROEM)
---------------------------------
  H     -1.639079    2.568764    1.299381
  C     -3.071801    1.458475    0.117430
  H     -3.082412    0.852373   -0.788893
  H     -3.571471    1.255653    2.424599
  O     -0.360153    0.487059    1.504572
  C     -1.681547    2.074540    0.323011
  H     -0.610742    3.568798   -0.561909
  S     -3.577155    0.339188    1.459044
  N     -1.472476    3.058005   -0.721041
  H     -1.381228    2.583398   -1.614978
  C     -0.642438    0.954405    0.291119
  H     -3.806559    2.256904    0.021774
  O     -0.132464    0.545433   -0.717876
  H      0.262789   -0.256459    1.458240

----------------------------
CARTESIAN COORDINATES (A.U.)
----------------------------
  NO LB      ZA    FRAG     MASS         X           Y           Z
   0 H     1.0000    0     1.008   -3.097410    4.854260    2.455475
   1 C     6.0000    0    12.011   -5.804862    2.756118    0.221910
   2 H     1.0000    0     1.008   -5.824914    1.610751   -1.490792
   3 H     1.0000    0     1.008   -6.749102    2.372839    4.581828
   4 O     8.0000    0    15.999   -0.680591    0.920408    2.843230
   5 C     6.0000    0    12.011   -3.177663    3.920313    0.610403
   6 H     1.0000    0     1.008   -1.154135    6.744051   -1.061853
   7 S    16.0000    0    32.060   -6.759843    0.640972    2.757194
   8 N     7.0000    0    14.007   -2.782577    5.778792   -1.362571
   9 H     1.0000    0     1.008   -2.610143    4.881915   -3.051867
  10 C     6.0000    0    12.011   -1.214032    1.803565    0.550136
  11 H     1.0000    0     1.008   -7.193353    4.264931    0.041147
  12 O     8.0000    0    15.999   -0.250320    1.030719   -1.356589
  13 H     1.0000    0     1.008    0.496600   -0.484638    2.755675

--------------------------------
INTERNAL COORDINATES (ANGSTROEM)
--------------------------------
 H      0   0   0     0.000000000000     0.00000000     0.00000000
 C      1   0   0     2.163895853677     0.00000000     0.00000000
 H      2   1   0     1.090363915201   138.21747026     0.00000000
 H      2   1   3     2.369353585317    69.61499922   143.18498550
 O      1   2   3     2.451784982478    87.44588473   303.16032964
 C      1   2   3     1.095152594897    41.90968661    10.67914641
 H      6   1   2     2.040223935328    92.05280674   140.22507460
 S      4   2   1     1.331253393913    49.72697655   222.52841593
 N      7   6   1     1.014307201557    41.69653263   230.05328814
 H      9   7   6     1.016219134952   107.27250610   240.96140697
 C      5   1   2     1.330625954225    60.97507974    56.66911099
 H      2   1   6     1.089269882751    96.80466575   241.69267348
 O     11   5   1     1.202249390322   123.77191039   167.47720430
 H      5   1   2     0.971094127168   168.72668775   104.68832032

---------------------------
INTERNAL COORDINATES (A.U.)
---------------------------
 H      0   0   0     0.000000000000     0.00000000     0.00000000
 C      1   0   0     4.089170545778     0.00000000     0.00000000
 H      2   1   0     2.060489186041   138.21747026     0.00000000
 H      2   1   3     4.477429390673    69.61499922   143.18498550
 O      1   2   3     4.633202156145    87.44588473   303.16032964
 C      1   2   3     2.069538479208    41.90968661    10.67914641
 H      6   1   2     3.855464489642    92.05280674   140.22507460
 S      4   2   1     2.515704329348    49.72697655   222.52841593
 N      7   6   1     1.916762826606    41.69653263   230.05328814
 H      9   7   6     1.920375857110   107.27250610   240.96140697
 C      5   1   2     2.514518640173    60.97507974    56.66911099
 H      2   1   6     2.058421764328    96.80466575   241.69267348
 O     11   5   1     2.271922092383   123.77191039   167.47720430
 H      5   1   2     1.835101950606   168.72668775   104.68832032

---------------------
BASIS SET INFORMATION
---------------------
There are 5 groups of distinct atoms

 Group   1 Type H   : 4s1p contracted to 2s1p pattern {31/1}
 Group   2 Type C   : 10s4p1d contracted to 3s2p1d pattern {631/31/1}
 Group   3 Type O   : 10s4p1d contracted to 3s2p1d pattern {631/31/1}
 Group   4 Type S   : 16s10p1d contracted to 4s3p1d pattern {6631/631/1}
 Group   5 Type N   : 10s4p1d contracted to 3s2p1d pattern {631/31/1}

Atom   0H    basis set group =>   1
Atom   1C    basis set group =>   2
Atom   2H    basis set group =>   1
Atom   3H    basis set group =>   1
Atom   4O    basis set group =>   3
Atom   5C    basis set group =>   2
Atom   6H    basis set group =>   1
Atom   7S    basis set group =>   4
Atom   8N    basis set group =>   5
Atom   9H    basis set group =>   1
Atom  10C    basis set group =>   2
Atom  11H    basis set group =>   1
Atom  12O    basis set group =>   3
Atom  13H    basis set group =>   1
---------------------------------
AUXILIARY/J BASIS SET INFORMATION
---------------------------------
There are 5 groups of distinct atoms

 Group   1 Type H   : 5s2p1d contracted to 3s1p1d pattern {311/2/1}
 Group   2 Type C   : 12s5p4d2f1g contracted to 6s4p3d1f1g pattern {711111/2111/211/2/1}
 Group   3 Type O   : 12s5p4d2f1g contracted to 6s4p3d1f1g pattern {711111/2111/211/2/1}
 Group   4 Type S   : 14s5p5d2f1g contracted to 8s4p3d1f1g pattern {71111111/2111/311/2/1}
 Group   5 Type N   : 12s5p4d2f1g contracted to 6s4p3d1f1g pattern {711111/2111/211/2/1}

Atom   0H    basis set group =>   1
Atom   1C    basis set group =>   2
Atom   2H    basis set group =>   1
Atom   3H    basis set group =>   1
Atom   4O    basis set group =>   3
Atom   5C    basis set group =>   2
Atom   6H    basis set group =>   1
Atom   7S    basis set group =>   4
Atom   8N    basis set group =>   5
Atom   9H    basis set group =>   1
Atom  10C    basis set group =>   2
Atom  11H    basis set group =>   1
Atom  12O    basis set group =>   3
Atom  13H    basis set group =>   1
------------------------------------------------------------------------------
                             ORCA STARTUP CALCULATIONS
                           -- RI-GTO INTEGRALS CHOSEN --
------------------------------------------------------------------------------
------------------------------------------------------------------------------
                   ___                                                        
                  /   \      - P O W E R E D   B Y -                         
                 /     \                                                     
                 |  |  |   _    _      __       _____    __    __             
                 |  |  |  | |  | |    /  \     |  _  \  |  |  /  |          
                  \  \/   | |  | |   /    \    | | | |  |  | /  /          
                 / \  \   | |__| |  /  /\  \   | |_| |  |  |/  /          
                |  |  |   |  __  | /  /__\  \  |    /   |      \           
                |  |  |   | |  | | |   __   |  |    \   |  |\   \          
                \     /   | |  | | |  |  |  |  | |\  \  |  | \   \       
                 \___/    |_|  |_| |__|  |__|  |_| \__\ |__|  \__/        
                                                                              
                      - O R C A' S   B I G   F R I E N D -                    
                                      &                                       
                       - I N T E G R A L  F E E D E R -                       
                                                                              
 v1 FN, 2020, v2 2021, v3 2022-2024                                           
------------------------------------------------------------------------------


----------------------
SHARK INTEGRAL PACKAGE
----------------------

Number of atoms                             ...     14
Number of basis functions                   ...    137
Number of shells                            ...     65
Maximum angular momentum                    ...      2
Integral batch strategy                     ... SHARK/LIBINT Hybrid
RI-J (if used) integral strategy            ... SPLIT-RIJ (Revised 2003 algorithm where possible)
Printlevel                                  ...      1
Contraction scheme used                     ... SEGMENTED contraction
Prescreening option                         ... SCHWARTZ
   Thresh                                   ... 2.500e-11
   Tcut                                     ... 2.500e-12
   Tpresel                                  ... 2.500e-12 
Coulomb Range Separation                    ... NOT USED
Exchange Range Separation                   ... NOT USED
Multipole approximations                    ... NOT USED
Finite Nucleus Model                        ... NOT USED
CABS basis                                  ... NOT available
Auxiliary Coulomb fitting basis             ... AVAILABLE
   # of basis functions in Aux-J            ...    422
   # of shells in Aux-J                     ...    142
   Maximum angular momentum in Aux-J        ...      4
Auxiliary J/K fitting basis                 ... NOT available
Auxiliary Correlation fitting basis         ... NOT available
Auxiliary 'external' fitting basis          ... NOT available

Checking pre-screening integrals            ... done (  0.0 sec) Dimension = 65
   => SHARK Basis and OBASIS are compatible. Storing Pre-screening
Shell pair information
Shell pair cut-off parameter TPreSel        ...   2.5e-12
Total number of shell pairs                 ...      2145
Shell pairs after pre-screening             ...      2014
Total number of primitive shell pairs       ...     11826
Primitive shell pairs kept                  ...      7494
          la=0 lb=0:    618 shell pairs
          la=1 lb=0:    737 shell pairs
          la=1 lb=1:    237 shell pairs
          la=2 lb=0:    244 shell pairs
          la=2 lb=1:    150 shell pairs
          la=2 lb=2:     28 shell pairs

Checking whether 4 symmetric matrices of dimension 137 fit in memory
:Max Core in MB      =   4096.00
 MB in use           =      6.22
 MB left             =   4089.78
 MB needed           =      0.29
 Data fit in memory  = YES
Calculating RI/J V-Matrix + Cholesky decomp.... done (  0.0 sec)
Calculating Nuclear repulsion               ... done (  0.0 sec) ENN=    382.990550305246 Eh

Diagonalization of the overlap matrix:
Smallest eigenvalue                        ... 3.641e-03
Time for diagonalization                   ...    0.001 sec
Threshold for overlap eigenvalues          ... 1.000e-07
Number of eigenvalues below threshold      ... 0
Time for construction of square roots      ...    0.000 sec
Total time needed                          ...    0.001 sec

-------------------
DFT GRID GENERATION
-------------------

General Integration Accuracy     IntAcc      ... 4.388
Radial Grid Type                 RadialGrid  ... OptM3 with GC (2021)
Angular Grid (max. ang.)         AngularGrid ... 4 (Lebedev-302)
Angular grid pruning method      GridPruning ... 4 (adaptive)
Weight generation scheme         WeightScheme... mBecke (2022)
Basis function cutoff            BFCut       ... 1.0000e-11
Integration weight cutoff        WCut        ... 1.0000e-14
Partially contracted basis set               ... off
Rotationally invariant grid construction     ... off
Angular grids for H and He will be reduced by one unit

Total number of grid points                  ...    66176
Total number of batches                      ...     1041
Average number of points per batch           ...       63
Average number of grid points per atom       ...     4727
Grids setup in   0.2 sec
Initializing property integral containers    ... done (  0.0 sec)

SHARK setup successfully completed in   0.3 seconds

Maximum memory used throughout the entire STARTUP-calculation: 27.9 MB
-------------------------------------------------------------------------------
                                 ORCA GUESS
                   Start orbitals & Density for SCF / CASSCF
-------------------------------------------------------------------------------

------------
SCF SETTINGS
------------
Hamiltonian:
 Density Functional     Method          .... DFT(GTOs)
 Exchange Functional    Exchange        .... B97(D)
 Correlation Functional Correlation     .... B97(D)
 Gradients option       PostSCFGGA      .... off
 RI-approximation to the Coulomb term is turned on
   Number of AuxJ basis functions       .... 422


General Settings:
 Integral files         IntName         .... 2
 Hartree-Fock type      HFTyp           .... RHF
 Total Charge           Charge          ....    0
 Multiplicity           Mult            ....    1
 Number of Electrons    NEL             ....   64
 Basis Dimension        Dim             ....  137
 Nuclear Repulsion      ENuc            ....    382.9905503052 Eh

Convergence Acceleration:
 AO-DIIS                CNVDIIS         .... on
   Start iteration      DIISMaxIt       ....    12
   Startup error        DIISStart       ....  0.200000
   # of expansion vecs  DIISMaxEq       ....     5
   Bias factor          DIISBfac        ....   1.050
   Max. coefficient     DIISMaxC        ....  10.000
 MO-DIIS                CNVKDIIS        .... off
 Trust-Rad. Augm. Hess. CNVTRAH         .... auto
   Auto Start mean grad. ratio tolernc. ....  1.125000
   Auto Start start iteration           ....    50
   Auto Start num. interpolation iter.  ....    10
   Max. Number of Micro iterations      ....    24
   Max. Number of Macro iterations      .... Maxiter - #DIIS iter
   Number of Davidson start vectors     ....     2
   Converg. threshold    (grad. norm)   ....   1.000e-05
   Grad. Scal. Fac. for Micro threshold ....   0.100
   Minimum threshold for Micro iter.    ....   1.000e-02
   NR start threshold (gradient norm)   ....   1.000e-04
   Initial trust radius                 ....   0.400
   Minimum AH scaling param. (alpha)    ....   1.000
   Maximum AH scaling param. (alpha)    .... 1000.000
   Quad. conv. algorithm                .... NR
   White noise on init. David. guess    .... on
   Maximum white noise                  ....   0.010
   Pseudo random numbers                .... off
   Inactive MOs                         .... canonical
   Orbital update algorithm             .... Taylor
   Preconditioner                       .... Diag
   Full preconditioner red. dimension   ....   250
 SOSCF                 CNVSOSCF           .... on
   Start iteration     SOSCFMaxIt         ....   150
   Startup grad/error  SOSCFStart         ....  0.003300
   Hessian update      SOSCFHessUp        .... L-BFGS
   Autom. constraints  SOSCFAutoConstrain .... off
 Level Shifting         CNVShift        .... on
   Level shift para.    LevelShift      ....    0.2500
   Turn off err/grad.   ShiftErr        ....    0.0010
 Zerner damping         CNVZerner       .... off
 Static damping         CNVDamp         .... on
   Fraction old density DampFac         ....    0.7000
   Max. Damping (<1)    DampMax         ....    0.9800
   Min. Damping (>=0)   DampMin         ....    0.0000
   Turn off err/grad.   DampErr         ....    0.1000

SCF Procedure:
 Maximum # iterations   MaxIter         ....   125
 SCF integral mode      SCFMode         .... Direct
   Integral package                     .... SHARK and LIBINT hybrid scheme
 Reset frequency        DirectResetFreq ....    20
 Integral Threshold     Thresh          ....  2.500e-11 Eh
 Primitive CutOff       TCut            ....  2.500e-12 Eh

Convergence Tolerance:
 Convergence Check Mode ConvCheckMode   .... Total+1el-Energy
 Convergence forced     ConvForced      .... 0
 Energy Change          TolE            ....  1.000e-08 Eh
 1-El. energy change                    ....  1.000e-05 Eh
 Orbital Gradient       TolG            ....  1.000e-05
 Orbital Rotation angle TolX            ....  1.000e-05
 DIIS Error             TolErr          ....  5.000e-07

------------------------------
INITIAL GUESS: MODEL POTENTIAL
------------------------------
Loading Hartree-Fock densities                     ... done
Calculating cut-offs                               ... done
Initializing the effective Hamiltonian             ... done
Setting up the integral package (SHARK)            ... done
Starting the Coulomb interaction                   ... done (   0.0 sec)
Making the grid                                    ... done (   0.1 sec)
Mapping shells                                     ... done
Starting the XC term evaluation                    ... done (   0.1 sec)
  promolecular density results
     # of electrons  =     63.999033008
     EX              =    -64.730834716
     EC              =     -2.962311297
     EX+EC           =    -67.693146013
Transforming the Hamiltonian                       ... done (   0.0 sec)
Diagonalizing the Hamiltonian                      ... done (   0.0 sec)
Back transforming the eigenvectors                 ... done (   0.0 sec)
Now organizing SCF variables                       ... done
                      ------------------
                      INITIAL GUESS DONE (   0.2 sec)
                      ------------------
             **** ENERGY FILE WAS UPDATED (2.en.tmp) ****
Finished Guess after   0.2 sec
Maximum memory used throughout the entire GUESS-calculation: 10.3 MB

-------------------------------------------------------------------------------------------
                                      ORCA LEAN-SCF
                              memory conserving SCF solver
-------------------------------------------------------------------------------------------

----------------------------------------D-I-I-S--------------------------------------------
Iteration    Energy (Eh)           Delta-E    RMSDP     MaxDP     DIISErr   Damp  Time(sec)
-------------------------------------------------------------------------------------------
               ***  Starting incremental Fock matrix formation  ***
    1    -721.4601583895763497     0.00e+00  4.25e-03  1.01e-01  2.55e-01  0.700   0.3
    2    -721.5834270267772581    -1.23e-01  2.63e-03  5.15e-02  9.72e-02  0.700   0.3
                               ***Turning on AO-DIIS***
    3    -721.6192713743913600    -3.58e-02  1.01e-03  2.03e-02  2.56e-02  0.700   0.3
    4    -721.6435431539679257    -2.43e-02  1.38e-03  3.53e-02  1.14e-02  0.000   0.3
    5    -721.7007312314555065    -5.72e-02  4.90e-04  1.01e-02  9.36e-03  0.000   0.3
                              *** Initializing SOSCF ***
---------------------------------------S-O-S-C-F--------------------------------------
Iteration    Energy (Eh)           Delta-E    RMSDP     MaxDP     MaxGrad    Time(sec)
--------------------------------------------------------------------------------------
    6    -721.7013271306917659    -5.96e-04  1.56e-04  2.09e-03  2.91e-03     0.3
               *** Restarting incremental Fock matrix formation ***
    7    -721.7013748087032354    -4.77e-05  1.27e-04  2.63e-03  5.97e-04     0.3
    8    -721.7013647030754555     1.01e-05  6.45e-05  1.84e-03  1.73e-03     0.3
    9    -721.7013800333692188    -1.53e-05  5.49e-05  9.87e-04  2.57e-04     0.3
   10    -721.7013793472273164     6.86e-07  2.85e-05  4.79e-04  1.95e-04     0.3
   11    -721.7013812590920452    -1.91e-06  9.19e-06  1.56e-04  3.12e-05     0.3
   12    -721.7013812090748388     5.00e-08  5.08e-06  1.05e-04  4.55e-05     0.3
   13    -721.7013812927012850    -8.36e-08  1.58e-06  2.50e-05  4.07e-06     0.2
   14    -721.7013812938813544    -1.18e-09  7.97e-07  1.31e-05  5.14e-06     0.2
                 **** Energy Check signals convergence ****

               *****************************************************
               *                     SUCCESS                       *
               *           SCF CONVERGED AFTER  14 CYCLES          *
               *****************************************************

             **** ENERGY FILE WAS UPDATED (2.en.tmp) ****

----------------
TOTAL SCF ENERGY
----------------

Total Energy       :       -721.70138129439022 Eh          -19638.49299 eV

Components:
Nuclear Repulsion  :        382.99055030524630 Eh           10421.70270 eV
Electronic Energy  :      -1104.69193159963652 Eh          -30060.19569 eV
One Electron Energy:      -1752.15727470095499 Eh          -47678.62338 eV
Two Electron Energy:        647.46534310131835 Eh           17618.42769 eV

Virial components:
Potential Energy   :      -1441.21372707528099 Eh          -39217.41929 eV
Kinetic Energy     :        719.51234578089077 Eh           19578.92630 eV
Virial Ratio       :          2.00304238770375

DFT components:
N(Alpha)           :       32.000021969879 electrons
N(Beta)            :       32.000021969879 electrons
N(Total)           :       64.000043939758 electrons
E(X)               :      -65.656170599258 Eh       
E(C)               :       -2.954422874654 Eh       
E(XC)              :      -68.610593473912 Eh       

---------------
SCF CONVERGENCE
---------------

  Last Energy change         ...    1.1801e-09  Tolerance :   1.0000e-08
  Last MAX-Density change    ...    1.3138e-05  Tolerance :   1.0000e-07
  Last RMS-Density change    ...    7.9667e-07  Tolerance :   5.0000e-09
  Last DIIS Error            ...    2.9122e-03  Tolerance :   5.0000e-07
  Last Orbital Gradient      ...    5.1356e-06  Tolerance :   1.0000e-05
  Last Orbital Rotation      ...    5.6874e-06  Tolerance :   1.0000e-05


----------------
ORBITAL ENERGIES
----------------

  NO   OCC          E(Eh)            E(eV) 
   0   2.0000     -88.030089     -2395.4205 
   1   2.0000     -18.816775      -512.0305 
   2   2.0000     -18.757413      -510.4152 
   3   2.0000     -13.997184      -380.8827 
   4   2.0000     -10.031834      -272.9801 
   5   2.0000      -9.958776      -270.9921 
   6   2.0000      -9.947190      -270.6768 
   7   2.0000      -7.716770      -209.9840 
   8   2.0000      -5.751217      -156.4986 
   9   2.0000      -5.746865      -156.3801 
  10   2.0000      -5.739058      -156.1677 
  11   2.0000      -1.024694       -27.8833 
  12   2.0000      -0.936619       -25.4867 
  13   2.0000      -0.826788       -22.4981 
  14   2.0000      -0.726853       -19.7787 
  15   2.0000      -0.647031       -17.6066 
  16   2.0000      -0.592839       -16.1320 
  17   2.0000      -0.535135       -14.5618 
  18   2.0000      -0.472788       -12.8652 
  19   2.0000      -0.442544       -12.0422 
  20   2.0000      -0.424080       -11.5398 
  21   2.0000      -0.410410       -11.1678 
  22   2.0000      -0.395359       -10.7583 
  23   2.0000      -0.377760       -10.2794 
  24   2.0000      -0.352913        -9.6033 
  25   2.0000      -0.336908        -9.1677 
  26   2.0000      -0.328432        -8.9371 
  27   2.0000      -0.291991        -7.9455 
  28   2.0000      -0.277948        -7.5633 
  29   2.0000      -0.231894        -6.3102 
  30   2.0000      -0.205435        -5.5902 
  31   2.0000      -0.198283        -5.3956 
  32   0.0000      -0.022790        -0.6201 
  33   0.0000       0.003802         0.1035 
  34   0.0000       0.046017         1.2522 
  35   0.0000       0.053490         1.4555 
  36   0.0000       0.080034         2.1778 
  37   0.0000       0.093983         2.5574 
  38   0.0000       0.118152         3.2151 
  39   0.0000       0.134340         3.6556 
  40   0.0000       0.148117         4.0305 
  41   0.0000       0.177838         4.8392 
  42   0.0000       0.200382         5.4527 
*Only the first 10 virtual orbitals were printed.

                    ********************************
                    * MULLIKEN POPULATION ANALYSIS *
                    ********************************

-----------------------
MULLIKEN ATOMIC CHARGES
-----------------------
   0 H :    0.126160
   1 C :   -0.346603
   2 H :    0.155530
   3 H :    0.067355
   4 O :   -0.433932
   5 C :   -0.039458
   6 H :    0.246743
   7 S :   -0.042965
   8 N :   -0.555366
   9 H :    0.251539
  10 C :    0.506177
  11 H :    0.166611
  12 O :   -0.419348
  13 H :    0.317555
Sum of atomic charges:    0.0000000

--------------------------------
MULLIKEN REDUCED ORBITAL CHARGES
--------------------------------
  0 H s       :     0.862972  s :     0.862972
      pz      :     0.005751  p :     0.010868
      px      :     0.002359
      py      :     0.002757

  1 C s       :     3.306898  s :     3.306898
      pz      :     0.989202  p :     3.002971
      px      :     0.987335
      py      :     1.026435
      dz2     :     0.006381  d :     0.036734
      dxz     :     0.004126
      dyz     :     0.009593
      dx2y2   :     0.005931
      dxy     :     0.010702

  2 H s       :     0.832700  s :     0.832700
      pz      :     0.005525  p :     0.011770
      px      :     0.002383
      py      :     0.003862

  3 H s       :     0.916757  s :     0.916757
      pz      :     0.005499  p :     0.015888
      px      :     0.004935
      py      :     0.005454

  4 O s       :     3.823551  s :     3.823551
      pz      :     1.510595  p :     4.587285
      px      :     1.589913
      py      :     1.486777
      dz2     :     0.008892  d :     0.023096
      dxz     :     0.004735
      dyz     :     0.004732
      dx2y2   :     0.000361
      dxy     :     0.004377

  5 C s       :     3.196582  s :     3.196582
      pz      :     0.972122  p :     2.785317
      px      :     0.933658
      py      :     0.879537
      dz2     :     0.012716  d :     0.057558
      dxz     :     0.006468
      dyz     :     0.013825
      dx2y2   :     0.009350
      dxy     :     0.015200

  6 H s       :     0.729240  s :     0.729240
      pz      :     0.004629  p :     0.024017
      px      :     0.010763
      py      :     0.008625

  7 S s       :     5.846485  s :     5.846485
      pz      :     2.970667  p :    10.137564
      px      :     3.881964
      py      :     3.284933
      dz2     :     0.006785  d :     0.058916
      dxz     :     0.004537
      dyz     :     0.034429
      dx2y2   :     0.008206
      dxy     :     0.004958

  8 N s       :     3.591158  s :     3.591158
      pz      :     1.109166  p :     3.935875
      px      :     1.474732
      py      :     1.351977
      dz2     :     0.006388  d :     0.028333
      dxz     :     0.002219
      dyz     :     0.009013
      dx2y2   :     0.005782
      dxy     :     0.004931

  9 H s       :     0.724533  s :     0.724533
      pz      :     0.010261  p :     0.023928
      px      :     0.006660
      py      :     0.007007

 10 C s       :     2.983275  s :     2.983275
      pz      :     0.704436  p :     2.384605
      px      :     0.841292
      py      :     0.838877
      dz2     :     0.043890  d :     0.125942
      dxz     :     0.029859
      dyz     :     0.032378
      dx2y2   :     0.008513
      dxy     :     0.011302

 11 H s       :     0.821816  s :     0.821816
      pz      :     0.002467  p :     0.011572
      px      :     0.004248
      py      :     0.004857

 12 O s       :     3.857199  s :     3.857199
      pz      :     1.474712  p :     4.533986
      px      :     1.503251
      py      :     1.556023
      dz2     :     0.007725  d :     0.028163
      dxz     :     0.007721
      dyz     :     0.007364
      dx2y2   :     0.003148
      dxy     :     0.002206

 13 H s       :     0.644453  s :     0.644453
      pz      :     0.007162  p :     0.037992
      px      :     0.014286
      py      :     0.016544



                     *******************************
                     * LOEWDIN POPULATION ANALYSIS *
                     *******************************

----------------------
LOEWDIN ATOMIC CHARGES
----------------------
   0 H :    0.080876
   1 C :   -0.211326
   2 H :    0.091555
   3 H :    0.040236
   4 O :   -0.122058
   5 C :   -0.058308
   6 H :    0.128958
   7 S :    0.012885
   8 N :   -0.242902
   9 H :    0.130214
  10 C :    0.101525
  11 H :    0.088612
  12 O :   -0.223192
  13 H :    0.182927

-------------------------------
LOEWDIN REDUCED ORBITAL CHARGES
-------------------------------
  0 H s       :     0.879638  s :     0.879638
      pz      :     0.022116  p :     0.039487
      px      :     0.007139
      py      :     0.010231

  1 C s       :     2.956100  s :     2.956100
      pz      :     1.055111  p :     3.174416
      px      :     1.047271
      py      :     1.072034
      dz2     :     0.013845  d :     0.080811
      dxz     :     0.008683
      dyz     :     0.021416
      dx2y2   :     0.013099
      dxy     :     0.023767

  2 H s       :     0.867107  s :     0.867107
      pz      :     0.021443  p :     0.041338
      px      :     0.006963
      py      :     0.012932

  3 H s       :     0.911655  s :     0.911655
      pz      :     0.017686  p :     0.048109
      px      :     0.011702
      py      :     0.018721

  4 O s       :     3.469019  s :     3.469019
      pz      :     1.545064  p :     4.600944
      px      :     1.572921
      py      :     1.482958
      dz2     :     0.019976  d :     0.052096
      dxz     :     0.009147
      dyz     :     0.011164
      dx2y2   :     0.001116
      dxy     :     0.010694

  5 C s       :     2.887781  s :     2.887781
      pz      :     1.021218  p :     3.039346
      px      :     1.025756
      py      :     0.992371
      dz2     :     0.028364  d :     0.131182
      dxz     :     0.012698
      dyz     :     0.031329
      dx2y2   :     0.020829
      dxy     :     0.037962

  6 H s       :     0.792032  s :     0.792032
      pz      :     0.012085  p :     0.079010
      px      :     0.040518
      py      :     0.026407

  7 S s       :     5.644139  s :     5.644139
      pz      :     3.027511  p :    10.277385
      px      :     3.870640
      py      :     3.379234
      dz2     :     0.007838  d :     0.065591
      dxz     :     0.005272
      dyz     :     0.038657
      dx2y2   :     0.008589
      dxy     :     0.005234

  8 N s       :     3.196629  s :     3.196629
      pz      :     1.152317  p :     3.988565
      px      :     1.469583
      py      :     1.366665
      dz2     :     0.014871  d :     0.057708
      dxz     :     0.004409
      dyz     :     0.020338
      dx2y2   :     0.008658
      dxy     :     0.009432

  9 H s       :     0.790006  s :     0.790006
      pz      :     0.038129  p :     0.079780
      px      :     0.018783
      py      :     0.022869

 10 C s       :     2.854391  s :     2.854391
      pz      :     0.945560  p :     2.743436
      px      :     0.895414
      py      :     0.902462
      dz2     :     0.113364  d :     0.300648
      dxz     :     0.069026
      dyz     :     0.075555
      dx2y2   :     0.016077
      dxy     :     0.026626

 11 H s       :     0.869109  s :     0.869109
      pz      :     0.007417  p :     0.042279
      px      :     0.016361
      py      :     0.018501

 12 O s       :     3.553767  s :     3.553767
      pz      :     1.542657  p :     4.611091
      px      :     1.509432
      py      :     1.559002
      dz2     :     0.017502  d :     0.058333
      dxz     :     0.016805
      dyz     :     0.014772
      dx2y2   :     0.004336
      dxy     :     0.004918

 13 H s       :     0.701615  s :     0.701615
      pz      :     0.020405  p :     0.115458
      px      :     0.044008
      py      :     0.051045



                      *****************************
                      * MAYER POPULATION ANALYSIS *
                      *****************************

  NA   - Mulliken gross atomic population
  ZA   - Total nuclear charge
  QA   - Mulliken gross atomic charge
  VA   - Mayer's total valence
  BVA  - Mayer's bonded valence
  FA   - Mayer's free valence

  ATOM       NA         ZA         QA         VA         BVA        FA
  0 H      0.8738     1.0000     0.1262     0.9517     0.9517    -0.0000
  1 C      6.3466     6.0000    -0.3466     3.8490     3.8490     0.0000
  2 H      0.8445     1.0000     0.1555     0.9484     0.9484    -0.0000
  3 H      0.9326     1.0000     0.0674     0.9715     0.9715    -0.0000
  4 O      8.4339     8.0000    -0.4339     2.0651     2.0651    -0.0000
  5 C      6.0395     6.0000    -0.0395     3.8626     3.8626    -0.0000
  6 H      0.7533     1.0000     0.2467     0.9180     0.9180    -0.0000
  7 S     16.0430    16.0000    -0.0430     2.0032     2.0032     0.0000
  8 N      7.5554     7.0000    -0.5554     2.9028     2.9028    -0.0000
  9 H      0.7485     1.0000     0.2515     0.9297     0.9297    -0.0000
 10 C      5.4938     6.0000     0.5062     3.9420     3.9420     0.0000
 11 H      0.8334     1.0000     0.1666     0.9395     0.9395     0.0000
 12 O      8.4193     8.0000    -0.4193     2.1132     2.1132    -0.0000
 13 H      0.6824     1.0000     0.3176     0.9174     0.9174     0.0000

  Mayer bond orders larger than 0.100000
B(  0-H ,  5-C ) :   0.9298 B(  1-C ,  2-H ) :   0.9382 B(  1-C ,  5-C ) :   0.9654 
B(  1-C ,  7-S ) :   1.0071 B(  1-C , 11-H ) :   0.9308 B(  3-H ,  7-S ) :   0.9516 
B(  4-O , 10-C ) :   1.1013 B(  4-O , 13-H ) :   0.8506 B(  5-C ,  8-N ) :   1.0534 
B(  5-C , 10-C ) :   0.8871 B(  6-H ,  8-N ) :   0.9076 B(  8-N ,  9-H ) :   0.8944 
B( 10-C , 12-O ) :   1.9188 

-------
TIMINGS
-------

Total SCF time: 0 days 0 hours 0 min 4 sec 

Total time                  ....       4.112 sec
Sum of individual times     ....       3.831 sec  ( 93.2%)

SCF preparation             ....       0.025 sec  (  0.6%)
Fock matrix formation       ....       3.778 sec  ( 91.9%)
  Startup                   ....       0.001 sec  (  0.0% of F)
  Split-RI-J                ....       1.149 sec  ( 30.4% of F)
  XC integration            ....       2.857 sec  ( 75.6% of F)
    Basis function eval.    ....       1.004 sec  ( 35.1% of XC)
    Density eval.           ....       0.568 sec  ( 19.9% of XC)
    XC-Functional eval.     ....       0.605 sec  ( 21.2% of XC)
    XC-Potential eval.      ....       0.605 sec  ( 21.2% of XC)
Diagonalization             ....       0.000 sec  (  0.0%)
Density matrix formation    ....       0.003 sec  (  0.1%)
Total Energy calculation    ....       0.001 sec  (  0.0%)
Population analysis         ....       0.002 sec  (  0.0%)
Orbital Transformation      ....       0.003 sec  (  0.1%)
Orbital Orthonormalization  ....       0.000 sec  (  0.0%)
DIIS solution               ....       0.012 sec  (  0.3%)
SOSCF solution              ....       0.009 sec  (  0.2%)
Finished LeanSCF after   4.1 sec

Maximum memory used throughout the entire LEANSCF-calculation: 14.9 MB



-------------------------------------------------------------------------------
                          DFT DISPERSION CORRECTION                            
-------------------------------------------------------------------------------
Active option DFTDOPT                   ...         2   
Final C6-coefficient scaling factor     ...     1.250
Final VDW-radii scaling factor          ...     1.100
Damping factor alpha                    ...    20.000
-------------------------   ----------------
Dispersion correction           -0.016560999
-------------------------   ----------------


-------------------------   --------------------
FINAL SINGLE POINT ENERGY      -721.717942293149
-------------------------   --------------------

------------------------------------------------------------------------------
                         ORCA SCF GRADIENT CALCULATION
------------------------------------------------------------------------------

Nuc. rep. gradient        (SHARK) ... done (  0.0 sec)
HCore & Overlap gradient  (SHARK) ... done (  0.1 sec)
Split-RIJ-J gradient      (SHARK) ... done (  0.4 sec)
XC gradient                       ... done (  1.4 sec)
Dispersion correction             ... done (  0.0 sec)

-------------------
DISPERSION GRADIENT
-------------------

   1   H   :    0.000351163   -0.000097804   -0.000268567
   2   C   :   -0.000201702    0.000338736    0.001005106
   3   H   :   -0.001062735    0.000090445    0.000757420
   4   H   :   -0.000451268   -0.000251639    0.000092819
   5   O   :    0.000531680   -0.000117865   -0.000020876
   6   C   :   -0.000498745   -0.000562392   -0.000769318
   7   H   :    0.000075741    0.000579470   -0.000614693
   8   S   :   -0.000078658    0.000528907   -0.000838400
   9   N   :    0.000415338   -0.000063967    0.000406579
  10   H   :    0.000406020    0.000812806   -0.000320965
  11   C   :   -0.000378594    0.000144156    0.000513780
  12   H   :   -0.000015757   -0.000909773   -0.000157811
  13   O   :    0.000733660   -0.000470806    0.000542693
  14   H   :    0.000173859   -0.000020275   -0.000327767

Difference to translation invariance:
           :    0.0000000000    0.0000000000    0.0000000000

Difference to rotation invariance:
           :    0.0000000000   -0.0000000000   -0.0000000000

Norm of the Dispersion gradient    ...    0.0032036672
RMS gradient                       ...    0.0004943366
MAX gradient                       ...    0.0010627352

------------------
CARTESIAN GRADIENT
------------------

   1   H   :    0.001023774   -0.001910778   -0.002399777
   2   C   :    0.002494983   -0.001546600   -0.006337665
   3   H   :   -0.000159906    0.002054237    0.005700761
   4   H   :   -0.000446868   -0.006943439   -0.007526833
   5   O   :   -0.001216299    0.000687340   -0.028957830
   6   C   :   -0.001887530   -0.000920750    0.002290495
   7   H   :   -0.004228139   -0.000538988    0.000113887
   8   S   :    0.009060381    0.016457801    0.000654716
   9   N   :    0.006380814   -0.009641627    0.001948628
  10   H   :   -0.002918616    0.002629252    0.002341528
  11   C   :    0.004276487   -0.009149589   -0.007313458
  12   H   :    0.001937521   -0.004970204    0.003362165
  13   O   :   -0.011923631    0.011602854    0.029969325
  14   H   :   -0.002392970    0.002190492    0.006154058

Difference to translation invariance:
           :   -0.0000000001    0.0000000000    0.0000000000

Difference to rotation invariance:
           :   -0.0001333537   -0.0000564033   -0.0001427916

Norm of the Cartesian gradient     ...    0.0547701354
RMS gradient                       ...    0.0084512154
MAX gradient                       ...    0.0299693255

-------
TIMINGS
-------

Total SCF gradient time     ....        1.781 sec

Densities                   ....       0.000 sec  (  0.0%)
One electron gradient       ....       0.058 sec  (  3.2%)
RI-J Coulomb gradient       ....       0.350 sec  ( 19.7%)
XC gradient                 ....       1.372 sec  ( 77.1%)

Maximum memory used throughout the entire SCFGRAD-calculation: 19.4 MB
------------------------------------------------------------------------------
                         ORCA GEOMETRY RELAXATION STEP
------------------------------------------------------------------------------

Reading the OPT-File                    .... done
Getting information on internals        .... done
Copying old internal coords+grads       .... done
Making the new internal coordinates     .... (2022 redundants) done
Validating the new internal coordinates .... (2022 redundants) done
Calculating the B-matrix                .... done
Calculating the G,G- and P matrices     .... done
Transforming gradient to internals      .... done
Projecting the internal gradient        .... done
Number of atoms                         ....  14
Number of internal coordinates          ....  54
Current Energy                          ....  -721.717942293 Eh
Current gradient norm                   ....     0.054770135 Eh/bohr
Maximum allowed component of the step   ....  0.300
Current trust radius                    ....  0.300
Evaluating the initial hessian          ....  (Almloef) done
Projecting the Hessian                  .... done
Forming the augmented Hessian           .... done
Diagonalizing the augmented Hessian     .... done
Last element of RFO vector              ....  0.962282132
Lowest eigenvalues of augmented Hessian:
 -0.007134117  0.010007555  0.010797596  0.011621458  0.017285013
Length of the computed step             ....  0.282716966
The final length of the internal step   ....  0.282716966
Converting the step to Cartesian space:
 Initial RMS(Int)=    0.0384729060
Transforming coordinates:
 Iter   0:  RMS(Cart)=    0.0932546202 RMS(Int)=    0.0385840939
 Iter   5:  RMS(Cart)=    0.0000004417 RMS(Int)=    0.0000002809
done
Storing new coordinates                 .... done

                                .--------------------.
          ----------------------|Geometry convergence|-------------------------
          Item                value                   Tolerance       Converged
          ---------------------------------------------------------------------
          RMS gradient        0.0075778801            0.0001000000      NO
          MAX gradient        0.0341556969            0.0003000000      NO
          RMS step            0.0384729060            0.0020000000      NO
          MAX step            0.1184540954            0.0040000000      NO
          -------------------------------------------------------------------------
          ........................................................
          Max(Bonds)      0.0198      Max(Angles)    2.88
          Max(Dihed)        6.79      Max(Improp)    0.00
          ---------------------------------------------------------------------

The optimization has not yet converged - more geometry cycles are needed


    ---------------------------------------------------------------------------
                         Redundant Internal Coordinates
                            (Angstroem and degrees)

        Definition                    Value    dE/dq     Step     New-Value
    ----------------------------------------------------------------------------
     1. B(H   2,C   1)                1.0904 -0.005878  0.0085    1.0988   
     2. B(C   5,C   1)                1.5345 -0.013144  0.0186    1.5530   
     3. B(C   5,H   0)                1.0952 -0.002961  0.0043    1.0995   
     4. B(S   7,H   3)                1.3313 -0.010246  0.0133    1.3446   
     5. B(S   7,C   1)                1.8188 -0.013312  0.0198    1.8386   
     6. B(N   8,H   6)                1.0143 -0.003846  0.0047    1.0190   
     7. B(N   8,C   5)                1.4495 -0.008406  0.0097    1.4592   
     8. B(H   9,N   8)                1.0162 -0.003554  0.0044    1.0206   
     9. B(C  10,C   5)                1.5282 -0.011558  0.0160    1.5442   
    10. B(C  10,O   4)                1.3306 -0.022577  0.0170    1.3476   
    11. B(H  11,C   1)                1.0893 -0.005247  0.0075    1.0968   
    12. B(O  12,C  10)                1.2022 -0.034156  0.0161    1.2184   
    13. B(H  13,O   4)                0.9711 -0.003504  0.0037    0.9748   
    14. A(H   2,C   1,C   5)          110.08  0.004247   -0.79    109.30   
    15. A(H   2,C   1,H  11)          109.14 -0.000216   -0.95    108.20   
    16. A(C   5,C   1,S   7)          113.58 -0.016070    2.88    116.46   
    17. A(H   2,C   1,S   7)          105.57  0.003877   -0.30    105.26   
    18. A(C   5,C   1,H  11)          109.19  0.006096   -1.03    108.16   
    19. A(S   7,C   1,H  11)          109.17  0.002311    0.09    109.27   
    20. A(C  10,O   4,H  13)          111.19  0.011019   -1.65    109.54   
    21. A(C   1,C   5,N   8)          107.85  0.002294   -0.44    107.41   
    22. A(C   1,C   5,C  10)          108.60 -0.007247    1.78    110.38   
    23. A(H   0,C   5,N   8)          109.29 -0.000180   -0.71    108.58   
    24. A(H   0,C   5,C  10)          108.85 -0.000450    0.12    108.96   
    25. A(N   8,C   5,C  10)          112.59  0.004432   -0.58    112.01   
    26. A(H   0,C   5,C   1)          109.62  0.001106   -0.15    109.47   
    27. A(C   1,S   7,H   3)           96.32 -0.000057    0.01     96.33   
    28. A(H   6,N   8,H   9)          107.27  0.000401   -0.75    106.52   
    29. A(C   5,N   8,H   9)          109.25  0.001927   -0.62    108.63   
    30. A(C   5,N   8,H   6)          110.56  0.000794   -0.42    110.14   
    31. A(O   4,C  10,C   5)          112.50 -0.000643    0.10    112.59   
    32. A(C   5,C  10,O  12)          123.73  0.002679   -0.34    123.39   
    33. A(O   4,C  10,O  12)          123.77 -0.002037    0.24    124.01   
    34. D(N   8,C   5,C   1,H   2)     68.65  0.001742    0.40     69.05   
    35. D(N   8,C   5,C   1,S   7)   -173.23 -0.000816    1.34   -171.89   
    36. D(H   0,C   5,C   1,H   2)   -172.45  0.003491   -0.80   -173.25   
    37. D(H   0,C   5,C   1,H  11)     67.76 -0.002618    1.48     69.24   
    38. D(H   0,C   5,C   1,S   7)    -54.33  0.000933    0.14    -54.19   
    39. D(N   8,C   5,C   1,H  11)    -51.14 -0.004367    2.68    -48.46   
    40. D(H   3,S   7,C   1,H   2)   -176.87 -0.001133   -0.61   -177.48   
    41. D(H   3,S   7,C   1,H  11)    -59.66  0.001823   -1.83    -61.49   
    42. D(H   3,S   7,C   1,C   5)     62.44  0.000373   -1.12     61.32   
    43. D(H   9,N   8,C   5,C   1)    -68.79  0.003600   -2.38    -71.17   
    44. D(H   9,N   8,C   5,H   0)    172.10  0.001044   -1.54    170.56   
    45. D(H   6,N   8,C   5,C  10)    -66.82 -0.003316    0.74    -66.09   
    46. D(H   6,N   8,C   5,C   1)    173.38  0.001466   -0.83    172.54   
    47. D(H   6,N   8,C   5,H   0)     54.27 -0.001089    0.01     54.27   
    48. D(C   5,C  10,O   4,H  13)    176.76  0.000044    0.02    176.78   
    49. D(O  12,C  10,C   5,C   1)     86.96  0.003406   -6.51     80.45   
    50. D(O  12,C  10,C   5,H   0)   -153.75  0.000273   -5.59   -159.34   
    51. D(O   4,C  10,C   5,N   8)    147.27  0.002489   -6.79    140.48   
    52. D(O   4,C  10,C   5,C   1)    -93.36  0.003269   -6.51    -99.87   
    53. D(O   4,C  10,C   5,H   0)     25.93  0.000136   -5.59     20.34   
    54. D(O  12,C  10,O   4,H  13)     -3.56 -0.000076    0.02     -3.53   
    ----------------------------------------------------------------------------

Geometry step timings:
Preparation and reading OPT file:      0.000 s ( 1.803 %)
Internal coordinates            :      0.000 s ( 1.387 %)
B/P matrices and projection     :      0.000 s (37.171 %)
Hessian update/contruction      :      0.000 s (11.650 %)
Making the step                 :      0.000 s (23.994 %)
Converting the step to Cartesian:      0.000 s ( 4.577 %)
Storing new data                :      0.000 s ( 1.942 %)
Checking convergence            :      0.000 s ( 1.664 %)
Final printing                  :      0.000 s (15.534 %)
Total time                      :      0.001 s

Time for energy+gradient        :      6.441 s
Time for complete geometry iter :      6.454 s

         *************************************************************
         *                GEOMETRY OPTIMIZATION CYCLE   2            *
         *************************************************************
---------------------------------
CARTESIAN COORDINATES (ANGSTROEM)
---------------------------------
  H     -1.628783    2.552126    1.313083
  C     -3.100567    1.463520    0.126904
  H     -3.113836    0.864833   -0.794432
  H     -3.685628    1.243259    2.438398
  O     -0.219695    0.544679    1.512458
  C     -1.679404    2.054605    0.333895
  H     -0.596122    3.556980   -0.538247
  S     -3.719902    0.339453    1.443505
  N     -1.466448    3.054623   -0.707206
  H     -1.355931    2.575585   -1.601586
  C     -0.618390    0.933709    0.285360
  H     -3.802364    2.297298    0.003263
  O     -0.188693    0.461657   -0.752381
  H      0.409028   -0.195791    1.431457

----------------------------
CARTESIAN COORDINATES (A.U.)
----------------------------
  NO LB      ZA    FRAG     MASS         X           Y           Z
   0 H     1.0000    0     1.008   -3.077955    4.822820    2.481368
   1 C     6.0000    0    12.011   -5.859222    2.765651    0.239814
   2 H     1.0000    0     1.008   -5.884297    1.634298   -1.501259
   3 H     1.0000    0     1.008   -6.964828    2.349419    4.607905
   4 O     8.0000    0    15.999   -0.415164    1.029293    2.858132
   5 C     6.0000    0    12.011   -3.173613    3.882641    0.630970
   6 H     1.0000    0     1.008   -1.126507    6.721717   -1.017139
   7 S    16.0000    0    32.060   -7.029597    0.641474    2.727830
   8 N     7.0000    0    14.007   -2.771184    5.772401   -1.336425
   9 H     1.0000    0     1.008   -2.562338    4.867150   -3.026558
  10 C     6.0000    0    12.011   -1.168588    1.764455    0.539252
  11 H     1.0000    0     1.008   -7.185427    4.341263    0.006167
  12 O     8.0000    0    15.999   -0.356578    0.872405   -1.421794
  13 H     1.0000    0     1.008    0.772952   -0.369992    2.705063

--------------------------------
INTERNAL COORDINATES (ANGSTROEM)
--------------------------------
 H      0   0   0     0.000000000000     0.00000000     0.00000000
 C      1   0   0     2.181337153430     0.00000000     0.00000000
 H      2   1   0     1.098845333512   137.39092925     0.00000000
 H      2   1   3     2.394539243044    71.68948688   144.78431043
 O      1   2   3     2.460716549372    91.33489552   304.85211258
 C      1   2   3     1.099499573370    42.16906477     9.45045706
 H      6   1   2     2.047257008450    91.31586633   139.27333395
 S      4   2   1     1.344563626484    49.74308007   220.36800197
 N      7   6   1     1.019007338232    42.00602669   230.32570843
 H      9   7   6     1.020591621273   106.51165946   242.38927562
 C      5   1   2     1.347617853911    61.39969625    52.06965863
 H      2   1   6     1.096810294684    96.52548754   243.42703248
 O     11   5   1     1.218351235383   124.01372645   170.04778848
 H      5   1   2     0.974756658307   169.21509591    86.32774425

---------------------------
INTERNAL COORDINATES (A.U.)
---------------------------
 H      0   0   0     0.000000000000     0.00000000     0.00000000
 C      1   0   0     4.122129825730     0.00000000     0.00000000
 H      2   1   0     2.076516743875   137.39092925     0.00000000
 H      2   1   3     4.525023386280    71.68948688   144.78431043
 O      1   2   3     4.650080371521    91.33489552   304.85211258
 C      1   2   3     2.077753078032    42.16906477     9.45045706
 H      6   1   2     3.868755071722    91.31586633   139.27333395
 S      4   2   1     2.540857023688    49.74308007   220.36800197
 N      7   6   1     1.925644797715    42.00602669   230.32570843
 H      9   7   6     1.928638658781   106.51165946   242.38927562
 C      5   1   2     2.546628677074    61.39969625    52.06965863
 H      2   1   6     2.072671077818    96.52548754   243.42703248
 O     11   5   1     2.302350169799   124.01372645   170.04778848
 H      5   1   2     1.842023131417   169.21509591    86.32774425

------------------------------------------------------------------------------
                   ___                                                        
                  /   \      - P O W E R E D   B Y -                         
                 /     \                                                     
                 |  |  |   _    _      __       _____    __    __             
                 |  |  |  | |  | |    /  \     |  _  \  |  |  /  |          
                  \  \/   | |  | |   /    \    | | | |  |  | /  /          
                 / \  \   | |__| |  /  /\  \   | |_| |  |  |/  /          
                |  |  |   |  __  | /  /__\  \  |    /   |      \           
                |  |  |   | |  | | |   __   |  |    \   |  |\   \          
                \     /   | |  | | |  |  |  |  | |\  \  |  | \   \       
                 \___/    |_|  |_| |__|  |__|  |_| \__\ |__|  \__/        
                                                                              
                      - O R C A' S   B I G   F R I E N D -                    
                                      &                                       
                       - I N T E G R A L  F E E D E R -                       
                                                                              
 v1 FN, 2020, v2 2021, v3 2022-2024                                           
------------------------------------------------------------------------------


----------------------
SHARK INTEGRAL PACKAGE
----------------------

Number of atoms                             ...     14
Number of basis functions                   ...    137
Number of shells                            ...     65
Maximum angular momentum                    ...      2
Integral batch strategy                     ... SHARK/LIBINT Hybrid
RI-J (if used) integral strategy            ... SPLIT-RIJ (Revised 2003 algorithm where possible)
Printlevel                                  ...      1
Contraction scheme used                     ... SEGMENTED contraction
Prescreening option                         ... SCHWARTZ
   Thresh                                   ... 2.500e-11
   Tcut                                     ... 2.500e-12
   Tpresel                                  ... 2.500e-12 
Coulomb Range Separation                    ... NOT USED
Exchange Range Separation                   ... NOT USED
Multipole approximations                    ... NOT USED
Finite Nucleus Model                        ... NOT USED
CABS basis                                  ... NOT available
Auxiliary Coulomb fitting basis             ... AVAILABLE
   # of basis functions in Aux-J            ...    422
   # of shells in Aux-J                     ...    142
   Maximum angular momentum in Aux-J        ...      4
Auxiliary J/K fitting basis                 ... NOT available
Auxiliary Correlation fitting basis         ... NOT available
Auxiliary 'external' fitting basis          ... NOT available

Checking pre-screening integrals            ... done (  0.0 sec) Dimension = 65
   => SHARK Basis and OBASIS are compatible. Storing Pre-screening
Shell pair information
Shell pair cut-off parameter TPreSel        ...   2.5e-12
Total number of shell pairs                 ...      2145
Shell pairs after pre-screening             ...      2002
Total number of primitive shell pairs       ...     11826
Primitive shell pairs kept                  ...      7410
          la=0 lb=0:    614 shell pairs
          la=1 lb=0:    731 shell pairs
          la=1 lb=1:    237 shell pairs
          la=2 lb=0:    242 shell pairs
          la=2 lb=1:    150 shell pairs
          la=2 lb=2:     28 shell pairs

Checking whether 4 symmetric matrices of dimension 137 fit in memory
:Max Core in MB      =   4096.00
 MB in use           =      6.34
 MB left             =   4089.66
 MB needed           =      0.29
 Data fit in memory  = YES
Calculating RI/J V-Matrix + Cholesky decomp.... done (  0.0 sec)
Calculating Nuclear repulsion               ... done (  0.0 sec) ENN=    376.220037244078 Eh

Diagonalization of the overlap matrix:
Smallest eigenvalue                        ... 3.928e-03
Time for diagonalization                   ...    0.001 sec
Threshold for overlap eigenvalues          ... 1.000e-07
Number of eigenvalues below threshold      ... 0
Time for construction of square roots      ...    0.000 sec
Total time needed                          ...    0.001 sec

-------------------
DFT GRID GENERATION
-------------------

General Integration Accuracy     IntAcc      ... 4.388
Radial Grid Type                 RadialGrid  ... OptM3 with GC (2021)
Angular Grid (max. ang.)         AngularGrid ... 4 (Lebedev-302)
Angular grid pruning method      GridPruning ... 4 (adaptive)
Weight generation scheme         WeightScheme... mBecke (2022)
Basis function cutoff            BFCut       ... 1.0000e-11
Integration weight cutoff        WCut        ... 1.0000e-14
Partially contracted basis set               ... off
Rotationally invariant grid construction     ... off
Angular grids for H and He will be reduced by one unit

Total number of grid points                  ...    66228
Total number of batches                      ...     1042
Average number of points per batch           ...       63
Average number of grid points per atom       ...     4731
Grids setup in   0.2 sec
Initializing property integral containers    ... done (  0.0 sec)

SHARK setup successfully completed in   0.3 seconds

Maximum memory used throughout the entire STARTUP-calculation: 28.1 MB
Occupation numbers will be reassigned to an Aufbau configuration
             **** ENERGY FILE WAS UPDATED (2.en.tmp) ****
Finished Guess after   0.0 sec
Maximum memory used throughout the entire GUESS-calculation: 10.4 MB
----------------------------------------D-I-I-S--------------------------------------------
Iteration    Energy (Eh)           Delta-E    RMSDP     MaxDP     DIISErr   Damp  Time(sec)
-------------------------------------------------------------------------------------------
               ***  Starting incremental Fock matrix formation  ***
    1    -721.6927608959797453     0.00e+00  5.02e-04  1.03e-02  5.71e-02  0.700   0.3
    2    -721.6963692589731636    -3.61e-03  4.87e-04  1.01e-02  4.40e-02  0.700   0.3
                               ***Turning on AO-DIIS***
    3    -721.6991435950944833    -2.77e-03  3.81e-04  7.93e-03  3.19e-02  0.700   0.3
    4    -721.7010999394303781    -1.96e-03  9.47e-04  1.98e-02  2.27e-02  0.000   0.3
                              *** Initializing SOSCF ***
---------------------------------------S-O-S-C-F--------------------------------------
Iteration    Energy (Eh)           Delta-E    RMSDP     MaxDP     MaxGrad    Time(sec)
--------------------------------------------------------------------------------------
    5    -721.7056805769502716    -4.58e-03  5.70e-05  1.40e-03  9.74e-04     0.3
               *** Restarting incremental Fock matrix formation ***
    6    -721.7056836410838514    -3.06e-06  9.08e-05  2.84e-03  6.02e-04     0.3
    7    -721.7056676582296859     1.60e-05  6.21e-05  1.80e-03  1.94e-03     0.3
    8    -721.7056870675210121    -1.94e-05  2.43e-05  4.47e-04  8.71e-05     0.3
    9    -721.7056865137517434     5.54e-07  1.58e-05  3.13e-04  1.60e-04     0.3
   10    -721.7056873287065173    -8.15e-07  4.39e-06  7.98e-05  1.95e-05     0.2
   11    -721.7056873199323945     8.77e-09  2.43e-06  5.51e-05  2.55e-05     0.2
                 **** Energy Check signals convergence ****

               *****************************************************
               *                     SUCCESS                       *
               *           SCF CONVERGED AFTER  11 CYCLES          *
               *****************************************************

             **** ENERGY FILE WAS UPDATED (2.en.tmp) ****

----------------
TOTAL SCF ENERGY
----------------

Total Energy       :       -721.70568734056633 Eh          -19638.61016 eV

Components:
Nuclear Repulsion  :        376.22003724407750 Eh           10237.46768 eV
Electronic Energy  :      -1097.92572458464383 Eh          -29876.07784 eV
One Electron Energy:      -1738.62473179536141 Eh          -47310.38417 eV
Two Electron Energy:        640.69900721071758 Eh           17434.30633 eV

Virial components:
[...]
  32   0.0000      -0.033024        -0.8986 
  33   0.0000      -0.002974        -0.0809 
  34   0.0000       0.035872         0.9761 
  35   0.0000       0.052369         1.4250 
  36   0.0000       0.076359         2.0778 
  37   0.0000       0.094061         2.5595 
  38   0.0000       0.110825         3.0157 
  39   0.0000       0.133465         3.6318 
  40   0.0000       0.143993         3.9182 
  41   0.0000       0.167329         4.5533 
  42   0.0000       0.188053         5.1172 
*Only the first 10 virtual orbitals were printed.

                    ********************************
                    * MULLIKEN POPULATION ANALYSIS *
                    ********************************

-----------------------
MULLIKEN ATOMIC CHARGES
-----------------------
   0 H :    0.126219
   1 C :   -0.337359
   2 H :    0.160117
   3 H :    0.067123
   4 O :   -0.459010
   5 C :   -0.031396
   6 H :    0.248325
   7 S :   -0.044809
   8 N :   -0.558036
   9 H :    0.252717
  10 C :    0.524328
  11 H :    0.160714
  12 O :   -0.429115
  13 H :    0.320181
Sum of atomic charges:   -0.0000000

--------------------------------
MULLIKEN REDUCED ORBITAL CHARGES
--------------------------------
  0 H s       :     0.863081  s :     0.863081
      pz      :     0.005771  p :     0.010700
      px      :     0.002229
      py      :     0.002700

  1 C s       :     3.314034  s :     3.314034
      pz      :     1.002837  p :     2.987980
      px      :     0.972906
      py      :     1.012237
      dz2     :     0.006596  d :     0.035344
      dxz     :     0.003824
      dyz     :     0.008521
      dx2y2   :     0.006121
      dxy     :     0.010282

  2 H s       :     0.828271  s :     0.828271
      pz      :     0.005650  p :     0.011613
      px      :     0.002375
      py      :     0.003588

  3 H s       :     0.917608  s :     0.917608
      pz      :     0.005811  p :     0.015269
      px      :     0.004504
      py      :     0.004954

  4 O s       :     3.843239  s :     3.843239
      pz      :     1.538670  p :     4.592398
      px      :     1.500709
      py      :     1.553020
      dz2     :     0.008044  d :     0.023372
      dxz     :     0.005521
      dyz     :     0.004366
      dx2y2   :     0.000894
      dxy     :     0.004548

  5 C s       :     3.210785  s :     3.210785
      pz      :     0.969276  p :     2.765030
      px      :     0.922650
      py      :     0.873104
      dz2     :     0.011772  d :     0.055581
      dxz     :     0.006421
      dyz     :     0.013414
      dx2y2   :     0.009784
      dxy     :     0.014190

  6 H s       :     0.728045  s :     0.728045
      pz      :     0.004795  p :     0.023631
      px      :     0.010678
      py      :     0.008158

  7 S s       :     5.854294  s :     5.854294
      pz      :     2.985599  p :    10.135183
      px      :     3.860112
      py      :     3.289473
      dz2     :     0.007413  d :     0.055331
      dxz     :     0.004118
      dyz     :     0.031148
      dx2y2   :     0.007125
      dxy     :     0.005527

  8 N s       :     3.622015  s :     3.622015
      pz      :     1.111721  p :     3.907199
      px      :     1.437579
      py      :     1.357900
      dz2     :     0.005601  d :     0.028822
      dxz     :     0.002887
      dyz     :     0.009238
      dx2y2   :     0.006579
      dxy     :     0.004518

  9 H s       :     0.723799  s :     0.723799
      pz      :     0.010034  p :     0.023484
      px      :     0.006355
      py      :     0.007095

 10 C s       :     3.006285  s :     3.006285
      pz      :     0.696571  p :     2.351089
      px      :     0.819896
      py      :     0.834622
      dz2     :     0.038151  d :     0.118298
      dxz     :     0.030843
      dyz     :     0.024851
      dx2y2   :     0.010762
      dxy     :     0.013690

 11 H s       :     0.827969  s :     0.827969
      pz      :     0.002362  p :     0.011317
      px      :     0.003933
      py      :     0.005023

 12 O s       :     3.874254  s :     3.874254
      pz      :     1.453473  p :     4.527493
      px      :     1.593201
      py      :     1.480818
      dz2     :     0.007796  d :     0.027368
      dxz     :     0.006069
      dyz     :     0.007572
      dx2y2   :     0.003173
      dxy     :     0.002759

 13 H s       :     0.642530  s :     0.642530
      pz      :     0.007600  p :     0.037289
      px      :     0.013405
      py      :     0.016284



                     *******************************
                     * LOEWDIN POPULATION ANALYSIS *
                     *******************************

----------------------
LOEWDIN ATOMIC CHARGES
----------------------
   0 H :    0.079945
   1 C :   -0.207530
   2 H :    0.094531
   3 H :    0.044550
   4 O :   -0.148188
   5 C :   -0.051249
   6 H :    0.131247
   7 S :    0.002807
   8 N :   -0.245713
   9 H :    0.132235
  10 C :    0.128115
  11 H :    0.088199
  12 O :   -0.234335
  13 H :    0.185384

-------------------------------
LOEWDIN REDUCED ORBITAL CHARGES
-------------------------------
  0 H s       :     0.880967  s :     0.880967
      pz      :     0.022201  p :     0.039088
      px      :     0.006702
      py      :     0.010185

  1 C s       :     2.965533  s :     2.965533
      pz      :     1.058586  p :     3.165285
      px      :     1.041980
      py      :     1.064719
      dz2     :     0.013621  d :     0.076712
      dxz     :     0.008210
      dyz     :     0.018743
      dx2y2   :     0.013882
      dxy     :     0.022257

  2 H s       :     0.864682  s :     0.864682
      pz      :     0.022463  p :     0.040787
      px      :     0.006738
      py      :     0.011586

  3 H s       :     0.909979  s :     0.909979
      pz      :     0.018731  p :     0.045471
      px      :     0.010526
      py      :     0.016214

  4 O s       :     3.496923  s :     3.496923
      pz      :     1.564980  p :     4.602080
      px      :     1.494469
      py      :     1.542632
      dz2     :     0.016114  d :     0.049184
      dxz     :     0.013163
      dyz     :     0.007046
      dx2y2   :     0.002269
      dxy     :     0.010592

  5 C s       :     2.898588  s :     2.898588
      pz      :     1.020458  p :     3.027839
      px      :     1.021181
      py      :     0.986200
      dz2     :     0.025948  d :     0.124822
      dxz     :     0.012449
      dyz     :     0.029686
      dx2y2   :     0.021893
      dxy     :     0.034846

  6 H s       :     0.791349  s :     0.791349
      pz      :     0.012662  p :     0.077403
      px      :     0.040300
      py      :     0.024442

  7 S s       :     5.663165  s :     5.663165
      pz      :     3.041342  p :    10.272691
      px      :     3.850074
      py      :     3.381276
      dz2     :     0.008345  d :     0.061337
      dxz     :     0.004795
      dyz     :     0.034799
      dx2y2   :     0.007451
      dxy     :     0.005948

  8 N s       :     3.224666  s :     3.224666
      pz      :     1.154355  p :     3.964576
      px      :     1.437235
      py      :     1.372986
      dz2     :     0.012953  d :     0.056470
      dxz     :     0.005384
      dyz     :     0.019988
      dx2y2   :     0.009616
      dxy     :     0.008529

  9 H s       :     0.789820  s :     0.789820
      pz      :     0.036882  p :     0.077944
      px      :     0.017925
      py      :     0.023138

 10 C s       :     2.870122  s :     2.870122
      pz      :     0.921234  p :     2.722704
      px      :     0.879629
      py      :     0.921840
      dz2     :     0.094336  d :     0.279059
      dxz     :     0.073111
      dyz     :     0.058590
      dx2y2   :     0.022134
      dxy     :     0.030888

 11 H s       :     0.870570  s :     0.870570
      pz      :     0.007199  p :     0.041230
      px      :     0.014603
      py      :     0.019428

 12 O s       :     3.569265  s :     3.569265
      pz      :     1.519003  p :     4.609289
      px      :     1.580385
      py      :     1.509900
      dz2     :     0.015556  d :     0.055781
      dxz     :     0.010305
      dyz     :     0.019525
      dx2y2   :     0.005294
      dxy     :     0.005101

 13 H s       :     0.701202  s :     0.701202
      pz      :     0.021304  p :     0.113414
      px      :     0.040897
      py      :     0.051213



                      *****************************
                      * MAYER POPULATION ANALYSIS *
                      *****************************

  NA   - Mulliken gross atomic population
  ZA   - Total nuclear charge
  QA   - Mulliken gross atomic charge
  VA   - Mayer's total valence
  BVA  - Mayer's bonded valence
  FA   - Mayer's free valence

  ATOM       NA         ZA         QA         VA         BVA        FA
  0 H      0.8738     1.0000     0.1262     0.9509     0.9509    -0.0000
  1 C      6.3374     6.0000    -0.3374     3.8347     3.8347    -0.0000
  2 H      0.8399     1.0000     0.1601     0.9511     0.9511    -0.0000
  3 H      0.9329     1.0000     0.0671     0.9715     0.9715    -0.0000
  4 O      8.4590     8.0000    -0.4590     2.0513     2.0513    -0.0000
  5 C      6.0314     6.0000    -0.0314     3.8531     3.8531    -0.0000
  6 H      0.7517     1.0000     0.2483     0.9149     0.9149    -0.0000
  7 S     16.0448    16.0000    -0.0448     1.9995     1.9995     0.0000
  8 N      7.5580     7.0000    -0.5580     2.8946     2.8946    -0.0000
  9 H      0.7473     1.0000     0.2527     0.9262     0.9262     0.0000
 10 C      5.4757     6.0000     0.5243     3.9053     3.9053    -0.0000
 11 H      0.8393     1.0000     0.1607     0.9420     0.9420     0.0000
 12 O      8.4291     8.0000    -0.4291     2.0915     2.0915     0.0000
 13 H      0.6798     1.0000     0.3202     0.9160     0.9160    -0.0000

  Mayer bond orders larger than 0.100000
B(  0-H ,  5-C ) :   0.9304 B(  1-C ,  2-H ) :   0.9337 B(  1-C ,  5-C ) :   0.9661 
B(  1-C ,  7-S ) :   0.9995 B(  1-C , 11-H ) :   0.9299 B(  3-H ,  7-S ) :   0.9521 
B(  4-O , 10-C ) :   1.0815 B(  4-O , 13-H ) :   0.8519 B(  5-C ,  8-N ) :   1.0271 
B(  5-C , 10-C ) :   0.8956 B(  6-H ,  8-N ) :   0.9043 B(  8-N ,  9-H ) :   0.8935 
B( 10-C , 12-O ) :   1.8804 

-------
TIMINGS
-------

Total SCF time: 0 days 0 hours 0 min 1 sec 

Total time                  ....       1.887 sec
Sum of individual times     ....       1.614 sec  ( 85.5%)

SCF preparation             ....       0.027 sec  (  1.4%)
Fock matrix formation       ....       1.568 sec  ( 83.1%)
  Startup                   ....       0.000 sec  (  0.0% of F)
  Split-RI-J                ....       0.513 sec  ( 32.7% of F)
  XC integration            ....       1.283 sec  ( 81.8% of F)
    Basis function eval.    ....       0.465 sec  ( 36.2% of XC)
    Density eval.           ....       0.258 sec  ( 20.1% of XC)
    XC-Functional eval.     ....       0.283 sec  ( 22.0% of XC)
    XC-Potential eval.      ....       0.243 sec  ( 18.9% of XC)
Diagonalization             ....       0.000 sec  (  0.0%)
Density matrix formation    ....       0.001 sec  (  0.1%)
Total Energy calculation    ....       0.000 sec  (  0.0%)
Population analysis         ....       0.008 sec  (  0.4%)
Orbital Transformation      ....       0.001 sec  (  0.1%)
Orbital Orthonormalization  ....       0.000 sec  (  0.0%)
DIIS solution               ....       0.002 sec  (  0.1%)
SOSCF solution              ....       0.006 sec  (  0.3%)
Finished LeanSCF after   1.9 sec

Maximum memory used throughout the entire LEANSCF-calculation: 15.3 MB



-------------------------------------------------------------------------------
                          DFT DISPERSION CORRECTION                            
-------------------------------------------------------------------------------
Active option DFTDOPT                   ...         2   
Final C6-coefficient scaling factor     ...     1.250
Final VDW-radii scaling factor          ...     1.100
Damping factor alpha                    ...    20.000
-------------------------   ----------------
Dispersion correction           -0.016197903
-------------------------   ----------------


-------------------------   --------------------
FINAL SINGLE POINT ENERGY      -721.723107652052
-------------------------   --------------------

                                *** OPTIMIZATION RUN DONE ***


------------------------------------------------------------------------------
                              ORCA PROPERTY CALCULATIONS
------------------------------------------------------------------------------

GBWName                                 ... 2.gbw
Number of atoms                         ...     14
Number of basis functions               ...    137
Max core memory                         ...   4096 MB

Electric properties:
Dipole moment                           ... YES
Quadrupole moment                       ...  NO
Static polarizability (Dipole/Dipole)   ...  NO
Static polarizability (Dipole/Quad.)    ...  NO
Static polarizability (Quad./Quad.)     ...  NO
Static polarizability (Velocity)        ...  NO
Static hyperpolarizability              ...  NO

Atomic electric properties:
Dipole moment                           ...  NO
Quadrupole moment                       ...  NO
Static polarizability                   ...  NO

Choice of electric origin               ... Center of mass
Position of electric origin             ...    -3.556605     2.081859     0.913532

General magnetic properties:
Magnetizability                         ...  NO

EPR properties:
g-Tensor (aka g-matrix)                 ...  NO
Zero-Field splitting spin-orbit         ...  NO
Zero-field splitting spin-spin          ...  NO
Hyperfine couplings                     ...  NO (   0 nuclei)
Quadrupole couplings                    ...  NO (   0 nuclei)
Contact density                         ...  NO (   0 nuclei)

NMR properties:
Chemical shifts                         ...  NO (   0 nuclei)
Spin-rotation constants                 ...  NO (   0 nuclei)
Spin-spin couplings                     ...  NO (   0 nuclei,    0 pairs)

Choice of magnetic origin               ... GIAO
Position of magnetic origin             ...     0.000000     0.000000     0.000000

Properties with geometric perturbations:
SCF Hessian                             ...  NO
IR spectrum                             ...  NO
VCD spectrum                            ...  NO
X-ray spectroscopy properties:
SCF XES/XAS/RIXS spectra                ...  NO

SCF SOC stabilization energy            ...  NO
Diagonal Born-Oppenheimer correction    ...  NO

-------------
DIPOLE MOMENT
-------------

Method             : SCF
Type of density    : Electron Density
Multiplicity       :   1
Irrep              :   0
Energy             :  -721.7069097494288599 Eh
Basis              : AO
                                X                 Y                 Z
Electronic contribution:      0.887830933      -4.443450250       1.440353399
Nuclear contribution   :     -0.254456681       5.010350508      -1.114279134
                        -----------------------------------------
Total Dipole Moment    :      0.633374253       0.566900258       0.326074265
                        -----------------------------------------
Magnitude (a.u.)       :      0.910419284
Magnitude (Debye)      :      2.314101916



--------------------
Rotational spectrum 
--------------------
 
Rotational constants in cm-1:             0.090770             0.051680             0.040679 
Rotational constants in MHz :          2721.219842          1549.336633          1219.530199 

Dipole components along the rotational axes: 
x,y,z [a.u.] :    -0.600763    -0.042656    -0.682735 
x,y,z [Debye]:    -1.527019    -0.108423    -1.735375 

 

Dipole moment calculation done in   0.0 sec 

Maximum memory used throughout the entire PROP-calculation: 8.8 MB

--------------------------------
SUGGESTED CITATIONS FOR THIS RUN
--------------------------------

Below you find a list of papers that are relevant to this ORCA run
We neither can nor want to force you to cite these papers, but we appreciate if you do
You receive ORCA, which is the product of decades of hard work by many enthusiastic individuals, for free
The only thing we kindly ask in return is that you cite our papers,
We deeply appreciate it, if you show your appreciation for ORCA by not just citing the generic ORCA reference.

Please note that relegating all ORCA citations to the supporting information does *not* help us.
SI sections are not indexed - citations you put there will not count into any citation statistics
But we need these citations in order to attract the funding resources that allow us to do what we are doing

Therefore, if you are a happy ORCA user, please consider citing a few of the papers listed below in the main body of your paper

In addition to the list printed below, the program has created the file 2.bibtex that contains the list in bibtex format
You can import this file easily into all common literature databanks and citation aid programs


List of essential papers. We consider these as the minimum necessary citations

  1. Neese, F.
     Software update: the ORCA program system, version 6.0
     WIRES Comput. Molec. Sci. 2025 15(1), e70019
     doi.org/10.1002/wcms.7019

List of papers to cite with high priority. The work reported in these papers was absolutely
necessary for this run to complete.
Our perspective: the developers of density functionals and basis sets usually get cited in chemistry papers
Good! But without the algorithms to do something with them, the functionals or basis sets would not do anything.
Hence, in our opinion, the algorithm design and method developments papers are equally worthy of getting cited

  1. Neese, F.
     An improvement of the resolution of the identity approximation for the formation of the Coulomb matrix
     J. Comp. Chem. 2003 24(14), 1740-1747
     doi.org/10.1002/jcc.10318
  2. Grimme, S.
     Semiempirical GGA-type density functional constructed with a long-range dispersion correction
     J.Comput.Chem. 2006 27(15), 1787-1799
     doi.org/10.1002/jcc.20495
  3. Neese, F.
     The SHARK Integral Generation and Digestion System
     J. Comp. Chem. 2022 44(3), 381
     doi.org/10.1002/jcc.26942

List of suggested additional citations. These are papers that are important in the 'surrounding' of 
of this run, or papers that preceded the highly important papers. If you like your results we are grateful for a citation.

  1. Neese, F.
     The ORCA program system
     WIRES Comput. Molec. Sci. 2012 2(1), 73-78
     doi.org/10.1002/wcms.81
  2. Neese, F.
     Software update: the ORCA program system, version 4.0
     WIRES Comput. Molec. Sci. 2018 8(1), 1-6
     doi.org/10.1002/wcms.1327
  3. Neese, F.; Wennmohs, F.; Becker, U.; Riplinger, C.
     The ORCA quantum chemistry program package
     J. Chem. Phys. 2020 152(22), 224108
     doi.org/10.1063/5.0004608
  4. Neese, F.
     Software update: The ORCA program system—Version 5.0
     WIRES Comput. Molec. Sci. 2022 12(1), e1606
     doi.org/10.1002/wcms.1606

List of optional additional citations

  1. Neese, F.
     Approximate second-order SCF convergence for spin unrestricted wavefunctions
     Chem. Phys. Lett. 2000 325(1-3), 93-98
     doi.org/10.1016/s0009-2614(00)00662-x

Timings for individual modules:

Sum of individual times          ...       54.963 sec (=   0.916 min)
Startup calculation              ...        3.340 sec (=   0.056 min)   6.1 %
SCF iterations                   ...       33.146 sec (=   0.552 min)  60.3 %
Property calculations            ...        0.034 sec (=   0.001 min)   0.1 %
SCF Gradient evaluation          ...       18.422 sec (=   0.307 min)  33.5 %
Geometry relaxation              ...        0.021 sec (=   0.000 min)   0.0 %
                             ****ORCA TERMINATED NORMALLY****
TOTAL RUN TIME: 0 days 0 hours 0 minutes 55 seconds 198 msec
