
                                 *****************
                                 * O   R   C   A *
                                 *****************

                                            #,                                       
                                            ###                                      
                                            ####                                     
                                            #####                                    
                                            ######                                   
                                           ########,                                 
                                     ,,################,,,,,                         
                               ,,#################################,,                 
                          ,,##########################################,,             
                       ,#########################################, ''#####,          
                    ,#############################################,,   '####,        
                  ,##################################################,,,,####,       
                ,###########''''           ''''###############################       
              ,#####''   ,,,,##########,,,,          '''####'''          '####       
            ,##' ,,,,###########################,,,                        '##       
           ' ,,###''''                  '''############,,,                           
         ,,##''                                '''############,,,,        ,,,,,,###''
      ,#''                                            '''#######################'''  
     '                                                          ''''####''''         
             ,#######,   #######,   ,#######,      ##                                
            ,#'     '#,  ##    ##  ,#'     '#,    #''#        ,####,    ,#,          
            ##       ##  ##   ,#'  ##            #'  '#       #'       ,# #          
            ##       ##  #######   ##           ,######,      #####,      #          
            '#,     ,#'  ##    ##  '#,     ,#' ,#      #,     #,   #      #          
             '#######'   ##     ##  '#######'  #'      '#     '####' #    #          



                #########################################################
                #                        -***-                          #
                #          Department of theory and spectroscopy        #
                #                                                       #
                #                      Frank Neese                      #
                #                                                       #
                #     Directorship, Architecture, Infrastructure        #
                #                    SHARK, DRIVERS                     #
                #        Core code/Algorithms in most modules           #
                #                                                       #
                #        Max Planck Institute fuer Kohlenforschung      #
                #                Kaiser Wilhelm Platz 1                 #
                #                 D-45470 Muelheim/Ruhr                 #
                #                      Germany                          #
                #                                                       #
                #                  All rights reserved                  #
                #                        -***-                          #
                #########################################################


                         Program Version 6.1.0  -  RELEASE   -
                                (GIT: $679e74b$)
                          ($2025-06-10 18:02:51 +0200$)


 With contributions from (in alphabetic order):
[Max-Planck-Institut fuer Kohlenforschung]                               
  Daniel Aravena         : Magnetic Suceptibility                        
  Michael Atanasov       : Ab Initio Ligand Field Theory (pilot matlab implementation)
  Alexander A. Auer      : GIAO ZORA, VPT2 properties, NMR spectrum      
  Ute Becker             : All parallelization in ORCA, NUMFREQ, NUMCALC 
  Giovanni Bistoni       : ED, misc. LED, open-shell LED, HFLD           
  Dmytro Bykov           : pre 5.0 version of the SCF Hessian            
  Marcos Casanova-Páez   : Triplet and SCS-CIS(D). UHF-(DLPNO)-IP/EA/STEOM-CCSD. UHF-CVS-IP/STEOM-CCSD   
  Vijay G. Chilkuri      : MRCI spin determinant printing, contributions to CSF-ICE 
  Pauline Colinet        : FMM embedding                                 
  Dipayan Datta          : RHF DLPNO-CCSD density                        
  Achintya Kumar Dutta   : EOM-CC, STEOM-CC                              
  Nicolas Foglia         : Exact transition moments, OPA infrastructure, MCD improvements    
  Dmitry Ganyushin       : Spin-Orbit,Spin-Spin,Magnetic field MRCI      
  Miquel Garcia-Rates    : C-PCM and meta-GGA Hessian, CCSD/C-PCM, Gaussian charge scheme 
  Tiago L. C. Gouveia    : GS-ROHF, GS-ROCIS                             
  Yang Guo               : DLPNO-NEVPT2, F12-NEVPT2, CIM, IAO-localization        
  Andreas Hansen         : Spin unrestricted coupled pair/coupled cluster methods 
  Ingolf Harden          : AUTO-CI MPn and infrastructure                
  Benjamin Helmich-Paris : MC-RPA, TRAH-(SCF,CASSCF), AVAS, COSX integrals, SCF dyn. polar., MC-PDFT, srDFT 
  Lee Huntington         : MR-EOM, pCC                                   
  Robert Izsak           : Overlap fitted RIJCOSX, COSX-SCS-MP3, EOM     
  Riya Kayal             : Wick's Theorem for AUTO-CI, AUTO-CI UHF-CCSDT 
  Emily Kempfer          : AUTO-CI RHF CISDT and CCSDT, approximate NEVPT4
  Christian Kollmar      : KDIIS, OOCD, Brueckner-CCSD(T), CCSD density, CASPT2, CASPT2-K, improved NEVPT2 
  Axel Koslowski         : Symmetry handling                             
  Simone Kossmann        : meta-GGA functionals, TD-DFT gradient, OOMP2, (MP2 Hessian; deprecated post 5.0) 
  Lucas Lang             : DCDCAS, Hyperfine gauge corrections, ICE-SOC+SSC
  Marvin Lechner         : AUTO-CI (C++ implementation), FIC-MRCC        
  Spencer Leger          : CASSCF response                               
  Dagmar Lenk            : GEPOL surface, SMD, ORCA-2-JSON               
  Dimitrios Liakos       : Extrapolation schemes; Compound Job, Property file
  Dimitrios Manganas     : Further ROCIS development; embedding schemes. LFT, Crystal Embedding 
  Dimitrios Pantazis     : SARC Basis sets                               
  Anastasios Papadopoulos: AUTO-CI, single reference methods and gradients 
  Taras Petrenko         : pre 6.0 DFT Hessian and TD-DFT gradient,  ECA, NRVS 
  Petra Pikulova         : Analytic Raman intensities                    
  Peter Pinski           : DLPNO-MP2, DLPNO-MP2 Gradient                 
  Shashank Vittal Rao    : ES-AILFT, MagRelax                            
  Christoph Reimann      : Effective Core Potentials                     
  Marius Retegan         : Local ZFS, SOC                                
  Christoph Riplinger    : Optimizer, TS searches, QM/MM, DLPNO-CCSD(T), (RO)-DLPNO pert. Triples 
  Michael Roemelt        : Original ROCIS implementation, recursive CI coupling coefficients
  Masaaki Saitow         : Open-shell DLPNO-CCSD energy and density      
  Barbara Sandhoefer     : DKH picture change effects                    
  Yorick L. A. Schmerwitz: GMF and freeze-and-release deltaSCF, NEB S-IDPP initial path                    
  Kantharuban Sivalingam : CASSCF convergence/infrastructure, NEVPT2, NEVPT3, NEVPT4(SD), FIC-MRCI and CEPA variants
  Bernardo de Souza      : ESD, SOC TD-DFT                               
  Georgi L. Stoychev     : AutoAux, RI-MP2 NMR, DLPNO-MP2 response, X2C  
  Van Anh Tran           : RI-MP2 g-tensors                              
  Willem Van den Heuvel  : Paramagnetic NMR                              
  Zikuan Wang            : NOTCH, Electric field optimization            
  Frank Wennmohs         : Technical directorship and infrastructure     
  Hang Xu                : AUTO-CI-Response properties                   
                                                                         
[FACCTs GmbH]                                                            
  Markus Bursch, Nicolas Foglia, Miquel Garcia-Rates, Ingolf Harden, Hagen Neugebauer, Anastasios Papadopoulos, 
  Christoph Riplinger, Bernardo de Souza, Georgi L. Stoychev                                                    
                                                                 
  APM, various basis sets, CI-OPT, improved COSX, DLPNO-Multilevel,           
  DOCKER, DRACO, updates on ESD, Fragmentator, GOAT, IRC, LR-CPCM, L-BFGS, MBIS, meta-GGA TD-DFT gradient, ML-optimized integration grids, 
  MM, NACMEs, nearIR, NEB, NEB-TS, NL-DFT gradient (VV10), 2- and 3-layer-ONIOM, interface openCOSMO-RS, QMMM,   
  Crystal-QMMM, RESP, rigid body optimization, SF, symmetry and pop. for TD-DFT, various functionals, SOLVATOR                                   
                                                                         
[Other institutions]                                                     
  V. Asgeirsson          : NEB                                           
  Christoph Bannwarth    : sTDA-DFT, sTD-DFT, PBEh-3c, B97-3c, D3        
  Giovanni Bistoni       : ETS/NOCV, ADLD/ADEX, COVALED                  
  Martin Brehm           : Molecular dynamics                            
  Ronald Cardenas        : ETS/NOCV                                      
  Martina Colucci        : COVALED                                       
  Sebastian Ehlert       : rSCAN, r2SCAN, r2SCAN-3c, D4, dhf basis sets  
  Marvin Friede          : D4 for Fr, Ra, Ac-Lr                          
  Lars Goerigk           : TD-DFT with DH, B97 family of functionals     
  Stefan Grimme          : VdW corrections, initial TS optimization, DFT functionals, gCP, sTDA/sTD-DF 
  Waldemar Hujo          : DFT-NL                                        
  H. Jonsson             : NEB                                           
  Holger Kruse           : gCP                                           
  Marcel Mueller         : wB97X-3c, vDZP basis set                      
  Hagen Neugebauer       : wr2SCAN, Native XTB                           
  Gianluca Regni         : ADLD/ADEX                                     
  Tobias Risthaus        : pre 6.0 range-separated hybrid DFT and stability analysis
  Lukas Wittmann         : regularized MP2, r2SCAN double-hybrids, wr2SCAN        
                                                                         
We gratefully acknowledge several colleagues who have allowed us to      
interface, adapt or use parts of their codes:                            
  Ed Valeev, F. Pavosevic, A. Kumar             : LibInt (2-el integral package), F12 methods 
  Garnet Chan, S. Sharma, J. Yang, R. Olivares  : DMRG                   
  Ulf Ekstrom                                   : XCFun DFT Library      
  Mihaly Kallay                                 : mrcc  (arbitrary order and MRCC methods)
  Frank Weinhold                                : gennbo (NPA and NBO analysis)           
  Simon Mueller                                 : openCOSMO-RS                            
  Christopher J. Cramer and Donald G. Truhlar   : smd solvation model                     
  S Lehtola, MJT Oliveira, MAL Marques          : LibXC Library                           
  Liviu Ungur et al                             : ANISO software                          


 Your calculation uses the libint2 library for the computation of 2-el integrals
 For citations please refer to: http://libint.valeyev.net

 Your ORCA version has been built with support for libXC version: 7.0.0
 For citations please refer to: https://libxc.gitlab.io

 This ORCA versions uses:
   CBLAS   interface :  Fast vector & matrix operations
   LAPACKE interface :  Fast linear algebra routines
   SCALAPACK package :  Parallel linear algebra routines
   Shared memory     :  Shared parallel matrices
   BLAS/LAPACK       :  OpenBLAS 0.3.29  USE64BITINT DYNAMIC_ARCH NO_AFFINITY Haswell SINGLE_THREADED
        Core in use  :  Haswell
   Copyright (c) 2011-2014, The OpenBLAS Project


  ***********************************
  * Starting time: Sat Aug 16 14:36:00 2025
  * Host name:     CHEMLAB02
  * Process ID:    1800192
  * Working dir.:  /home/vivek/mm-project/vivek/xtb-goat/xtb-goat/l
  ***********************************



***************************************
The coordinates will be read from file: l-input-coordinates.xyz
***************************************


Your calculation utilizes the semiempirical GFN2-xTB method
Please cite in your paper:
Bannwarth, C.; Ehlert S.; Grimme, S. J. Chem. Theory Comput. 2019, 15, 1652.
   

================================================================================

================================================================================
                                        WARNINGS
                       Please study these warnings very carefully!
================================================================================


================================================================================
 STARTING AUTOMATIC FRAGMENTATION: 
================================================================================

WARNING: Geometry Optimization
  ===> : Switching off AutoStart
         For restart on a previous wavefunction, please use MOREAD

WARNING: Found dipole moment calculation with XTB calculation
  ===> : Switching off dipole moment calculation


================================================================================
                                       INPUT FILE
================================================================================
NAME = l.inp
|  1> ! xtb goat
|  2> 
|  3> * xyzfile 0 1 l-input-coordinates.xyz
|  4> 
|  5>                          ****END OF INPUT****
================================================================================

                       *****************************
                       * Geometry Optimization Run *
                       *****************************


                       *********************************
                       *              GOAT             *
                       * Global Optimization Algorithm *
                       *********************************

Geometry optimization settings:
Update method            Update   .... BFGS
Choice of coordinates    CoordSys .... (2022) Redundant Internals
Initial Hessian          InHess   .... Almloef's Model
Max. no of cycles        MaxIter  .... 66

Convergence Tolerances:
Energy Change            TolE     ....  5.0000e-06 Eh
Max. Gradient            TolMAXG  ....  3.0000e-04 Eh/bohr
RMS Gradient             TolRMSG  ....  1.0000e-04 Eh/bohr
Max. Displacement        TolMAXD  ....  4.0000e-03 bohr
RMS Displacement         TolRMSD  ....  2.0000e-03 bohr
Strict Convergence                .... True

------------------------------------------------------------------------------
                        ORCA OPTIMIZATION COORDINATE SETUP
------------------------------------------------------------------------------

The optimization will be done in redundant internal coordinates (2022)
Making redundant internal coordinates   ...  (2022 redundants) done
Evaluating the initial hessian          ...  (Almloef) done
Evaluating the coordinates              ...  done
Calculating the B-matrix                .... done
Calculating the G-matrix                .... done
The number of degrees of freedom        ....   96

    -----------------------------------------------------------------
                    Redundant Internal Coordinates


    -----------------------------------------------------------------
         Definition                    Initial Value    Approx d2E/dq
    -----------------------------------------------------------------
      1. B(C   1,C   0)                  1.5453         0.353125   
      2. B(C   4,C   0)                  1.5402         0.359784   
      3. B(H   5,C   0)                  1.0961         0.352101   
      4. B(N   7,H   3)                  1.0162         0.423003   
      5. B(N   7,C   0)                  1.4722         0.413743   
      6. B(N   7,H   2)                  1.0152         0.424450   
      7. B(C   8,C   4)                  1.5456         0.352712   
      8. B(H   9,C   4)                  1.0988         0.348669   
      9. B(H  10,C   4)                  1.0987         0.348748   
     10. B(C  11,C   8)                  1.5293         0.374566   
     11. B(H  12,C  11)                  1.0922         0.357266   
     12. B(C  13,C   8)                  1.5335         0.368807   
     13. B(C  13,H   6)                  1.0954         0.353046   
     14. B(H  14,C  11)                  1.0950         0.353558   
     15. B(H  15,C  11)                  1.0954         0.352980   
     16. B(H  16,C   8)                  1.0972         0.350706   
     17. B(H  17,C  13)                  1.0955         0.352844   
     18. B(H  18,C  13)                  1.0954         0.352987   
     19. B(O  19,C   1)                  1.3554         0.635334   
     20. B(H  20,N   7)                  2.0160         0.010746   
     21. B(H  20,O  19)                  0.9742         0.493588   
     22. B(O  21,C   1)                  1.2222         1.036552   
     23. A(C   4,C   0,N   7)          111.4850         0.365096   
     24. A(C   1,C   0,H   5)          106.1260         0.320161   
     25. A(H   5,C   0,N   7)          107.7706         0.326629   
     26. A(C   4,C   0,H   5)          109.7663         0.321141   
     27. A(C   1,C   0,N   7)          111.9235         0.363931   
     28. A(C   1,C   0,C   4)          109.5993         0.357582   
     29. A(C   0,C   1,O  21)          124.5813         0.427455   
     30. A(C   0,C   1,O  19)          113.6745         0.391959   
     31. A(O  19,C   1,O  21)          121.7355         0.472394   
     32. A(H   9,C   4,H  10)          105.2727         0.287924   
     33. A(C   0,C   4,H  10)          107.9201         0.320638   
     34. A(C   8,C   4,H   9)          110.0819         0.319588   
     35. A(C   0,C   4,H   9)          110.1256         0.320627   
     36. A(C   0,C   4,C   8)          115.1031         0.357510   
     37. A(C   8,C   4,H  10)          107.8241         0.319600   
     38. A(C   0,N   7,H   2)          114.7469         0.334006   
     39. A(H   2,N   7,H   3)          115.2133         0.301232   
     40. A(C   0,N   7,H   3)          114.2593         0.333817   
     41. A(C  13,C   8,H  16)          107.4107         0.322236   
     42. A(C   4,C   8,H  16)          108.9378         0.319892   
     43. A(C  11,C   8,H  16)          108.4951         0.323055   
     44. A(C  11,C   8,C  13)          108.9615         0.362719   
     45. A(C   4,C   8,C  13)          109.5640         0.359020   
     46. A(C   4,C   8,C  11)          113.3000         0.359969   
     47. A(H  14,C  11,H  15)          107.8008         0.289097   
     48. A(H  12,C  11,H  15)          106.6727         0.289570   
     49. A(C   8,C  11,H  15)          110.7326         0.323398   
     50. A(H  12,C  11,H  14)          108.4237         0.289644   
     51. A(C   8,C  11,H  14)          111.2957         0.323485   
     52. A(C   8,C  11,H  12)          111.7181         0.324039   
     53. A(H   6,C  13,H  18)          108.1131         0.289032   
     54. A(C   8,C  13,H  17)          110.8673         0.322557   
     55. A(H   6,C  13,H  17)          108.1155         0.289014   
     56. A(H   6,C  13,C   8)          111.2950         0.322587   
     57. A(H  17,C  13,H  18)          107.4450         0.289006   
     58. A(C   8,C  13,H  18)          110.8593         0.322578   
     59. A(C   1,O  19,H  20)          109.7759         0.368365   
     60. D(O  19,C   1,C   0,H   5)   -110.3705         0.010000   
     61. D(O  19,C   1,C   0,N   7)      6.9418         0.010000   
     62. D(O  21,C   1,C   0,H   5)     68.5699         0.010000   
     63. D(O  19,C   1,C   0,C   4)    131.1636         0.010000   
     64. D(O  21,C   1,C   0,C   4)    -49.8961         0.010000   
     65. D(C   8,C   4,C   0,C   1)    164.2657         0.010386   
     66. D(H   9,C   4,C   0,H   5)    173.2182         0.010386   
     67. D(H   9,C   4,C   0,C   1)    -70.5982         0.010386   
     68. D(H   9,C   4,C   0,N   7)     53.8790         0.010386   
     69. D(C   8,C   4,C   0,H   5)     48.0821         0.010386   
     70. D(C   8,C   4,C   0,N   7)    -71.2571         0.010386   
     71. D(H   3,N   7,C   0,C   1)     64.3723         0.015636   
     72. D(H   2,N   7,C   0,C   4)    164.9717         0.015636   
     73. D(H   2,N   7,C   0,C   1)    -71.8664         0.015636   
     74. D(H   2,N   7,C   0,H   5)     44.4544         0.015636   
     75. D(H   3,N   7,C   0,H   5)   -179.3069         0.015636   
     76. D(H   3,N   7,C   0,C   4)    -58.7897         0.015636   
     77. D(C  13,C   8,C   4,H   9)     73.5120         0.010011   
     78. D(C  13,C   8,C   4,C   0)   -161.3291         0.010011   
     79. D(C  11,C   8,C   4,H  10)   -162.7331         0.010011   
     80. D(C  11,C   8,C   4,H   9)    -48.3929         0.010011   
     81. D(C  13,C   8,C   4,H  10)    -40.8282         0.010011   
     82. D(C  11,C   8,C   4,C   0)     76.7660         0.010011   
     83. D(H  14,C  11,C   8,H  16)    174.1290         0.011199   
     84. D(H  14,C  11,C   8,C  13)    -69.2206         0.011199   
     85. D(H  14,C  11,C   8,C   4)     53.0204         0.011199   
     86. D(H  12,C  11,C   8,H  16)     52.7712         0.011199   
     87. D(H  12,C  11,C   8,C  13)    169.4216         0.011199   
     88. D(H  12,C  11,C   8,C   4)    -68.3375         0.011199   
     89. D(H   6,C  13,C   8,C  11)     63.1633         0.010878   
     90. D(H   6,C  13,C   8,C   4)    -61.3060         0.010878   
     91. D(H  17,C  13,C   8,H  16)    -59.1166         0.010878   
     92. D(H  17,C  13,C   8,C  11)   -176.4567         0.010878   
     93. D(H  17,C  13,C   8,C   4)     59.0740         0.010878   
     94. D(H   6,C  13,C   8,H  16)   -179.4966         0.010878   
     95. D(H  20,O  19,C   1,O  21)   -179.9943         0.029723   
     96. D(H  20,O  19,C   1,C   0)     -1.0201         0.029723   
    -----------------------------------------------------------------

Number of atoms                         .... 22
Number of degrees of freedom            .... 96


         *************************************************************
         *                GEOMETRY OPTIMIZATION CYCLE   1            *
         *************************************************************
---------------------------------
CARTESIAN COORDINATES (ANGSTROEM)
---------------------------------
  C    -9.036809    6.403300   -1.567479
  C    -7.806294    7.216336   -2.028817
  H   -10.550458    7.872067   -1.535302
  H   -10.418274    7.032455   -3.025226
  C    -8.908383    4.948795   -2.057640
  H    -9.024419    6.427662   -0.471705
  H    -9.294016    2.258740   -2.646980
  N   -10.298919    7.014082   -2.016252
  C    -9.851394    3.938096   -1.366098
  H    -9.041160    4.903979   -3.147448
  H    -7.874957    4.621610   -1.878292
  C   -11.294100    4.016193   -1.867291
  H   -11.775299    4.950371   -1.569714
  C    -9.325223    2.513999   -1.582209
  H   -11.341044    3.934950   -2.958254
  H   -11.895889    3.204197   -1.444806
  H    -9.847451    4.129117   -0.285666
  H    -8.313426    2.406012   -1.176233
  H    -9.962516    1.781535   -1.074939
  O    -8.122665    8.395370   -2.617906
  H    -9.090860    8.497677   -2.651562
  O    -6.645636    6.866266   -1.873592

----------------------------
CARTESIAN COORDINATES (A.U.)
----------------------------
  NO LB    ZA    FRAG    MASS        X           Y           Z
   0 C   6.0000    1    12.011  -17.077094   12.100483   -2.962106
   1 C   6.0000    1    12.011  -14.751758   13.636899   -3.833909
   2 H   1.0000    1     1.008  -19.937476   14.876051   -2.901300
   3 H   1.0000    1     1.008  -19.687685   13.289414   -5.716849
   4 C   6.0000    1    12.011  -16.834404    9.351867   -3.888376
   5 H   1.0000    1     1.008  -17.053680   12.146521   -0.891393
   6 H   1.0000    1     1.008  -17.563145    4.268400   -5.002067
   7 N   7.0000    1    14.007  -19.462136   13.254694   -3.810164
   8 C   6.0000    1    12.011  -18.616437    7.441923   -2.581551
   9 H   1.0000    1     1.008  -17.085316    9.267177   -5.947815
  10 H   1.0000    1     1.008  -14.881512    8.733577   -3.549457
  11 C   6.0000    1    12.011  -21.342756    7.589505   -3.528669
  12 H   1.0000    1     1.008  -22.252090    9.354845   -2.966330
  13 C   6.0000    1    12.011  -17.622118    4.750770   -2.989942
  14 H   1.0000    1     1.008  -21.431467    7.435978   -5.590290
  15 H   1.0000    1     1.008  -22.479972    6.055055   -2.730288
  16 H   1.0000    1     1.008  -18.608986    7.802900   -0.539831
  17 H   1.0000    1     1.008  -15.710098    4.546704   -2.222758
  18 H   1.0000    1     1.008  -18.826427    3.366613   -2.031340
  19 O   8.0000    1    15.999  -15.349612   15.864950   -4.947125
  20 H   1.0000    1     1.008  -17.179236   16.058282   -5.010726
  21 O   8.0000    1    15.999  -12.558432   12.975362   -3.540576

      -----------------------------------------------------------      
     |                   =====================                   |     
     |                           x T B                           |     
     |                   =====================                   |     
     |                         S. Grimme                         |     
     |          Mulliken Center for Theoretical Chemistry        |     
     |                    University of Bonn                     |     
      -----------------------------------------------------------      

   * xtb version 6.7.1 (edcfbbe) compiled by 'albert@albert-system' on 2024-07-22

   xtb is free software: you can redistribute it and/or modify it under
   the terms of the GNU Lesser General Public License as published by
   the Free Software Foundation, either version 3 of the License, or
   (at your option) any later version.
   
   xtb is distributed in the hope that it will be useful,
   but WITHOUT ANY WARRANTY; without even the implied warranty of
   MERCHANTABILITY or FITNESS FOR A PARTICULAR PURPOSE.  See the
   GNU Lesser General Public License for more details.
   
   Cite this work as:
   * C. Bannwarth, E. Caldeweyher, S. Ehlert, A. Hansen, P. Pracht,
     J. Seibert, S. Spicher, S. Grimme, WIREs Comput. Mol. Sci., 2020, 11,
     e01493. DOI: 10.1002/wcms.1493
   
   for GFN2-xTB:
   * C. Bannwarth, S. Ehlert and S. Grimme., J. Chem. Theory Comput., 2019,
     15, 1652-1671. DOI: 10.1021/acs.jctc.8b01176
   for GFN1-xTB:
   * S. Grimme, C. Bannwarth, P. Shushkov, J. Chem. Theory Comput., 2017,
     13, 1989-2009. DOI: 10.1021/acs.jctc.7b00118
   for GFN0-xTB:
   * P. Pracht, E. Caldeweyher, S. Ehlert, S. Grimme, ChemRxiv, 2019, preprint.
     DOI: 10.26434/chemrxiv.8326202.v1
   for GFN-FF:
   * S. Spicher and S. Grimme, Angew. Chem. Int. Ed., 2020, 59, 15665-15673.
     DOI: 10.1002/anie.202004239
   
   for ALPB and GBSA implicit solvation:
   * S. Ehlert, M. Stahn, S. Spicher, S. Grimme, J. Chem. Theory Comput.,
     2021, 17, 4250-4261. DOI: 10.1021/acs.jctc.1c00471
   
   for ddCOSMO and CPCM-X implicit solvation:
   * M. Stahn, S. Ehlert, S. Grimme, J. Phys. Chem. A,
     2023, XX, XXXX-XXXX. DOI: 10.1021/acs.jpca.3c04382
   
   for DFT-D4:
   * E. Caldeweyher, C. Bannwarth and S. Grimme, J. Chem. Phys., 2017,
     147, 034112. DOI: 10.1063/1.4993215
   * E. Caldeweyher, S. Ehlert, A. Hansen, H. Neugebauer, S. Spicher,
     C. Bannwarth and S. Grimme, J. Chem. Phys., 2019, 150, 154122.
     DOI: 10.1063/1.5090222
   * E. Caldeweyher, J.-M. Mewes, S. Ehlert and S. Grimme, Phys. Chem. Chem. Phys.
     2020, 22, 8499-8512. DOI: 10.1039/D0CP00502A
   
   for sTDA-xTB:
   * S. Grimme and C. Bannwarth, J. Chem. Phys., 2016, 145, 054103.
     DOI: 10.1063/1.4959605
   
   in the mass-spec context:
   * V. Asgeirsson, C. Bauer and S. Grimme, Chem. Sci., 2017, 8, 4879.
     DOI: 10.1039/c7sc00601b
   * J. Koopman and S. Grimme, ACS Omega 2019, 4, 12, 15120-15133.
     DOI: 10.1021/acsomega.9b02011
   
   for metadynamics refer to:
   * S. Grimme, J. Chem. Theory Comput., 2019, 155, 2847-2862
     DOI: 10.1021/acs.jctc.9b00143
   
   for SPH calculations refer to:
   * S. Spicher and S. Grimme, J. Chem. Theory Comput., 2021, 17, 1701-1714
     DOI: 10.1021/acs.jctc.0c01306
   
   for ONIOM refer to:
   * C. Plett, A. Katbashev, S. Ehlert, S. Grimme, M. Bursch,
     Phys. Chem. Chem. Phys., 2023, 25, 17860-17868. DOI: 10.1039/D3CP02178E
   
   for DIPRO refer to:
   * J. Kohn, N. Gildemeister, S. Grimme, D. Fazzi, A. Hansen,
     J. Chem. Phys., 2023, just accepted.
   
   for PTB refer to:
   * S. Grimme, M. Mueller, A. Hansen, J. Chem. Phys., 2023, 158, 124111.
     DOI: 10.1063/5.0137838
   
   with help from (in alphabetical order)
   P. Atkinson, C. Bannwarth, F. Bohle, G. Brandenburg, E. Caldeweyher
   M. Checinski, S. Dohm, S. Ehlert, S. Ehrlich, I. Gerasimov, C. Hölzer
   A. Katbashev, J. Kohn, J. Koopman, C. Lavigne, S. Lehtola, F. März, M. Müller,
   F. Musil, H. Neugebauer, J. Pisarek, C. Plett, P. Pracht, F. Pultar,
   J. Seibert, P. Shushkov, S. Spicher, M. Stahn, M. Steiner, T. Strunk,
   J. Stückrath, T. Rose, and J. Unsleber
   
 * started run on 2025/08/16 at 14:36:01.010     
   ID    Z sym.   atoms
    1    6 C      1, 2, 5, 9, 12, 14
    2    1 H      3, 4, 6, 7, 10, 11, 13, 15-19, 21
    3    7 N      8
    4    8 O      20, 22

           -------------------------------------------------
          |                Calculation Setup                |
           -------------------------------------------------

          program call               : otool_xtb l_XTB.xyz --grad -c 0 -u 0 -P 1 --namespace l --input l_XTB.input.tmp --acc 0.200000
          calculation namespace      : l
          coordinate file            : l_XTB.xyz
          omp threads                :                     1


           -------------------------------------------------
          |                 G F N 2 - x T B                 |
           -------------------------------------------------

        Reference                      10.1021/acs.jctc.8b01176
      * Hamiltonian:
        H0-scaling (s, p, d)           1.850000    2.230000    2.230000
        zeta-weighting                 0.500000
      * Dispersion:
        s8                             2.700000
        a1                             0.520000
        a2                             5.000000
        s9                             5.000000
      * Repulsion:
        kExp                           1.500000    1.000000
        rExp                           1.000000
      * Coulomb:
        alpha                          2.000000
        third order                    shell-resolved
        anisotropic                    true
        a3                             3.000000
        a5                             4.000000
        cn-shift                       1.200000
        cn-exp                         4.000000
        max-rad                        5.000000


          ...................................................
          :                      SETUP                      :
          :.................................................:
          :  # basis functions                  49          :
          :  # atomic orbitals                  49          :
          :  # shells                           31          :
          :  # electrons                        54          :
          :  max. iterations                   250          :
          :  Hamiltonian                  GFN2-xTB          :
          :  restarted?                      false          :
          :  GBSA solvation                  false          :
          :  PC potential                    false          :
          :  electronic temp.          300.0000000     K    :
          :  accuracy                    0.2000000          :
          :  -> integral cutoff          0.3198970E+02      :
          :  -> integral neglect         0.2000000E-08      :
          :  -> SCF convergence          0.2000000E-06 Eh   :
          :  -> wf. convergence          0.2000000E-04 e    :
          :  Broyden damping             0.4000000          :
          :  net charge                          0          :
          :  unpaired electrons                  0          :
          ...................................................

 iter      E             dE          RMSdq      gap      omega  full diag
   1    -30.7869476 -0.307869E+02  0.366E+00    3.85       0.0  T
   2    -30.8455238 -0.585761E-01  0.192E+00    3.78       1.0  T
   3    -30.8486756 -0.315182E-02  0.108E+00    4.12       1.0  T
   4    -30.8518429 -0.316735E-02  0.214E-01    3.80       1.0  T
   5    -30.8522155 -0.372576E-03  0.832E-02    3.82       1.0  T
   6    -30.8522270 -0.115198E-04  0.320E-02    3.82       1.0  T
   7    -30.8522315 -0.451624E-05  0.730E-03    3.82       2.9  T
   8    -30.8522317 -0.119563E-06  0.298E-03    3.82       7.1  T
   9    -30.8522317 -0.139656E-07  0.721E-04    3.82      29.6  T
  10    -30.8522317 -0.846324E-09  0.350E-04    3.82      60.9  T
  11    -30.8522317 -0.274138E-09  0.891E-05    3.82     239.2  T
  12    -30.8522317 -0.334666E-10  0.411E-05    3.82     518.6  T

   *** convergence criteria satisfied after 12 iterations ***

         #    Occupation            Energy/Eh            Energy/eV
      -------------------------------------------------------------
         1        2.0000           -0.7448144             -20.2674
       ...           ...                  ...                  ...
        21        2.0000           -0.4615696             -12.5599
        22        2.0000           -0.4524205             -12.3110
        23        2.0000           -0.4415876             -12.0162
        24        2.0000           -0.4378612             -11.9148
        25        2.0000           -0.4341439             -11.8137
        26        2.0000           -0.4283800             -11.6568
        27        2.0000           -0.3850583             -10.4780 (HOMO)
        28                         -0.2447216              -6.6592 (LUMO)
        29                         -0.0298725              -0.8129
        30                          0.0240367               0.6541
        31                          0.0733235               1.9952
        32                          0.0755356               2.0554
       ...                                ...                  ...
        49                          0.5630697              15.3219
      -------------------------------------------------------------
                  HL-Gap            0.1403367 Eh            3.8188 eV
             Fermi-level           -0.3148900 Eh           -8.5686 eV

 SCC (total)                   0 d,  0 h,  0 min,  0.032 sec
 SCC setup                      ...        0 min,  0.000 sec (  0.271%)
 Dispersion                     ...        0 min,  0.000 sec (  0.230%)
 classical contributions        ...        0 min,  0.000 sec (  0.044%)
 integral evaluation            ...        0 min,  0.001 sec (  2.957%)
 iterations                     ...        0 min,  0.025 sec ( 80.203%)
 molecular gradient             ...        0 min,  0.005 sec ( 15.974%)
 printout                       ...        0 min,  0.000 sec (  0.290%)

         :::::::::::::::::::::::::::::::::::::::::::::::::::::
         ::                     SUMMARY                     ::
         :::::::::::::::::::::::::::::::::::::::::::::::::::::
         :: total energy             -30.522875030557 Eh    ::
         :: gradient norm              0.060369257967 Eh/a0 ::
         :: HOMO-LUMO gap              3.818755202437 eV    ::
         ::.................................................::
         :: SCC energy               -30.852160829774 Eh    ::
         :: -> isotropic ES            0.061653485270 Eh    ::
         :: -> anisotropic ES          0.009256408001 Eh    ::
         :: -> anisotropic XC          0.011575998347 Eh    ::
         :: -> dispersion             -0.014825492778 Eh    ::
         :: repulsion energy           0.329285799218 Eh    ::
         :: add. restraining           0.000000000000 Eh    ::
         :: total charge              -0.000000000000 e     ::
         :::::::::::::::::::::::::::::::::::::::::::::::::::::


Property printout bound to 'properties.out'

           -------------------------------------------------
          | TOTAL ENERGY              -30.522875030557 Eh   |
          | GRADIENT NORM               0.060369257967 Eh/α |
          | HOMO-LUMO GAP               3.818755202437 eV   |
           -------------------------------------------------

------------------------------------------------------------------------
 * finished run on 2025/08/16 at 14:36:01.050     
------------------------------------------------------------------------
 total:
 * wall-time:     0 d,  0 h,  0 min,  0.040 sec
 *  cpu-time:     0 d,  0 h,  0 min,  0.017 sec
 * ratio c/w:     0.432 speedup
 SCF:
 * wall-time:     0 d,  0 h,  0 min,  0.032 sec
 *  cpu-time:     0 d,  0 h,  0 min,  0.011 sec
 * ratio c/w:     0.355 speedup


-------------------------   --------------------
FINAL SINGLE POINT ENERGY       -30.522875030560
-------------------------   --------------------


-------------
DIPOLE MOMENT
-------------
                                X             Y             Z
Total Dipole Moment    :     -1.80200       0.13500      -0.09800
                        -----------------------------------------
Magnitude (a.u.)       :      1.80971
Magnitude (Debye)      :      4.59991


------------------
CARTESIAN GRADIENT
------------------

   1   C   :    0.008854334   -0.005004622    0.010352321
   2   C   :   -0.030281220    0.000399162   -0.000317027
   3   H   :   -0.001557434    0.004435967    0.004545318
   4   H   :   -0.001261454   -0.001086869   -0.006632440
   5   C   :   -0.001690124    0.004446463   -0.000525992
   6   H   :    0.001120864    0.001571380    0.000790184
   7   H   :    0.000646943   -0.002183058   -0.004500657
   8   N   :   -0.005907160    0.008148036   -0.006323662
   9   C   :   -0.000149443    0.001858818    0.002476233
  10   H   :    0.003428090   -0.002036971   -0.004170389
  11   H   :    0.002998419   -0.004124644   -0.002161076
  12   C   :    0.005591094   -0.002167109    0.000559481
  13   H   :   -0.004240602    0.000859513    0.002180301
  14   C   :   -0.003547854    0.003217877    0.000018994
  15   H   :   -0.001555515   -0.000186684   -0.004701774
  16   H   :   -0.004319189   -0.001988586    0.001467038
  17   H   :   -0.000430749   -0.001472450    0.001920921
  18   H   :    0.003984945   -0.001041254    0.002152244
  19   H   :   -0.001885087   -0.004171097    0.002515524
  20   O   :   -0.010253936    0.010719418   -0.005071516
  21   H   :    0.000677697    0.000604331    0.000215273
  22   O   :    0.039777381   -0.010797622    0.005210699

Difference to translation invariance:
           :    0.0000000000    0.0000000000    0.0000000000

Difference to rotation invariance:
           :   -0.0000000084   -0.0000001659   -0.0000002200

Norm of the Cartesian gradient     ...    0.0603692580
RMS gradient                       ...    0.0074309420
MAX gradient                       ...    0.0397773812
------------------------------------------------------------------------------
                         ORCA GEOMETRY RELAXATION STEP
------------------------------------------------------------------------------

Reading the OPT-File                    .... done
Getting information on internals        .... done
Copying old internal coords+grads       .... done
Making the new internal coordinates     .... (2022 redundants) done
Validating the new internal coordinates .... (2022 redundants) done
Calculating the B-matrix                .... done
Calculating the G,G- and P matrices     .... done
Transforming gradient to internals      .... done
Projecting the internal gradient        .... done
Number of atoms                         ....  22
Number of internal coordinates          ....  96
Current Energy                          ....   -30.522875031 Eh
Current gradient norm                   ....     0.060369258 Eh/bohr
Maximum allowed component of the step   ....  0.300
Current trust radius                    ....  0.300
Evaluating the initial hessian          ....  (Almloef) done
Projecting the Hessian                  .... done
Forming the augmented Hessian           .... done
Diagonalizing the augmented Hessian     .... done
Last element of RFO vector              ....  0.980197261
Lowest eigenvalues of augmented Hessian:
 -0.005830686  0.010010771  0.010065524  0.010386114  0.010877837
Length of the computed step             ....  0.202024192
The final length of the internal step   ....  0.202024192
Converting the step to Cartesian space:
 Initial RMS(Int)=    0.0206190077
Transforming coordinates:
 Iter   0:  RMS(Cart)=    0.0557368541 RMS(Int)=    0.6387945789
done
Storing new coordinates                 .... done

                                .--------------------.
          ----------------------|Geometry convergence|-------------------------
          Item                value                   Tolerance       Converged
          ---------------------------------------------------------------------
          RMS gradient        0.0055761647            0.0001000000      NO
          MAX gradient        0.0415289820            0.0003000000      NO
          RMS step            0.0206190077            0.0020000000      NO
          MAX step            0.1034840240            0.0040000000      NO
          -------------------------------------------------------------------------
          ........................................................
          Max(Bonds)      0.0548      Max(Angles)    1.89
          Max(Dihed)        2.74      Max(Improp)    0.00
          ---------------------------------------------------------------------

    ---------------------------------------------------------------------------
                         Redundant Internal Coordinates
                            (Angstroem and degrees)

        Definition                    Value    dE/dq     Step     New-Value
    ----------------------------------------------------------------------------
     1. B(C   1,C   0)                1.5453  0.003424 -0.0030    1.5423   
     2. B(C   4,C   0)                1.5402  0.009273 -0.0134    1.5268   
     3. B(H   5,C   0)                1.0961  0.000838 -0.0012    1.0949   
     4. B(N   7,H   3)                1.0162  0.006714 -0.0083    1.0079   
     5. B(N   7,C   0)                1.4722  0.015168 -0.0189    1.4533   
     6. B(N   7,H   2)                1.0152  0.006288 -0.0077    1.0075   
     7. B(C   8,C   4)                1.5456  0.010189 -0.0150    1.5306   
     8. B(H   9,C   4)                1.0988  0.003805 -0.0057    1.0931   
     9. B(H  10,C   4)                1.0987  0.003696 -0.0055    1.0932   
    10. B(C  11,C   8)                1.5293  0.004252 -0.0059    1.5234   
    11. B(H  12,C  11)                1.0922  0.003198 -0.0047    1.0875   
    12. B(C  13,C   8)                1.5335  0.003578 -0.0051    1.5284   
    13. B(C  13,H   6)                1.0954  0.004902 -0.0072    1.0882   
    14. B(H  14,C  11)                1.0950  0.004765 -0.0070    1.0880   
    15. B(H  15,C  11)                1.0954  0.004413 -0.0065    1.0889   
    16. B(H  16,C   8)                1.0972  0.001634 -0.0024    1.0948   
    17. B(H  17,C  13)                1.0955  0.004581 -0.0068    1.0888   
    18. B(H  18,C  13)                1.0954  0.005051 -0.0074    1.0880   
    19. B(O  19,C   1)                1.3554  0.016198 -0.0126    1.3428   
    20. B(H  20,N   7)                2.0160 -0.003142  0.0548    2.0707   
    21. B(H  20,O  19)                0.9742 -0.002212  0.0016    0.9757   
    22. B(O  21,C   1)                1.2222  0.041529 -0.0211    1.2011   
    23. A(C   4,C   0,N   7)          111.48  0.001401   -0.39    111.10   
    24. A(C   1,C   0,H   5)          106.13 -0.000224    0.09    106.22   
    25. A(H   5,C   0,N   7)          107.77  0.001436   -0.40    107.37   
    26. A(C   4,C   0,H   5)          109.77 -0.000494   -0.48    109.29   
    27. A(C   1,C   0,N   7)          111.92 -0.005638    1.89    113.81   
    28. A(C   1,C   0,C   4)          109.60  0.003430   -0.72    108.88   
    29. A(C   0,C   1,O  21)          124.58  0.003117   -0.67    123.92   
    30. A(C   0,C   1,O  19)          113.67 -0.003794    1.00    114.67   
    31. A(O  19,C   1,O  21)          121.74  0.000663   -0.31    121.43   
    32. A(H   9,C   4,H  10)          105.27 -0.002294    1.29    106.56   
    33. A(C   0,C   4,H  10)          107.92  0.001326   -0.26    107.66   
    34. A(C   8,C   4,H   9)          110.08 -0.000504   -0.22    109.86   
    35. A(C   0,C   4,H   9)          110.13  0.000376   -0.51    109.62   
    36. A(C   0,C   4,C   8)          115.10  0.003123   -0.85    114.25   
    37. A(C   8,C   4,H  10)          107.82 -0.002551    0.79    108.61   
    38. A(C   0,N   7,H   2)          114.75 -0.001006   -0.04    114.71   
    39. A(H   2,N   7,H   3)          115.21  0.001078   -0.53    114.69   
    40. A(C   0,N   7,H   3)          114.26  0.000552   -0.30    113.95   
    41. A(C  13,C   8,H  16)          107.41 -0.000874    0.57    107.98   
    42. A(C   4,C   8,H  16)          108.94 -0.000122   -0.33    108.61   
    43. A(C  11,C   8,H  16)          108.50 -0.000077    0.14    108.64   
    44. A(C  11,C   8,C  13)          108.96 -0.003272    0.84    109.80   
    45. A(C   4,C   8,C  13)          109.56 -0.000312   -0.01    109.56   
    46. A(C   4,C   8,C  11)          113.30  0.004408   -1.14    112.17   
    47. A(H  14,C  11,H  15)          107.80 -0.001139    0.32    108.12   
    48. A(H  12,C  11,H  15)          106.67 -0.003609    0.80    107.47   
    49. A(C   8,C  11,H  15)          110.73  0.001769   -0.21    110.52   
    50. A(H  12,C  11,H  14)          108.42 -0.001201   -0.02    108.40   
    51. A(C   8,C  11,H  14)          111.30  0.001561   -0.35    110.95   
    52. A(C   8,C  11,H  12)          111.72  0.002248   -0.47    111.25   
    53. A(H   6,C  13,H  18)          108.11 -0.000290    0.06    108.17   
    54. A(C   8,C  13,H  17)          110.87 -0.000467    0.07    110.93   
    55. A(H   6,C  13,H  17)          108.12 -0.000673    0.09    108.21   
    56. A(H   6,C  13,C   8)          111.30  0.001941   -0.35    110.94   
    57. A(H  17,C  13,H  18)          107.44 -0.001913    0.38    107.82   
    58. A(C   8,C  13,H  18)          110.86  0.001231   -0.21    110.65   
    59. A(C   1,O  19,H  20)          109.78  0.005917   -0.56    109.22   
    60. D(O  19,C   1,C   0,H   5)   -110.37  0.001402   -2.10   -112.47   
    61. D(O  19,C   1,C   0,N   7)      6.94 -0.000012   -1.52      5.42   
    62. D(O  21,C   1,C   0,H   5)     68.57  0.000561   -0.49     68.08   
    63. D(O  19,C   1,C   0,C   4)    131.16  0.000321   -1.21    129.95   
    64. D(O  21,C   1,C   0,C   4)    -49.90 -0.000519    0.40    -49.50   
    65. D(C   8,C   4,C   0,C   1)    164.27  0.000723   -0.12    164.15   
    66. D(H   9,C   4,C   0,H   5)    173.22  0.001363   -0.93    172.29   
    67. D(H   9,C   4,C   0,C   1)    -70.60  0.002784   -1.50    -72.10   
    68. D(H   9,C   4,C   0,N   7)     53.88 -0.000994    0.13     54.01   
    69. D(C   8,C   4,C   0,H   5)     48.08 -0.000698    0.46     48.54   
    70. D(C   8,C   4,C   0,N   7)    -71.26 -0.003054    1.52    -69.74   
    71. D(H   3,N   7,C   0,C   1)     64.37  0.001830   -0.68     63.69   
    72. D(H   2,N   7,C   0,C   4)    164.97 -0.000734    0.38    165.35   
    73. D(H   2,N   7,C   0,C   1)    -71.87  0.000637    0.54    -71.32   
    74. D(H   2,N   7,C   0,H   5)     44.45 -0.001900    1.47     45.92   
    75. D(H   3,N   7,C   0,H   5)   -179.31 -0.000707    0.24   -179.07   
    76. D(H   3,N   7,C   0,C   4)    -58.79  0.000458   -0.84    -59.63   
    77. D(C  13,C   8,C   4,H   9)     73.51 -0.002630   -0.07     73.44   
    78. D(C  13,C   8,C   4,C   0)   -161.33 -0.000115   -1.60   -162.93   
    79. D(C  11,C   8,C   4,H  10)   -162.73  0.003153   -2.21   -164.94   
    80. D(C  11,C   8,C   4,H   9)    -48.39 -0.001219   -0.37    -48.76   
    81. D(C  13,C   8,C   4,H  10)    -40.83  0.001742   -1.91    -42.74   
    82. D(C  11,C   8,C   4,C   0)     76.77  0.001297   -1.90     74.86   
    83. D(H  14,C  11,C   8,H  16)    174.13  0.001820    0.92    175.05   
    84. D(H  14,C  11,C   8,C  13)    -69.22 -0.001052    2.14    -67.08   
    85. D(H  14,C  11,C   8,C   4)     53.02 -0.000839    1.98     55.00   
    86. D(H  12,C  11,C   8,H  16)     52.77  0.000690    1.52     54.29   
    87. D(H  12,C  11,C   8,C  13)    169.42 -0.002181    2.74    172.16   
    88. D(H  12,C  11,C   8,C   4)    -68.34 -0.001968    2.58    -65.76   
    89. D(H   6,C  13,C   8,C  11)     63.16  0.001767   -0.64     62.52   
    90. D(H   6,C  13,C   8,C   4)    -61.31 -0.001356    0.22    -61.09   
    91. D(H  17,C  13,C   8,H  16)    -59.12 -0.000405    0.21    -58.90   
    92. D(H  17,C  13,C   8,C  11)   -176.46  0.001902   -0.72   -177.18   
    93. D(H  17,C  13,C   8,C   4)     59.07 -0.001221    0.14     59.22   
    94. D(H   6,C  13,C   8,H  16)   -179.50 -0.000540    0.29   -179.21   
    95. D(H  20,O  19,C   1,O  21)   -179.99  0.000967   -1.58   -181.58   
    96. D(H  20,O  19,C   1,C   0)     -1.02  0.000184   -0.03     -1.05   
    ----------------------------------------------------------------------------

Geometry step timings:
Preparation and reading OPT file:      0.000 s ( 0.730 %)
Internal coordinates            :      0.000 s ( 0.904 %)
B/P matrices and projection     :      0.001 s (35.349 %)
Hessian update/contruction      :      0.000 s (12.339 %)
Making the step                 :      0.001 s (29.267 %)
Converting the step to Cartesian:      0.000 s ( 3.754 %)
Storing new data                :      0.000 s ( 0.799 %)
Checking convergence            :      0.000 s ( 1.043 %)
Final printing                  :      0.000 s (15.746 %)
Total time                      :      0.003 s

Time for energy+gradient        :      0.043 s
Time for complete geometry iter :      0.046 s

         *************************************************************
         *                GEOMETRY OPTIMIZATION CYCLE   2            *
         *************************************************************
---------------------------------
CARTESIAN COORDINATES (ANGSTROEM)
---------------------------------
  C    -9.055948    6.386918   -1.565743
  C    -7.826431    7.201918   -2.016094
  H   -10.590768    7.798913   -1.526957
  H   -10.442235    6.969367   -2.999650
  C    -8.899309    4.947665   -2.050707
  H    -9.048675    6.402399   -0.471000
  H    -9.299665    2.288307   -2.656950
  N   -10.323853    6.949749   -1.998928
  C    -9.834487    3.948255   -1.365596
  H    -9.042716    4.907828   -3.133627
  H    -7.866074    4.644565   -1.861896
  C   -11.268401    4.066738   -1.866083
  H   -11.703790    5.024700   -1.591527
  C    -9.321594    2.526911   -1.595502
  H   -11.311952    3.967351   -2.948632
  H   -11.890850    3.287415   -1.429071
  H    -9.823132    4.141418   -0.288061
  H    -8.314521    2.407902   -1.199156
  H    -9.962972    1.802440   -1.098027
  O    -8.116145    8.357885   -2.635001
  H    -9.085048    8.455039   -2.696935
  O    -6.690626    6.849125   -1.848267

----------------------------
CARTESIAN COORDINATES (A.U.)
----------------------------
  NO LB    ZA    FRAG    MASS        X           Y           Z
   0 C   6.0000    1    12.011  -17.113262   12.069525   -2.958826
   1 C   6.0000    1    12.011  -14.789811   13.609652   -3.809866
   2 H   1.0000    1     1.008  -20.013650   14.737810   -2.885530
   3 H   1.0000    1     1.008  -19.732964   13.170194   -5.668516
   4 C   6.0000    1    12.011  -16.817258    9.349732   -3.875274
   5 H   1.0000    1     1.008  -17.099518   12.098781   -0.890061
   6 H   1.0000    1     1.008  -17.573820    4.324274   -5.020909
   7 N   7.0000    1    14.007  -19.509255   13.133122   -3.777427
   8 C   6.0000    1    12.011  -18.584487    7.461121   -2.580602
   9 H   1.0000    1     1.008  -17.088257    9.274451   -5.921697
  10 H   1.0000    1     1.008  -14.864725    8.776956   -3.518474
  11 C   6.0000    1    12.011  -21.294192    7.685022   -3.526385
  12 H   1.0000    1     1.008  -22.116957    9.495308   -3.007550
  13 C   6.0000    1    12.011  -17.615260    4.775170   -3.015062
  14 H   1.0000    1     1.008  -21.376491    7.497206   -5.572108
  15 H   1.0000    1     1.008  -22.470450    6.212315   -2.700553
  16 H   1.0000    1     1.008  -18.563029    7.826145   -0.544356
  17 H   1.0000    1     1.008  -15.712168    4.550276   -2.266076
  18 H   1.0000    1     1.008  -18.827288    3.406119   -2.074970
  19 O   8.0000    1    15.999  -15.337292   15.794113   -4.979430
  20 H   1.0000    1     1.008  -17.168252   15.977708   -5.096469
  21 O   8.0000    1    15.999  -12.643451   12.942971   -3.492718

      -----------------------------------------------------------      
     |                   =====================                   |     
     |                           x T B                           |     
     |                   =====================                   |     
     |                         S. Grimme                         |     
     |          Mulliken Center for Theoretical Chemistry        |     
     |                    University of Bonn                     |     
      -----------------------------------------------------------      

   * xtb version 6.7.1 (edcfbbe) compiled by 'albert@albert-system' on 2024-07-22

   xtb is free software: you can redistribute it and/or modify it under
   the terms of the GNU Lesser General Public License as published by
   the Free Software Foundation, either version 3 of the License, or
   (at your option) any later version.
   
   xtb is distributed in the hope that it will be useful,
   but WITHOUT ANY WARRANTY; without even the implied warranty of
   MERCHANTABILITY or FITNESS FOR A PARTICULAR PURPOSE.  See the
   GNU Lesser General Public License for more details.
   
   Cite this work as:
   * C. Bannwarth, E. Caldeweyher, S. Ehlert, A. Hansen, P. Pracht,
     J. Seibert, S. Spicher, S. Grimme, WIREs Comput. Mol. Sci., 2020, 11,
     e01493. DOI: 10.1002/wcms.1493
   
   for GFN2-xTB:
   * C. Bannwarth, S. Ehlert and S. Grimme., J. Chem. Theory Comput., 2019,
     15, 1652-1671. DOI: 10.1021/acs.jctc.8b01176
   for GFN1-xTB:
   * S. Grimme, C. Bannwarth, P. Shushkov, J. Chem. Theory Comput., 2017,
     13, 1989-2009. DOI: 10.1021/acs.jctc.7b00118
   for GFN0-xTB:
   * P. Pracht, E. Caldeweyher, S. Ehlert, S. Grimme, ChemRxiv, 2019, preprint.
     DOI: 10.26434/chemrxiv.8326202.v1
   for GFN-FF:
   * S. Spicher and S. Grimme, Angew. Chem. Int. Ed., 2020, 59, 15665-15673.
     DOI: 10.1002/anie.202004239
   
   for ALPB and GBSA implicit solvation:
   * S. Ehlert, M. Stahn, S. Spicher, S. Grimme, J. Chem. Theory Comput.,
     2021, 17, 4250-4261. DOI: 10.1021/acs.jctc.1c00471
   
   for ddCOSMO and CPCM-X implicit solvation:
   * M. Stahn, S. Ehlert, S. Grimme, J. Phys. Chem. A,
     2023, XX, XXXX-XXXX. DOI: 10.1021/acs.jpca.3c04382
   
   for DFT-D4:
   * E. Caldeweyher, C. Bannwarth and S. Grimme, J. Chem. Phys., 2017,
     147, 034112. DOI: 10.1063/1.4993215
   * E. Caldeweyher, S. Ehlert, A. Hansen, H. Neugebauer, S. Spicher,
     C. Bannwarth and S. Grimme, J. Chem. Phys., 2019, 150, 154122.
     DOI: 10.1063/1.5090222
   * E. Caldeweyher, J.-M. Mewes, S. Ehlert and S. Grimme, Phys. Chem. Chem. Phys.
     2020, 22, 8499-8512. DOI: 10.1039/D0CP00502A
   
   for sTDA-xTB:
   * S. Grimme and C. Bannwarth, J. Chem. Phys., 2016, 145, 054103.
     DOI: 10.1063/1.4959605
   
   in the mass-spec context:
   * V. Asgeirsson, C. Bauer and S. Grimme, Chem. Sci., 2017, 8, 4879.
     DOI: 10.1039/c7sc00601b
   * J. Koopman and S. Grimme, ACS Omega 2019, 4, 12, 15120-15133.
     DOI: 10.1021/acsomega.9b02011
   
   for metadynamics refer to:
   * S. Grimme, J. Chem. Theory Comput., 2019, 155, 2847-2862
     DOI: 10.1021/acs.jctc.9b00143
   
   for SPH calculations refer to:
   * S. Spicher and S. Grimme, J. Chem. Theory Comput., 2021, 17, 1701-1714
     DOI: 10.1021/acs.jctc.0c01306
   
   for ONIOM refer to:
   * C. Plett, A. Katbashev, S. Ehlert, S. Grimme, M. Bursch,
     Phys. Chem. Chem. Phys., 2023, 25, 17860-17868. DOI: 10.1039/D3CP02178E
   
   for DIPRO refer to:
   * J. Kohn, N. Gildemeister, S. Grimme, D. Fazzi, A. Hansen,
     J. Chem. Phys., 2023, just accepted.
   
   for PTB refer to:
   * S. Grimme, M. Mueller, A. Hansen, J. Chem. Phys., 2023, 158, 124111.
     DOI: 10.1063/5.0137838
   
   with help from (in alphabetical order)
   P. Atkinson, C. Bannwarth, F. Bohle, G. Brandenburg, E. Caldeweyher
   M. Checinski, S. Dohm, S. Ehlert, S. Ehrlich, I. Gerasimov, C. Hölzer
   A. Katbashev, J. Kohn, J. Koopman, C. Lavigne, S. Lehtola, F. März, M. Müller,
   F. Musil, H. Neugebauer, J. Pisarek, C. Plett, P. Pracht, F. Pultar,
   J. Seibert, P. Shushkov, S. Spicher, M. Stahn, M. Steiner, T. Strunk,
   J. Stückrath, T. Rose, and J. Unsleber
   
 * started run on 2025/08/16 at 14:36:01.057     
   ID    Z sym.   atoms
    1    6 C      1, 2, 5, 9, 12, 14
    2    1 H      3, 4, 6, 7, 10, 11, 13, 15-19, 21
    3    7 N      8
    4    8 O      20, 22

           -------------------------------------------------
          |                Calculation Setup                |
           -------------------------------------------------

          program call               : otool_xtb l_XTB.xyz --grad -c 0 -u 0 -P 1 --namespace l --input l_XTB.input.tmp --acc 0.200000
          calculation namespace      : l
          coordinate file            : l_XTB.xyz
          omp threads                :                     1


           -------------------------------------------------
          |                 G F N 2 - x T B                 |
           -------------------------------------------------

        Reference                      10.1021/acs.jctc.8b01176
      * Hamiltonian:
        H0-scaling (s, p, d)           1.850000    2.230000    2.230000
        zeta-weighting                 0.500000
      * Dispersion:
        s8                             2.700000
        a1                             0.520000
        a2                             5.000000
        s9                             5.000000
      * Repulsion:
        kExp                           1.500000    1.000000
        rExp                           1.000000
      * Coulomb:
        alpha                          2.000000
        third order                    shell-resolved
        anisotropic                    true
        a3                             3.000000
        a5                             4.000000
        cn-shift                       1.200000
        cn-exp                         4.000000
        max-rad                        5.000000

q/qsh data taken from xtbrestart
CAMM data taken from xtbrestart

          ...................................................
          :                      SETUP                      :
          :.................................................:
          :  # basis functions                  49          :
          :  # atomic orbitals                  49          :
          :  # shells                           31          :
          :  # electrons                        54          :
          :  max. iterations                   250          :
          :  Hamiltonian                  GFN2-xTB          :
          :  restarted?                       true          :
          :  GBSA solvation                  false          :
          :  PC potential                    false          :
          :  electronic temp.          300.0000000     K    :
          :  accuracy                    0.2000000          :
          :  -> integral cutoff          0.3198970E+02      :
          :  -> integral neglect         0.2000000E-08      :
          :  -> SCF convergence          0.2000000E-06 Eh   :
          :  -> wf. convergence          0.2000000E-04 e    :
          :  Broyden damping             0.4000000          :
          :  net charge                          0          :
          :  unpaired electrons                  0          :
          ...................................................

 iter      E             dE          RMSdq      gap      omega  full diag
   1    -30.8770893 -0.308771E+02  0.150E-01    4.00       0.0  T
   2    -30.8771452 -0.558593E-04  0.867E-02    3.97       1.0  T
   3    -30.8771452 -0.650109E-08  0.390E-02    3.98       1.0  T
   4    -30.8771531 -0.787291E-05  0.681E-03    3.97       3.1  T
   5    -30.8771532 -0.132825E-06  0.321E-03    3.97       6.6  T
   6    -30.8771532 -0.279816E-07  0.106E-03    3.97      20.1  T
   7    -30.8771532 -0.332050E-08  0.467E-04    3.97      45.6  T
   8    -30.8771532 -0.368392E-09  0.935E-05    3.97     228.0  T
   9    -30.8771532 -0.215117E-10  0.334E-05    3.97     638.1  T

   *** convergence criteria satisfied after 9 iterations ***

         #    Occupation            Energy/Eh            Energy/eV
      -------------------------------------------------------------
         1        2.0000           -0.7482854             -20.3619
       ...           ...                  ...                  ...
        21        2.0000           -0.4607610             -12.5379
        22        2.0000           -0.4525509             -12.3145
        23        2.0000           -0.4407634             -11.9938
        24        2.0000           -0.4392826             -11.9535
        25        2.0000           -0.4333338             -11.7916
        26        2.0000           -0.4275187             -11.6334
        27        2.0000           -0.3827124             -10.4141 (HOMO)
        28                         -0.2367543              -6.4424 (LUMO)
        29                         -0.0139314              -0.3791
        30                          0.0400066               1.0886
        31                          0.0834297               2.2702
        32                          0.0863157               2.3488
       ...                                ...                  ...
        49                          0.6292356              17.1224
      -------------------------------------------------------------
                  HL-Gap            0.1459581 Eh            3.9717 eV
             Fermi-level           -0.3097333 Eh           -8.4283 eV

 SCC (total)                   0 d,  0 h,  0 min,  0.012 sec
 SCC setup                      ...        0 min,  0.000 sec (  1.245%)
 Dispersion                     ...        0 min,  0.000 sec (  1.031%)
 classical contributions        ...        0 min,  0.000 sec (  0.241%)
 integral evaluation            ...        0 min,  0.001 sec ( 12.068%)
 iterations                     ...        0 min,  0.007 sec ( 59.965%)
 molecular gradient             ...        0 min,  0.003 sec ( 24.803%)
 printout                       ...        0 min,  0.000 sec (  0.517%)

         :::::::::::::::::::::::::::::::::::::::::::::::::::::
         ::                     SUMMARY                     ::
         :::::::::::::::::::::::::::::::::::::::::::::::::::::
         :: total energy             -30.526232959107 Eh    ::
         :: gradient norm              0.017876796315 Eh/a0 ::
         :: HOMO-LUMO gap              3.971722820333 eV    ::
         ::.................................................::
         :: SCC energy               -30.877082790994 Eh    ::
         :: -> isotropic ES            0.061089335413 Eh    ::
         :: -> anisotropic ES          0.008596934712 Eh    ::
         :: -> anisotropic XC          0.010908625940 Eh    ::
         :: -> dispersion             -0.015022337773 Eh    ::
         :: repulsion energy           0.350849831887 Eh    ::
         :: add. restraining           0.000000000000 Eh    ::
         :: total charge              -0.000000000000 e     ::
         :::::::::::::::::::::::::::::::::::::::::::::::::::::


Property printout bound to 'properties.out'

           -------------------------------------------------
          | TOTAL ENERGY              -30.526232959107 Eh   |
          | GRADIENT NORM               0.017876796315 Eh/α |
          | HOMO-LUMO GAP               3.971722820333 eV   |
           -------------------------------------------------

------------------------------------------------------------------------
 * finished run on 2025/08/16 at 14:36:01.077     
------------------------------------------------------------------------
 total:
 * wall-time:     0 d,  0 h,  0 min,  0.019 sec
 *  cpu-time:     0 d,  0 h,  0 min,  0.017 sec
 * ratio c/w:     0.894 speedup
 SCF:
 * wall-time:     0 d,  0 h,  0 min,  0.012 sec
 *  cpu-time:     0 d,  0 h,  0 min,  0.010 sec
 * ratio c/w:     0.881 speedup


-------------------------   --------------------
FINAL SINGLE POINT ENERGY       -30.526232959110
-------------------------   --------------------


-------------
DIPOLE MOMENT
-------------
                                X             Y             Z
Total Dipole Moment    :     -1.76900       0.19100      -0.14200
                        -----------------------------------------
Magnitude (a.u.)       :      1.78494
Magnitude (Debye)      :      4.53695


------------------
CARTESIAN GRADIENT
------------------

   1   C   :    0.004046252   -0.005086381    0.002643082
   2   C   :   -0.007906347    0.000111626    0.001940742
   3   H   :    0.000119992   -0.001725644    0.001582889
   4   H   :    0.000257091   -0.001396502    0.000899308
   5   C   :   -0.003649489    0.004008989    0.001065678
   6   H   :   -0.000070030    0.001014622   -0.001083357
   7   H   :    0.000318550   -0.000782784   -0.000014072
   8   N   :   -0.002613583    0.004382044   -0.004682598
   9   C   :    0.000375418    0.002535044    0.000175923
  10   H   :    0.001818179   -0.000807632   -0.000235029
  11   H   :    0.000100438   -0.001759358   -0.001161838
  12   C   :    0.004808194   -0.001023112   -0.000900791
  13   H   :   -0.002014878   -0.000278037    0.000886793
  14   C   :   -0.001437436    0.001568804   -0.000328686
  15   H   :   -0.000802937    0.000541195   -0.000213849
  16   H   :   -0.001158072    0.000639760    0.000186369
  17   H   :   -0.000121477   -0.000462905   -0.000113446
  18   H   :    0.000370169   -0.000605264    0.000386410
  19   H   :    0.000455184   -0.000547037    0.000207096
  20   O   :   -0.000022624    0.001874647   -0.001253276
  21   H   :   -0.000116202   -0.001085059    0.000516512
  22   O   :    0.007243608   -0.001117017   -0.000503860

Difference to translation invariance:
           :   -0.0000000000    0.0000000000    0.0000000000

Difference to rotation invariance:
           :   -0.0000000241   -0.0000000592    0.0000000862

Norm of the Cartesian gradient     ...    0.0178767963
RMS gradient                       ...    0.0022004815
MAX gradient                       ...    0.0079063474
------------------------------------------------------------------------------
                         ORCA GEOMETRY RELAXATION STEP
------------------------------------------------------------------------------

Reading the OPT-File                    .... done
Getting information on internals        .... done
Copying old internal coords+grads       .... done
Making the new internal coordinates     .... (2022 redundants) done
Validating the new internal coordinates .... (2022 redundants) done
Calculating the B-matrix                .... done
Calculating the G,G- and P matrices     .... done
Transforming gradient to internals      .... done
Projecting the internal gradient        .... done
Number of atoms                         ....  22
Number of internal coordinates          ....  96
Current Energy                          ....   -30.526232959 Eh
Current gradient norm                   ....     0.017876796 Eh/bohr
Maximum allowed component of the step   ....  0.300
Current trust radius                    ....  0.300
Updating the Hessian (BFGS)             .... done
Forming the augmented Hessian           .... done
Diagonalizing the augmented Hessian     .... done
Last element of RFO vector              ....  0.985494193
Lowest eigenvalues of augmented Hessian:
 -0.000790459  0.010003209  0.010046335  0.010455925  0.010877988
Length of the computed step             ....  0.172207152
The final length of the internal step   ....  0.172207152
Converting the step to Cartesian space:
 Initial RMS(Int)=    0.0175758189
Transforming coordinates:
 Iter   0:  RMS(Cart)=    0.0409605584 RMS(Int)=    0.0175706101
done
Storing new coordinates                 .... done
The predicted energy change is          ....    -0.000406950
Previously predicted energy change      ....    -0.003034329
Actually observed energy change         ....    -0.003357929
Ratio of predicted to observed change   ....     1.106646044
New trust radius                        ....     0.450000000

                                .--------------------.
          ----------------------|Geometry convergence|-------------------------
          Item                value                   Tolerance       Converged
          ---------------------------------------------------------------------
          Energy change      -0.0033579285            0.0000050000      NO
          RMS gradient        0.0011974604            0.0001000000      NO
          MAX gradient        0.0071074195            0.0003000000      NO
          RMS step            0.0175758189            0.0020000000      NO
          MAX step            0.0559926325            0.0040000000      NO
          -------------------------------------------------------------------------
          ........................................................
          Max(Bonds)      0.0251      Max(Angles)    0.79
          Max(Dihed)        3.21      Max(Improp)    0.00
          ---------------------------------------------------------------------

    ---------------------------------------------------------------------------
                         Redundant Internal Coordinates
                            (Angstroem and degrees)

        Definition                    Value    dE/dq     Step     New-Value
    ----------------------------------------------------------------------------
     1. B(C   1,C   0)                1.5423 -0.000029  0.0006    1.5429   
     2. B(C   4,C   0)                1.5268 -0.002931  0.0036    1.5304   
     3. B(H   5,C   0)                1.0949 -0.001069  0.0017    1.0966   
     4. B(N   7,H   3)                1.0079 -0.000950  0.0005    1.0084   
     5. B(N   7,C   0)                1.4533  0.003230 -0.0066    1.4466   
     6. B(N   7,H   2)                1.0075 -0.000745  0.0003    1.0078   
     7. B(C   8,C   4)                1.5306 -0.001398  0.0009    1.5315   
     8. B(H   9,C   4)                1.0931  0.000024 -0.0006    1.0925   
     9. B(H  10,C   4)                1.0932  0.000382 -0.0012    1.0920   
    10. B(C  11,C   8)                1.5234 -0.000779  0.0007    1.5240   
    11. B(H  12,C  11)                1.0875  0.000786 -0.0018    1.0857   
    12. B(C  13,C   8)                1.5284  0.000204 -0.0009    1.5276   
    13. B(C  13,H   6)                1.0882  0.000192 -0.0011    1.0871   
    14. B(H  14,C  11)                1.0880  0.000195 -0.0011    1.0869   
    15. B(H  15,C  11)                1.0889  0.000279 -0.0012    1.0878   
    16. B(H  16,C   8)                1.0948 -0.000195  0.0001    1.0949   
    17. B(H  17,C  13)                1.0888  0.000549 -0.0016    1.0871   
    18. B(H  18,C  13)                1.0880  0.000191 -0.0011    1.0869   
    19. B(O  19,C   1)                1.3428  0.001680 -0.0026    1.3402   
    20. B(H  20,N   7)                2.0707 -0.000968  0.0251    2.0958   
    21. B(H  20,O  19)                0.9757 -0.000510  0.0005    0.9762   
    22. B(O  21,C   1)                1.2011  0.007107 -0.0064    1.1947   
    23. A(C   4,C   0,N   7)          111.09 -0.002194    0.49    111.58   
    24. A(C   1,C   0,H   5)          106.21 -0.000347   -0.13    106.08   
    25. A(H   5,C   0,N   7)          107.36  0.000560   -0.06    107.30   
    26. A(C   4,C   0,H   5)          109.28  0.000486   -0.36    108.92   
    27. A(C   1,C   0,N   7)          113.82 -0.000269    0.58    114.40   
    28. A(C   1,C   0,C   4)          108.88  0.001856   -0.56    108.32   
    29. A(C   0,C   1,O  21)          123.91  0.002021   -0.50    123.41   
    30. A(C   0,C   1,O  19)          114.68 -0.000307    0.34    115.02   
    31. A(O  19,C   1,O  21)          121.42 -0.001722    0.10    121.52   
    32. A(H   9,C   4,H  10)          106.56 -0.000955    0.59    107.15   
    33. A(C   0,C   4,H  10)          107.67  0.002125   -0.53    107.14   
    34. A(C   8,C   4,H   9)          109.85  0.000681   -0.17    109.68   
    35. A(C   0,C   4,H   9)          109.61  0.001301   -0.41    109.20   
    36. A(C   0,C   4,C   8)          114.25 -0.002320    0.25    114.50   
    37. A(C   8,C   4,H  10)          108.61 -0.000761    0.30    108.91   
    38. A(C   0,N   7,H   2)          114.70 -0.000870   -0.09    114.61   
    39. A(H   2,N   7,H   3)          114.68  0.001545   -0.79    113.89   
    40. A(C   0,N   7,H   3)          113.95 -0.000257   -0.24    113.71   
    41. A(C  13,C   8,H  16)          107.98 -0.000529    0.25    108.23   
    42. A(C   4,C   8,H  16)          108.60  0.000392   -0.23    108.37   
    43. A(C  11,C   8,H  16)          108.63  0.000120    0.02    108.64   
    44. A(C  11,C   8,C  13)          109.80 -0.000081    0.16    109.96   
    45. A(C   4,C   8,C  13)          109.56  0.000170   -0.05    109.51   
    46. A(C   4,C   8,C  11)          112.16 -0.000088   -0.13    112.04   
    47. A(H  14,C  11,H  15)          108.12 -0.000308    0.15    108.28   
    48. A(H  12,C  11,H  15)          107.47 -0.002196    0.63    108.11   
    49. A(C   8,C  11,H  15)          110.52  0.000844   -0.15    110.37   
    50. A(H  12,C  11,H  14)          108.40 -0.000888    0.07    108.47   
    51. A(C   8,C  11,H  14)          110.95  0.001121   -0.31    110.64   
    52. A(C   8,C  11,H  12)          111.25  0.001256   -0.35    110.90   
    53. A(H   6,C  13,H  18)          108.17 -0.000216    0.07    108.24   
    54. A(C   8,C  13,H  17)          110.93  0.000051   -0.02    110.91   
    55. A(H   6,C  13,H  17)          108.21 -0.000575    0.09    108.30   
    56. A(H   6,C  13,C   8)          110.94  0.001275   -0.31    110.63   
    57. A(H  17,C  13,H  18)          107.82 -0.001152    0.31    108.14   
    58. A(C   8,C  13,H  18)          110.65  0.000522   -0.12    110.53   
    59. A(C   1,O  19,H  20)          109.22 -0.000680    0.21    109.43   
    60. D(O  19,C   1,C   0,H   5)   -112.47  0.000307   -0.38   -112.85   
    61. D(O  19,C   1,C   0,N   7)      5.43  0.000618   -0.21      5.22   
    62. D(O  21,C   1,C   0,H   5)     68.07  0.001244   -3.21     64.87   
    63. D(O  19,C   1,C   0,C   4)    129.95 -0.001016    0.42    130.37   
    64. D(O  21,C   1,C   0,C   4)    -49.50 -0.000079   -2.41    -51.91   
    65. D(C   8,C   4,C   0,C   1)    164.15  0.000700   -2.27    161.88   
    66. D(H   9,C   4,C   0,H   5)    172.29  0.000043   -1.94    170.35   
    67. D(H   9,C   4,C   0,C   1)    -72.10  0.000919   -2.63    -74.72   
    68. D(H   9,C   4,C   0,N   7)     54.01  0.000376   -1.94     52.07   
    69. D(C   8,C   4,C   0,H   5)     48.54 -0.000176   -1.58     46.96   
    70. D(C   8,C   4,C   0,N   7)    -69.74  0.000157   -1.58    -71.32   
    71. D(H   3,N   7,C   0,C   1)     63.69  0.000613    0.07     63.76   
    72. D(H   2,N   7,C   0,C   4)    165.35 -0.001094    1.64    166.99   
    73. D(H   2,N   7,C   0,C   1)    -71.32 -0.000550    1.69    -69.63   
    74. D(H   2,N   7,C   0,H   5)     45.92 -0.000768    1.82     47.74   
    75. D(H   3,N   7,C   0,H   5)   -179.06  0.000395    0.19   -178.87   
    76. D(H   3,N   7,C   0,C   4)    -59.63  0.000069    0.01    -59.62   
    77. D(C  13,C   8,C   4,H   9)     73.44 -0.000549    0.11     73.55   
    78. D(C  13,C   8,C   4,C   0)   -162.93 -0.000002   -0.38   -163.31   
    79. D(C  11,C   8,C   4,H  10)   -164.95  0.000693   -0.75   -165.70   
    80. D(C  11,C   8,C   4,H   9)    -48.76 -0.000507    0.03    -48.74   
    81. D(C  13,C   8,C   4,H  10)    -42.74  0.000651   -0.67    -43.41   
    82. D(C  11,C   8,C   4,C   0)     74.87  0.000040   -0.46     74.41   
    83. D(H  14,C  11,C   8,H  16)    175.05  0.000231    1.75    176.80   
    84. D(H  14,C  11,C   8,C  13)    -67.07 -0.000384    2.15    -64.93   
    85. D(H  14,C  11,C   8,C   4)     55.00 -0.000283    2.11     57.11   
    86. D(H  12,C  11,C   8,H  16)     54.29 -0.000255    2.12     56.41   
    87. D(H  12,C  11,C   8,C  13)    172.16 -0.000870    2.52    174.68   
    88. D(H  12,C  11,C   8,C   4)    -65.77 -0.000769    2.48    -63.29   
    89. D(H   6,C  13,C   8,C  11)     62.52 -0.000024   -0.07     62.44   
    90. D(H   6,C  13,C   8,C   4)    -61.09  0.000026    0.01    -61.08   
    91. D(H  17,C  13,C   8,H  16)    -58.90 -0.000075    0.07    -58.83   
    92. D(H  17,C  13,C   8,C  11)   -177.18  0.000135   -0.18   -177.36   
    93. D(H  17,C  13,C   8,C   4)     59.21  0.000185   -0.09     59.12   
    94. D(H   6,C  13,C   8,H  16)   -179.21 -0.000234    0.17   -179.03   
    95. D(H  20,O  19,C   1,O  21)    178.42 -0.000458    1.40    179.82   
    96. D(H  20,O  19,C   1,C   0)     -1.05  0.000431   -1.35     -2.39   
    ----------------------------------------------------------------------------

Geometry step timings:
Preparation and reading OPT file:      0.000 s ( 0.594 %)
Internal coordinates            :      0.000 s ( 0.871 %)
B/P matrices and projection     :      0.001 s (36.580 %)
Hessian update/contruction      :      0.000 s ( 9.303 %)
Making the step                 :      0.001 s (30.523 %)
Converting the step to Cartesian:      0.000 s ( 3.761 %)
Storing new data                :      0.000 s ( 0.673 %)
Checking convergence            :      0.000 s ( 1.346 %)
Final printing                  :      0.000 s (16.231 %)
Total time                      :      0.003 s

Time for energy+gradient        :      0.023 s
Time for complete geometry iter :      0.026 s

         *************************************************************
         *                GEOMETRY OPTIMIZATION CYCLE   3            *
         *************************************************************
---------------------------------
CARTESIAN COORDINATES (ANGSTROEM)
---------------------------------
  C    -9.077940    6.392705   -1.575168
  C    -7.827637    7.190636   -2.000039
  H   -10.581999    7.827868   -1.561869
  H   -10.434146    6.987781   -3.020433
[...]

q/qsh data taken from xtbrestart
CAMM data taken from xtbrestart

          ...................................................
          :                      SETUP                      :
          :.................................................:
          :  # basis functions                  49          :
          :  # atomic orbitals                  49          :
          :  # shells                           31          :
          :  # electrons                        54          :
          :  max. iterations                   250          :
          :  Hamiltonian                  GFN2-xTB          :
          :  restarted?                       true          :
          :  GBSA solvation                  false          :
          :  PC potential                    false          :
          :  electronic temp.          300.0000000     K    :
          :  accuracy                    0.2000000          :
          :  -> integral cutoff          0.3198970E+02      :
          :  -> integral neglect         0.2000000E-08      :
          :  -> SCF convergence          0.2000000E-06 Eh   :
          :  -> wf. convergence          0.2000000E-04 e    :
          :  Broyden damping             0.4000000          :
          :  net charge                          0          :
          :  unpaired electrons                  0          :
          ...................................................

 iter      E             dE          RMSdq      gap      omega  full diag
   1    -30.8782964 -0.308783E+02  0.462E-03    4.02       0.0  T
   2    -30.8782964 -0.449753E-08  0.269E-03    4.02       7.9  T
   3    -30.8782964 -0.113837E-08  0.263E-04    4.02      81.1  T
   4    -30.8782964 -0.535625E-09  0.139E-04    4.02     152.9  T
   5    -30.8782964 -0.437161E-10  0.454E-05    4.02     469.7  T

   *** convergence criteria satisfied after 5 iterations ***

         #    Occupation            Energy/Eh            Energy/eV
      -------------------------------------------------------------
         1        2.0000           -0.7502081             -20.4142
       ...           ...                  ...                  ...
        21        2.0000           -0.4603576             -12.5270
        22        2.0000           -0.4548081             -12.3760
        23        2.0000           -0.4425720             -12.0430
        24        2.0000           -0.4393823             -11.9562
        25        2.0000           -0.4332881             -11.7904
        26        2.0000           -0.4281263             -11.6499
        27        2.0000           -0.3842167             -10.4551 (HOMO)
        28                         -0.2365144              -6.4359 (LUMO)
        29                         -0.0096578              -0.2628
        30                          0.0395485               1.0762
        31                          0.0797750               2.1708
        32                          0.0832849               2.2663
       ...                                ...                  ...
        49                          0.6409134              17.4401
      -------------------------------------------------------------
                  HL-Gap            0.1477023 Eh            4.0192 eV
             Fermi-level           -0.3103656 Eh           -8.4455 eV

 SCC (total)                   0 d,  0 h,  0 min,  0.017 sec
 SCC setup                      ...        0 min,  0.000 sec (  0.783%)
 Dispersion                     ...        0 min,  0.000 sec (  0.622%)
 classical contributions        ...        0 min,  0.000 sec (  0.133%)
 integral evaluation            ...        0 min,  0.001 sec (  8.385%)
 iterations                     ...        0 min,  0.007 sec ( 42.103%)
 molecular gradient             ...        0 min,  0.008 sec ( 46.975%)
 printout                       ...        0 min,  0.000 sec (  0.885%)

         :::::::::::::::::::::::::::::::::::::::::::::::::::::
         ::                     SUMMARY                     ::
         :::::::::::::::::::::::::::::::::::::::::::::::::::::
         :: total energy             -30.527214547140 Eh    ::
         :: gradient norm              0.000168468776 Eh/a0 ::
         :: HOMO-LUMO gap              4.019184820871 eV    ::
         ::.................................................::
         :: SCC energy               -30.878223012800 Eh    ::
         :: -> isotropic ES            0.060667600295 Eh    ::
         :: -> anisotropic ES          0.008462252162 Eh    ::
         :: -> anisotropic XC          0.011099259442 Eh    ::
         :: -> dispersion             -0.015027766207 Eh    ::
         :: repulsion energy           0.351008465660 Eh    ::
         :: add. restraining           0.000000000000 Eh    ::
         :: total charge               0.000000000000 e     ::
         :::::::::::::::::::::::::::::::::::::::::::::::::::::


Property printout bound to 'properties.out'

           -------------------------------------------------
          | TOTAL ENERGY              -30.527214547140 Eh   |
          | GRADIENT NORM               0.000168468776 Eh/α |
          | HOMO-LUMO GAP               4.019184820871 eV   |
           -------------------------------------------------

------------------------------------------------------------------------
 * finished run on 2025/08/16 at 14:36:01.532     
------------------------------------------------------------------------
 total:
 * wall-time:     0 d,  0 h,  0 min,  0.028 sec
 *  cpu-time:     0 d,  0 h,  0 min,  0.025 sec
 * ratio c/w:     0.912 speedup
 SCF:
 * wall-time:     0 d,  0 h,  0 min,  0.017 sec
 *  cpu-time:     0 d,  0 h,  0 min,  0.015 sec
 * ratio c/w:     0.869 speedup


-------------------------   --------------------
FINAL SINGLE POINT ENERGY       -30.527214547140
-------------------------   --------------------


-------------
DIPOLE MOMENT
-------------
                                X             Y             Z
Total Dipole Moment    :     -1.65300       0.15700      -0.52400
                        -----------------------------------------
Magnitude (a.u.)       :      1.74116
Magnitude (Debye)      :      4.42567

                                *** OPTIMIZATION RUN DONE ***

		     ------------------------------
			                   _   
			                  | |  
			  __ _  ___   __ _| |_ 
			 / _` |/ _ \ / _` | __|
			| (_| | (_) | (_| | |_ 
			 \__, |\___/ \__,_|\__|
			 __/ |                
			|___/                 

		      A Global Optimizer Algorithm
		     ------------------------------

Global parameters
-----------------
  GOAT version                               ... default
  Minimum global steps                       ... 3
  Number of base workers                     ... 4
  Split workers by                           ... 2
  Final number of workers                    ... 8
  Number of available CPUs                   ... 1
  Parameter list (worker : temperature)      ...  0 : 2903.97,  1 : 1451.98, 
                                                  2 :  725.99,  3 :  363.00, 
                                                  4 : 2903.97,  5 : 1451.98, 
                                                  6 :  725.99,  7 :  363.00 
  GradComp (mean : sigma)                    ... 1.00 : 0.50
  Number of fragments                        ... 1
  Number of atoms                            ... 22
  Flexibility parameter                      ... 0.86
  Optimizations per global step              ... 352
  Optimizations per worker                   ... 44

Filtering criteria
------------------
  RMSD                                       ... 0.125 Angs (atom. pos.)
  EnDiff                                     ... 0.100 kcal/mol
  RotConst                                   ... 1.00-2.50 %
  Maximum Conf. Energy                       ... 6.000 kcal/mol

Thermodynamics
--------------
  Ensemble temperature                       ... 298.15 K
  Degeneracy of conformers                   ... 1
  *No rotamers will be included in Gconf

------------------------------------------------------------------------------
   Iter  MinTemp     MaxEn       GradComp    NOpt   NProcs    Output
------------------------------------------------------------------------------
   0     2903.97     66.00    1.00 : 0.50      44        1    l.goat.0.0.out
   1     1451.98     66.00    1.00 : 0.50      44        1    l.goat.0.1.out
   2      725.99     66.00    1.00 : 0.50      44        1    l.goat.0.2.out
   3      363.00     66.00    1.00 : 0.50      44        1    l.goat.0.3.out
   4     2903.97     66.00    1.00 : 0.50      44        1    l.goat.0.4.out
   5     1451.98     66.00    1.00 : 0.50      44        1    l.goat.0.5.out
   6      725.99     66.00    1.00 : 0.50      44        1    l.goat.0.6.out
   7      363.00     66.00    1.00 : 0.50      44        1    l.goat.0.7.out

			     GOAT Global Iter 1
		Iter    Min En       Sconf       Gconf   
		        Hartree      cal/(molK)  kcal/mol
		=========================================

		   1    -30.540410   5.146       -0.736

   0     2903.97     66.00    1.00 : 0.50      44        1    l.goat.1.0.out
   1     1451.98     66.00    1.00 : 0.50      44        1    l.goat.1.1.out
   2      725.99     66.00    1.00 : 0.50      44        1    l.goat.1.2.out
   3      363.00     66.00    1.00 : 0.50      44        1    l.goat.1.3.out
   4     2903.97     66.00    1.00 : 0.50      44        1    l.goat.1.4.out
   5     1451.98     66.00    1.00 : 0.50      44        1    l.goat.1.5.out
   6      725.99     66.00    1.00 : 0.50      44        1    l.goat.1.6.out
   7      363.00     66.00    1.00 : 0.50      44        1    l.goat.1.7.out

			     GOAT Global Iter 2
		Iter    Min En       Sconf       Gconf   
		        Hartree      cal/(molK)  kcal/mol
		=========================================

		   1    -30.540410   5.146       -0.736
		   2    -30.540411   5.813       -0.871

   0     2903.97     66.00    1.00 : 0.50      44        1    l.goat.2.0.out
   1     1451.98     66.00    1.00 : 0.50      44        1    l.goat.2.1.out
   2      725.99     66.00    1.00 : 0.50      44        1    l.goat.2.2.out
   3      363.00     66.00    1.00 : 0.50      44        1    l.goat.2.3.out
   4     2903.97     66.00    1.00 : 0.50      44        1    l.goat.2.4.out
   5     1451.98     66.00    1.00 : 0.50      44        1    l.goat.2.5.out
   6      725.99     66.00    1.00 : 0.50      44        1    l.goat.2.6.out
   7      363.00     66.00    1.00 : 0.50      44        1    l.goat.2.7.out

			     GOAT Global Iter 3
		Iter    Min En       Sconf       Gconf   
		        Hartree      cal/(molK)  kcal/mol
		=========================================

		   1    -30.540410   5.146       -0.736
		   2    -30.540411   5.813       -0.871
		   3    -30.540411   6.041       -0.933

		Global minimum found!
		Writing structure to l.globalminimum.xyz

		# Final ensemble info #
		Conformer     Energy     Degen.   % total   % cumul.  
		              (kcal/mol)
		------------------------------------------------------
		        0     0.000	     1      20.71      20.71
		        1     0.384	     1      10.83      31.53
		        2     0.568	     1       7.94      39.47
		        3     0.607	     1       7.44      46.91
		        4     0.609	     1       7.41      54.32
		        5     0.849	     1       4.94      59.26
		        6     0.934	     1       4.28      63.55
		        7     1.010	     1       3.76      67.31
		        8     1.151	     1       2.97      70.28
		        9     1.362	     1       2.08      72.36
		       10     1.384	     1       2.00      74.36
		       11     1.387	     1       1.99      76.35
		       12     1.400	     1       1.95      78.30
		       13     1.430	     1       1.85      80.15
		       14     1.456	     1       1.77      81.93
		       15     1.459	     1       1.76      83.69
		       16     1.461	     1       1.76      85.45
		       17     1.488	     1       1.68      87.13
		       18     1.546	     1       1.52      88.65
		       19     1.729	     1       1.12      89.77
		       20     1.878	     1       0.87      90.64
		       21     1.933	     1       0.79      91.43
		       22     1.966	     1       0.75      92.18
		       23     2.034	     1       0.67      92.85
		       24     2.076	     1       0.62      93.47
		       25     2.079	     1       0.62      94.09
		       26     2.355	     1       0.39      94.48
		       27     2.366	     1       0.38      94.86
		       28     2.414	     1       0.35      95.22
		       29     2.420	     1       0.35      95.56
		       30     2.444	     1       0.33      95.90
		       31     2.530	     1       0.29      96.19
		       32     2.590	     1       0.26      96.45
		       33     2.602	     1       0.26      96.71
		       34     2.627	     1       0.25      96.95
		       35     2.682	     1       0.22      97.18
		       36     2.685	     1       0.22      97.40
		       37     2.714	     1       0.21      97.61
		       38     2.832	     1       0.17      97.78
		       39     2.862	     1       0.17      97.95
		       40     3.009	     1       0.13      98.08
		       41     3.080	     1       0.11      98.19
		       42     3.111	     1       0.11      98.30
		       43     3.146	     1       0.10      98.40
		       44     3.151	     1       0.10      98.51
		       45     3.155	     1       0.10      98.61
		       46     3.210	     1       0.09      98.70
		       47     3.217	     1       0.09      98.79
		       48     3.328	     1       0.08      98.86
		       49     3.341	     1       0.07      98.94
		       50     3.354	     1       0.07      99.01
		       51     3.371	     1       0.07      99.08
		       52     3.375	     1       0.07      99.15
		       53     3.395	     1       0.07      99.22
		       54     3.439	     1       0.06      99.28
		       55     3.443	     1       0.06      99.34
		       56     3.599	     1       0.05      99.39
		       57     3.600	     1       0.05      99.44
		       58     3.638	     1       0.04      99.48
		       59     3.679	     1       0.04      99.52
		       60     3.771	     1       0.04      99.56
		       61     3.781	     1       0.04      99.59
		       62     3.786	     1       0.03      99.63
		       63     3.836	     1       0.03      99.66
		       64     3.868	     1       0.03      99.69
		       65     3.884	     1       0.03      99.72
		       66     3.890	     1       0.03      99.75
		       67     3.918	     1       0.03      99.78
		       68     3.932	     1       0.03      99.80
		       69     3.960	     1       0.03      99.83
		       70     3.988	     1       0.02      99.85
		       71     4.039	     1       0.02      99.88
		       72     4.217	     1       0.02      99.89
		       73     4.233	     1       0.02      99.91
		       74     4.461	     1       0.01      99.92
		       75     4.487	     1       0.01      99.93
		       76     4.489	     1       0.01      99.94
		       77     4.620	     1       0.01      99.95
		       78     4.636	     1       0.01      99.96
		       79     4.682	     1       0.01      99.97
		       80     4.716	     1       0.01      99.97
		       81     4.736	     1       0.01      99.98
		       82     4.812	     1       0.01      99.99
		       83     5.181	     1       0.00      99.99
		       84     5.241	     1       0.00      99.99
		       85     5.422	     1       0.00     100.00
		       86     5.596	     1       0.00     100.00
		       87     5.763	     1       0.00     100.00
		       88     5.908	     1       0.00     100.00

		Conformers below 3 kcal/mol: 40
		Lowest energy conformer    : -30.540411 Eh
		Sconf at 298.15 K          :  6.04 cal/(molK)
		Gconf at 298.15 K          : -0.93 kcal/mol

		Writing final ensemble to l.finalensemble.xyz

--------------------------------
SUGGESTED CITATIONS FOR THIS RUN
--------------------------------

Below you find a list of papers that are relevant to this ORCA run
We neither can nor want to force you to cite these papers, but we appreciate if you do
You receive ORCA, which is the product of decades of hard work by many enthusiastic individuals, for free
The only thing we kindly ask in return is that you cite our papers,
We deeply appreciate it, if you show your appreciation for ORCA by not just citing the generic ORCA reference.

Please note that relegating all ORCA citations to the supporting information does *not* help us.
SI sections are not indexed - citations you put there will not count into any citation statistics
But we need these citations in order to attract the funding resources that allow us to do what we are doing

Therefore, if you are a happy ORCA user, please consider citing a few of the papers listed below in the main body of your paper

In addition to the list printed below, the program has created the file l.bibtex that contains the list in bibtex format
You can import this file easily into all common literature databanks and citation aid programs


List of essential papers. We consider these as the minimum necessary citations

  1. Bannwarth, C.; Ehlert, S.; Grimme, S.
     GFN2-xTB—An Accurate and Broadly Parametrized Self-Consistent Tight-Binding Quantum Chemical Method with Multipole Electrostatics and Density-Dependent Dispersion Contributions
     J. Chem. Theory Comput. 2019 15(3), 1652-1671
     doi.org/10.1021/acs.jctc.8b01176
  2. Neese, F.
     Software update: the ORCA program system, version 6.0
     WIRES Comput. Molec. Sci. 2025 15(1), e70019
     doi.org/10.1002/wcms.7019
  3. de Souza, B.
     GOAT: A Global Optimization Algorithm for Molecules and Atomic Clusters
     Angewandte Chemie 2025 64(18), e202500393
     doi.org/10.1002/anie.202500393

List of papers to cite with high priority. The work reported in these papers was absolutely
necessary for this run to complete.
Our perspective: the developers of density functionals and basis sets usually get cited in chemistry papers
Good! But without the algorithms to do something with them, the functionals or basis sets would not do anything.
Hence, in our opinion, the algorithm design and method developments papers are equally worthy of getting cited

  1. Bannwarth, C.; Caldeweyher, E.; Ehlert, S.; Hansen, A.; Pracht, P.; Seibert, J.; Spicher, S.; Grimme, S.
     Extended tight-binding quantum chemistry methods
     WIRES Comput. Molec. Sci. 2020 11(2), e1493
     doi.org/10.1002/wcms.1493

List of suggested additional citations. These are papers that are important in the 'surrounding' of 
of this run, or papers that preceded the highly important papers. If you like your results we are grateful for a citation.

  1. Neese, F.
     The ORCA program system
     WIRES Comput. Molec. Sci. 2012 2(1), 73-78
     doi.org/10.1002/wcms.81
  2. Neese, F.
     Software update: the ORCA program system, version 4.0
     WIRES Comput. Molec. Sci. 2018 8(1), 1-6
     doi.org/10.1002/wcms.1327
  3. Neese, F.; Wennmohs, F.; Becker, U.; Riplinger, C.
     The ORCA quantum chemistry program package
     J. Chem. Phys. 2020 152(22), 224108
     doi.org/10.1063/5.0004608
  4. Neese, F.
     Software update: The ORCA program system—Version 5.0
     WIRES Comput. Molec. Sci. 2022 12(1), e1606
     doi.org/10.1002/wcms.1606

List of optional additional citations

  1. Neese, F.
     Approximate second-order SCF convergence for spin unrestricted wavefunctions
     Chem. Phys. Lett. 2000 325(1-3), 93-98
     doi.org/10.1016/s0009-2614(00)00662-x

Timings for individual modules:

Sum of individual times          ...     1541.301 sec (=  25.688 min)
Geometry relaxation              ...        0.044 sec (=   0.001 min)   0.0 %
GOAT                             ...     1540.796 sec (=  25.680 min) 100.0 %
XTB module                       ...        0.460 sec (=   0.008 min)   0.0 %
                             ****ORCA TERMINATED NORMALLY****
TOTAL RUN TIME: 0 days 0 hours 25 minutes 41 seconds 365 msec
