
                                 *****************
                                 * O   R   C   A *
                                 *****************

                                            #,                                       
                                            ###                                      
                                            ####                                     
                                            #####                                    
                                            ######                                   
                                           ########,                                 
                                     ,,################,,,,,                         
                               ,,#################################,,                 
                          ,,##########################################,,             
                       ,#########################################, ''#####,          
                    ,#############################################,,   '####,        
                  ,##################################################,,,,####,       
                ,###########''''           ''''###############################       
              ,#####''   ,,,,##########,,,,          '''####'''          '####       
            ,##' ,,,,###########################,,,                        '##       
           ' ,,###''''                  '''############,,,                           
         ,,##''                                '''############,,,,        ,,,,,,###''
      ,#''                                            '''#######################'''  
     '                                                          ''''####''''         
             ,#######,   #######,   ,#######,      ##                                
            ,#'     '#,  ##    ##  ,#'     '#,    #''#        ,####,    ,#,          
            ##       ##  ##   ,#'  ##            #'  '#       #'       ,# #          
            ##       ##  #######   ##           ,######,      #####,      #          
            '#,     ,#'  ##    ##  '#,     ,#' ,#      #,     #,   #      #          
             '#######'   ##     ##  '#######'  #'      '#     '####' #    #          



                #########################################################
                #                        -***-                          #
                #          Department of theory and spectroscopy        #
                #                                                       #
                #                      Frank Neese                      #
                #                                                       #
                #     Directorship, Architecture, Infrastructure        #
                #                    SHARK, DRIVERS                     #
                #        Core code/Algorithms in most modules           #
                #                                                       #
                #        Max Planck Institute fuer Kohlenforschung      #
                #                Kaiser Wilhelm Platz 1                 #
                #                 D-45470 Muelheim/Ruhr                 #
                #                      Germany                          #
                #                                                       #
                #                  All rights reserved                  #
                #                        -***-                          #
                #########################################################


                         Program Version 6.1.0  -  RELEASE   -
                                (GIT: $679e74b$)
                          ($2025-06-10 18:02:51 +0200$)


 With contributions from (in alphabetic order):
[Max-Planck-Institut fuer Kohlenforschung]                               
  Daniel Aravena         : Magnetic Suceptibility                        
  Michael Atanasov       : Ab Initio Ligand Field Theory (pilot matlab implementation)
  Alexander A. Auer      : GIAO ZORA, VPT2 properties, NMR spectrum      
  Ute Becker             : All parallelization in ORCA, NUMFREQ, NUMCALC 
  Giovanni Bistoni       : ED, misc. LED, open-shell LED, HFLD           
  Dmytro Bykov           : pre 5.0 version of the SCF Hessian            
  Marcos Casanova-Páez   : Triplet and SCS-CIS(D). UHF-(DLPNO)-IP/EA/STEOM-CCSD. UHF-CVS-IP/STEOM-CCSD   
  Vijay G. Chilkuri      : MRCI spin determinant printing, contributions to CSF-ICE 
  Pauline Colinet        : FMM embedding                                 
  Dipayan Datta          : RHF DLPNO-CCSD density                        
  Achintya Kumar Dutta   : EOM-CC, STEOM-CC                              
  Nicolas Foglia         : Exact transition moments, OPA infrastructure, MCD improvements    
  Dmitry Ganyushin       : Spin-Orbit,Spin-Spin,Magnetic field MRCI      
  Miquel Garcia-Rates    : C-PCM and meta-GGA Hessian, CCSD/C-PCM, Gaussian charge scheme 
  Tiago L. C. Gouveia    : GS-ROHF, GS-ROCIS                             
  Yang Guo               : DLPNO-NEVPT2, F12-NEVPT2, CIM, IAO-localization        
  Andreas Hansen         : Spin unrestricted coupled pair/coupled cluster methods 
  Ingolf Harden          : AUTO-CI MPn and infrastructure                
  Benjamin Helmich-Paris : MC-RPA, TRAH-(SCF,CASSCF), AVAS, COSX integrals, SCF dyn. polar., MC-PDFT, srDFT 
  Lee Huntington         : MR-EOM, pCC                                   
  Robert Izsak           : Overlap fitted RIJCOSX, COSX-SCS-MP3, EOM     
  Riya Kayal             : Wick's Theorem for AUTO-CI, AUTO-CI UHF-CCSDT 
  Emily Kempfer          : AUTO-CI RHF CISDT and CCSDT, approximate NEVPT4
  Christian Kollmar      : KDIIS, OOCD, Brueckner-CCSD(T), CCSD density, CASPT2, CASPT2-K, improved NEVPT2 
  Axel Koslowski         : Symmetry handling                             
  Simone Kossmann        : meta-GGA functionals, TD-DFT gradient, OOMP2, (MP2 Hessian; deprecated post 5.0) 
  Lucas Lang             : DCDCAS, Hyperfine gauge corrections, ICE-SOC+SSC
  Marvin Lechner         : AUTO-CI (C++ implementation), FIC-MRCC        
  Spencer Leger          : CASSCF response                               
  Dagmar Lenk            : GEPOL surface, SMD, ORCA-2-JSON               
  Dimitrios Liakos       : Extrapolation schemes; Compound Job, Property file
  Dimitrios Manganas     : Further ROCIS development; embedding schemes. LFT, Crystal Embedding 
  Dimitrios Pantazis     : SARC Basis sets                               
  Anastasios Papadopoulos: AUTO-CI, single reference methods and gradients 
  Taras Petrenko         : pre 6.0 DFT Hessian and TD-DFT gradient,  ECA, NRVS 
  Petra Pikulova         : Analytic Raman intensities                    
  Peter Pinski           : DLPNO-MP2, DLPNO-MP2 Gradient                 
  Shashank Vittal Rao    : ES-AILFT, MagRelax                            
  Christoph Reimann      : Effective Core Potentials                     
  Marius Retegan         : Local ZFS, SOC                                
  Christoph Riplinger    : Optimizer, TS searches, QM/MM, DLPNO-CCSD(T), (RO)-DLPNO pert. Triples 
  Michael Roemelt        : Original ROCIS implementation, recursive CI coupling coefficients
  Masaaki Saitow         : Open-shell DLPNO-CCSD energy and density      
  Barbara Sandhoefer     : DKH picture change effects                    
  Yorick L. A. Schmerwitz: GMF and freeze-and-release deltaSCF, NEB S-IDPP initial path                    
  Kantharuban Sivalingam : CASSCF convergence/infrastructure, NEVPT2, NEVPT3, NEVPT4(SD), FIC-MRCI and CEPA variants
  Bernardo de Souza      : ESD, SOC TD-DFT                               
  Georgi L. Stoychev     : AutoAux, RI-MP2 NMR, DLPNO-MP2 response, X2C  
  Van Anh Tran           : RI-MP2 g-tensors                              
  Willem Van den Heuvel  : Paramagnetic NMR                              
  Zikuan Wang            : NOTCH, Electric field optimization            
  Frank Wennmohs         : Technical directorship and infrastructure     
  Hang Xu                : AUTO-CI-Response properties                   
                                                                         
[FACCTs GmbH]                                                            
  Markus Bursch, Nicolas Foglia, Miquel Garcia-Rates, Ingolf Harden, Hagen Neugebauer, Anastasios Papadopoulos, 
  Christoph Riplinger, Bernardo de Souza, Georgi L. Stoychev                                                    
                                                                 
  APM, various basis sets, CI-OPT, improved COSX, DLPNO-Multilevel,           
  DOCKER, DRACO, updates on ESD, Fragmentator, GOAT, IRC, LR-CPCM, L-BFGS, MBIS, meta-GGA TD-DFT gradient, ML-optimized integration grids, 
  MM, NACMEs, nearIR, NEB, NEB-TS, NL-DFT gradient (VV10), 2- and 3-layer-ONIOM, interface openCOSMO-RS, QMMM,   
  Crystal-QMMM, RESP, rigid body optimization, SF, symmetry and pop. for TD-DFT, various functionals, SOLVATOR                                   
                                                                         
[Other institutions]                                                     
  V. Asgeirsson          : NEB                                           
  Christoph Bannwarth    : sTDA-DFT, sTD-DFT, PBEh-3c, B97-3c, D3        
  Giovanni Bistoni       : ETS/NOCV, ADLD/ADEX, COVALED                  
  Martin Brehm           : Molecular dynamics                            
  Ronald Cardenas        : ETS/NOCV                                      
  Martina Colucci        : COVALED                                       
  Sebastian Ehlert       : rSCAN, r2SCAN, r2SCAN-3c, D4, dhf basis sets  
  Marvin Friede          : D4 for Fr, Ra, Ac-Lr                          
  Lars Goerigk           : TD-DFT with DH, B97 family of functionals     
  Stefan Grimme          : VdW corrections, initial TS optimization, DFT functionals, gCP, sTDA/sTD-DF 
  Waldemar Hujo          : DFT-NL                                        
  H. Jonsson             : NEB                                           
  Holger Kruse           : gCP                                           
  Marcel Mueller         : wB97X-3c, vDZP basis set                      
  Hagen Neugebauer       : wr2SCAN, Native XTB                           
  Gianluca Regni         : ADLD/ADEX                                     
  Tobias Risthaus        : pre 6.0 range-separated hybrid DFT and stability analysis
  Lukas Wittmann         : regularized MP2, r2SCAN double-hybrids, wr2SCAN        
                                                                         
We gratefully acknowledge several colleagues who have allowed us to      
interface, adapt or use parts of their codes:                            
  Ed Valeev, F. Pavosevic, A. Kumar             : LibInt (2-el integral package), F12 methods 
  Garnet Chan, S. Sharma, J. Yang, R. Olivares  : DMRG                   
  Ulf Ekstrom                                   : XCFun DFT Library      
  Mihaly Kallay                                 : mrcc  (arbitrary order and MRCC methods)
  Frank Weinhold                                : gennbo (NPA and NBO analysis)           
  Simon Mueller                                 : openCOSMO-RS                            
  Christopher J. Cramer and Donald G. Truhlar   : smd solvation model                     
  S Lehtola, MJT Oliveira, MAL Marques          : LibXC Library                           
  Liviu Ungur et al                             : ANISO software                          


 Your calculation uses the libint2 library for the computation of 2-el integrals
 For citations please refer to: http://libint.valeyev.net

 Your ORCA version has been built with support for libXC version: 7.0.0
 For citations please refer to: https://libxc.gitlab.io

 This ORCA versions uses:
   CBLAS   interface :  Fast vector & matrix operations
   LAPACKE interface :  Fast linear algebra routines
   SCALAPACK package :  Parallel linear algebra routines
   Shared memory     :  Shared parallel matrices
   BLAS/LAPACK       :  OpenBLAS 0.3.29  USE64BITINT DYNAMIC_ARCH NO_AFFINITY Haswell SINGLE_THREADED
        Core in use  :  Haswell
   Copyright (c) 2011-2014, The OpenBLAS Project


  ***********************************
  * Starting time: Sun Aug 31 13:09:52 2025
  * Host name:     chemlab03
  * Process ID:    92212
  * Working dir.:  /home/vivek/mm-project/vivek/xtb-goat/MP2-opt/c/5
  ***********************************



***************************************
The coordinates will be read from file: /home/vivek/mm-project/vivek/xtb-goat/xtb-goat/c/C_CONF/5.xyz
***************************************


================================================================================

----- Orbital basis set information -----
Your calculation utilizes the basis: 6-31G**
   H-He, Li-Ne : W. J. Hehre, R. Ditchfield and J.A. Pople, J. Chem. Phys. 56, 2257 (1972).
                 Note: He and Ne are unpublished basis sets taken from the Gaussian program.
                 Note: Li and B from J. D. Dill and J. A. Pople, J. Chem. Phys. 62, 2921 (1975).
   Na - Ar     : M. M. Francl, W. J. Pietro, W. J. Hehre, J. S. Binkley, M. S. Gordon, 
                 D. J. DeFrees and J. A. Pople, J. Chem. Phys. 77, 3654 (1982).
   K - Zn      : V. A. Rassolov, J. A. Pople, M. A. Ratner, and T. L. Windus, J. Chem. Phys. 109, 1223 (1998).

================================================================================
                                        WARNINGS
                       Please study these warnings very carefully!
================================================================================


WARNING: The frozen-core approximation for MP2-gradient calculations is turned on by default.

WARNING: Geometry Optimization
  ===> : Switching off AutoStart
         For restart on a previous wavefunction, please use MOREAD

WARNING: Post HF methods need fully converged wavefunctions
  ===> : Setting SCFConvForced true
         You can overwrite this default with %scf ConvForced false 


================================================================================
                                       INPUT FILE
================================================================================
NAME = 5.inp
|  1> ! MP2 6-31G** opt
|  2> 
|  3> * xyzfile 0 1 /home/vivek/mm-project/vivek/xtb-goat/xtb-goat/c/C_CONF/5.xyz
|  4> 
|  5>                          ****END OF INPUT****
================================================================================

                       *****************************
                       * Geometry Optimization Run *
                       *****************************

Geometry optimization settings:
Update method            Update   .... BFGS
Choice of coordinates    CoordSys .... (2022) Redundant Internals
Initial Hessian          InHess   .... Almloef's Model
Max. no of cycles        MaxIter  .... 50

Convergence Tolerances:
Energy Change            TolE     ....  5.0000e-06 Eh
Max. Gradient            TolMAXG  ....  3.0000e-04 Eh/bohr
RMS Gradient             TolRMSG  ....  1.0000e-04 Eh/bohr
Max. Displacement        TolMAXD  ....  4.0000e-03 bohr
RMS Displacement         TolRMSD  ....  2.0000e-03 bohr
Strict Convergence                .... False

------------------------------------------------------------------------------
                        ORCA OPTIMIZATION COORDINATE SETUP
------------------------------------------------------------------------------

The optimization will be done in redundant internal coordinates (2022)
Making redundant internal coordinates   ...  (2022 redundants) done
Evaluating the initial hessian          ...  (Almloef) done
Evaluating the coordinates              ...  done
Calculating the B-matrix                .... done
Calculating the G-matrix                .... done
The number of degrees of freedom        ....   55

    -----------------------------------------------------------------
                    Redundant Internal Coordinates


    -----------------------------------------------------------------
         Definition                    Initial Value    Approx d2E/dq
    -----------------------------------------------------------------
      1. B(H   2,C   1)                  1.0897         0.360549   
      2. B(C   5,C   1)                  1.5264         0.378606   
      3. B(C   5,H   0)                  1.0978         0.349937   
      4. B(S   7,H   3)                  1.3284         0.404406   
      5. B(S   7,C   1)                  1.8211         0.345703   
      6. B(N   8,H   6)                  1.0136         0.426959   
      7. B(N   8,C   5)                  1.4537         0.442833   
      8. B(H   9,N   8)                  1.0149         0.424928   
      9. B(C  10,C   5)                  1.5297         0.373922   
     10. B(C  10,O   4)                  1.3368         0.680267   
     11. B(H  11,C   1)                  1.0884         0.362210   
     12. B(O  12,H   3)                  2.3174         0.010000   
     13. B(O  12,C  10)                  1.2028         1.113273   
     14. B(H  13,O   4)                  0.9706         0.500116   
     15. A(H   2,C   1,C   5)          111.0178         0.325099   
     16. A(H   2,C   1,H  11)          109.6824         0.291164   
     17. A(C   5,C   1,S   7)          112.5626         0.378379   
     18. A(H   2,C   1,S   7)          108.2408         0.336528   
     19. A(C   5,C   1,H  11)          109.0379         0.325345   
     20. A(S   7,C   1,H  11)          106.1639         0.336785   
     21. A(C  10,O   4,H  13)          110.6951         0.373564   
     22. A(C   1,C   5,N   8)          109.3159         0.372630   
     23. A(C   1,C   5,C  10)          111.1021         0.364241   
     24. A(H   0,C   5,N   8)          107.4898         0.329975   
     25. A(H   0,C   5,C  10)          107.2578         0.322848   
     26. A(N   8,C   5,C  10)          112.2079         0.371832   
     27. A(H   0,C   5,C   1)          109.3502         0.323508   
     28. A(C   1,S   7,H   3)           95.6665         0.367788   
     29. A(H   6,N   8,H   9)          108.2940         0.301734   
     30. A(C   5,N   8,H   9)          110.5440         0.337867   
     31. A(C   5,N   8,H   6)          110.4650         0.338136   
     32. A(O   4,C  10,C   5)          111.4200         0.400692   
     33. A(C   5,C  10,O  12)          125.9052         0.437454   
     34. A(O   4,C  10,O  12)          122.6495         0.484714   
     35. D(N   8,C   5,C   1,H   2)     72.6938         0.011429   
     36. D(N   8,C   5,C   1,S   7)   -165.7890         0.011429   
     37. D(H   0,C   5,C   1,H   2)   -169.8790         0.011429   
     38. D(H   0,C   5,C   1,H  11)     69.1723         0.011429   
     39. D(H   0,C   5,C   1,S   7)    -48.3618         0.011429   
     40. D(N   8,C   5,C   1,H  11)    -48.2548         0.011429   
     41. D(H   3,S   7,C   1,H   2)     52.9711         0.010000   
     42. D(H   3,S   7,C   1,H  11)    170.6649         0.010000   
     43. D(H   3,S   7,C   1,C   5)    -70.1130         0.010000   
     44. D(H   9,N   8,C   5,C   1)    -63.6799         0.016723   
     45. D(H   9,N   8,C   5,H   0)    177.7280         0.016723   
     46. D(H   6,N   8,C   5,C  10)    -59.8021         0.016723   
     47. D(H   6,N   8,C   5,C   1)    176.4754         0.016723   
     48. D(H   6,N   8,C   5,H   0)     57.8833         0.016723   
     49. D(C   5,C  10,O   4,H  13)   -179.4449         0.034470   
     50. D(O  12,C  10,C   5,C   1)     -1.9556         0.010455   
     51. D(O  12,C  10,C   5,H   0)    117.5025         0.010455   
     52. D(O   4,C  10,C   5,N   8)     53.5252         0.010455   
     53. D(O   4,C  10,C   5,C   1)    176.2437         0.010455   
     54. D(O   4,C  10,C   5,H   0)    -64.2982         0.010455   
     55. D(O  12,C  10,O   4,H  13)     -1.1772         0.034470   
    -----------------------------------------------------------------

Number of atoms                         .... 14
Number of degrees of freedom            .... 55


         *************************************************************
         *                GEOMETRY OPTIMIZATION CYCLE   1            *
         *************************************************************
---------------------------------
CARTESIAN COORDINATES (ANGSTROEM)
---------------------------------
  H     -1.634079    2.553527    1.462008
  C     -3.199085    1.808380    0.181055
  H     -3.311330    1.184400   -0.705179
  H     -3.424938   -0.178415    1.430244
  O      0.381629    1.019424    0.692360
  C     -1.726510    2.082174    0.474874
  H     -0.244619    3.258385   -0.294313
  S     -4.047307    0.987122    1.567591
  N     -1.206393    3.019342   -0.507190
  H     -1.235498    2.613583   -1.437036
  C     -0.922010    0.781701    0.515808
  H     -3.713061    2.755794    0.029824
  O     -1.366327   -0.327259    0.376426
  H      0.882793    0.188379    0.708001

----------------------------
CARTESIAN COORDINATES (A.U.)
----------------------------
  NO LB      ZA    FRAG     MASS         X           Y           Z
   0 H     1.0000    0     1.008   -3.087962    4.825466    2.762795
   1 C     6.0000    0    12.011   -6.045394    3.417343    0.342144
   2 H     1.0000    0     1.008   -6.257507    2.238191   -1.332595
   3 H     1.0000    0     1.008   -6.472195   -0.337155    2.702770
   4 O     8.0000    0    15.999    0.721174    1.926431    1.308372
   5 C     6.0000    0    12.011   -3.262631    3.934738    0.897383
   6 H     1.0000    0     1.008   -0.462262    6.157455   -0.556171
   7 S    16.0000    0    32.060   -7.648301    1.865390    2.962318
   8 N     7.0000    0    14.007   -2.279752    5.705730   -0.958449
   9 H     1.0000    0     1.008   -2.334753    4.938957   -2.715604
  10 C     6.0000    0    12.011   -1.742346    1.477200    0.974735
  11 H     1.0000    0     1.008   -7.016668    5.207695    0.056359
  12 O     8.0000    0    15.999   -2.581985   -0.618430    0.711342
  13 H     1.0000    0     1.008    1.668236    0.355984    1.337927

--------------------------------
INTERNAL COORDINATES (ANGSTROEM)
--------------------------------
 H      0   0   0     0.000000000000     0.00000000     0.00000000
 C      1   0   0     2.155302460118     0.00000000     0.00000000
 H      2   1   0     1.089660816409   139.12558949     0.00000000
 H      2   1   3     2.357718852014    92.63664280    87.65784463
 O      1   2   3     2.647434195766   100.35440975   346.41816628
 C      1   2   3     1.097793203659    41.92696973    14.51689083
 H      6   1   2     2.042332655838    91.73565398   141.77438299
 S      4   2   1     1.328413486195    50.23080833    90.36054231
 N      7   6   1     1.013640590891    41.82535844   233.91878178
 H      9   7   6     1.014938919712   108.29402722   238.80955130
 C      5   1   2     1.336845831817    53.05615497   340.26352270
 H      2   1   6     1.088409291779    97.15371838   242.93147154
 O     11   5   1     1.202762072454   122.64947969   204.78407761
 H      5   1   2     0.970590146271   152.20358861   278.84158455

---------------------------
INTERNAL COORDINATES (A.U.)
---------------------------
 H      0   0   0     0.000000000000     0.00000000     0.00000000
 C      1   0   0     4.072931385391     0.00000000     0.00000000
 H      2   1   0     2.059160521878   139.12558949     0.00000000
 H      2   1   3     4.455442931090    92.63664280    87.65784463
 O      1   2   3     5.002925587576   100.35440975   346.41816628
 C      1   2   3     2.074528506596    41.92696973    14.51689083
 H      6   1   2     3.859449393897    91.73565398   141.77438299
 S      4   2   1     2.510337681517    50.23080833    90.36054231
 N      7   6   1     1.915503115011    41.82535844   233.91878178
 H      9   7   6     1.917956600913   108.29402722   238.80955130
 C      5   1   2     2.526272505409    53.05615497   340.26352270
 H      2   1   6     2.056795483077    97.15371838   242.93147154
 O     11   5   1     2.272890921206   122.64947969   204.78407761
 H      5   1   2     1.834149564734   152.20358861   278.84158455

---------------------
BASIS SET INFORMATION
---------------------
There are 5 groups of distinct atoms

 Group   1 Type H   : 4s1p contracted to 2s1p pattern {31/1}
 Group   2 Type C   : 10s4p1d contracted to 3s2p1d pattern {631/31/1}
 Group   3 Type O   : 10s4p1d contracted to 3s2p1d pattern {631/31/1}
 Group   4 Type S   : 16s10p1d contracted to 4s3p1d pattern {6631/631/1}
 Group   5 Type N   : 10s4p1d contracted to 3s2p1d pattern {631/31/1}

Atom   0H    basis set group =>   1
Atom   1C    basis set group =>   2
Atom   2H    basis set group =>   1
Atom   3H    basis set group =>   1
Atom   4O    basis set group =>   3
Atom   5C    basis set group =>   2
Atom   6H    basis set group =>   1
Atom   7S    basis set group =>   4
Atom   8N    basis set group =>   5
Atom   9H    basis set group =>   1
Atom  10C    basis set group =>   2
Atom  11H    basis set group =>   1
Atom  12O    basis set group =>   3
Atom  13H    basis set group =>   1
------------------------------------------------------------------------------
                             ORCA STARTUP CALCULATIONS
------------------------------------------------------------------------------
------------------------------------------------------------------------------
                   ___                                                        
                  /   \      - P O W E R E D   B Y -                         
                 /     \                                                     
                 |  |  |   _    _      __       _____    __    __             
                 |  |  |  | |  | |    /  \     |  _  \  |  |  /  |          
                  \  \/   | |  | |   /    \    | | | |  |  | /  /          
                 / \  \   | |__| |  /  /\  \   | |_| |  |  |/  /          
                |  |  |   |  __  | /  /__\  \  |    /   |      \           
                |  |  |   | |  | | |   __   |  |    \   |  |\   \          
                \     /   | |  | | |  |  |  |  | |\  \  |  | \   \       
                 \___/    |_|  |_| |__|  |__|  |_| \__\ |__|  \__/        
                                                                              
                      - O R C A' S   B I G   F R I E N D -                    
                                      &                                       
                       - I N T E G R A L  F E E D E R -                       
                                                                              
 v1 FN, 2020, v2 2021, v3 2022-2024                                           
------------------------------------------------------------------------------


----------------------
SHARK INTEGRAL PACKAGE
----------------------

Number of atoms                             ...     14
Number of basis functions                   ...    137
Number of shells                            ...     65
Maximum angular momentum                    ...      2
Integral batch strategy                     ... SHARK/LIBINT Hybrid
RI-J (if used) integral strategy            ... SPLIT-RIJ (Revised 2003 algorithm where possible)
Printlevel                                  ...      1
Contraction scheme used                     ... SEGMENTED contraction
Prescreening option                         ... SCHWARTZ
   Thresh                                   ... 2.500e-11
   Tcut                                     ... 2.500e-12
   Tpresel                                  ... 2.500e-12 
Coulomb Range Separation                    ... NOT USED
Exchange Range Separation                   ... NOT USED
Multipole approximations                    ... NOT USED
Finite Nucleus Model                        ... NOT USED
CABS basis                                  ... NOT available
Auxiliary Coulomb fitting basis             ... NOT available
Auxiliary J/K fitting basis                 ... NOT available
Auxiliary Correlation fitting basis         ... NOT available
Auxiliary 'external' fitting basis          ... NOT available

Checking pre-screening integrals            ... done (  0.0 sec) Dimension = 65
   => SHARK Basis and OBASIS are compatible. Storing Pre-screening
Shell pair information
Shell pair cut-off parameter TPreSel        ...   2.5e-12
Total number of shell pairs                 ...      2145
Shell pairs after pre-screening             ...      2018
Total number of primitive shell pairs       ...     11826
Primitive shell pairs kept                  ...      7514
          la=0 lb=0:    620 shell pairs
          la=1 lb=0:    740 shell pairs
          la=1 lb=1:    240 shell pairs
          la=2 lb=0:    242 shell pairs
          la=2 lb=1:    148 shell pairs
          la=2 lb=2:     28 shell pairs

Checking whether 4 symmetric matrices of dimension 137 fit in memory
:Max Core in MB      =   4096.00
 MB in use           =      4.10
 MB left             =   4091.90
 MB needed           =      0.29
 Data fit in memory  = YES
Calculating Nuclear repulsion               ... done (  0.0 sec) ENN=    381.783373434086 Eh

Diagonalization of the overlap matrix:
Smallest eigenvalue                        ... 3.356e-03
Time for diagonalization                   ...    0.001 sec
Threshold for overlap eigenvalues          ... 1.000e-07
Number of eigenvalues below threshold      ... 0
Time for construction of square roots      ...    0.000 sec
Total time needed                          ...    0.001 sec

-------------------
DFT GRID GENERATION
-------------------

General Integration Accuracy     IntAcc      ... 4.388
Radial Grid Type                 RadialGrid  ... OptM3 with GC (2021)
Angular Grid (max. ang.)         AngularGrid ... 4 (Lebedev-302)
Angular grid pruning method      GridPruning ... 4 (adaptive)
Weight generation scheme         WeightScheme... mBecke (2022)
Basis function cutoff            BFCut       ... 1.0000e-11
Integration weight cutoff        WCut        ... 1.0000e-14
Partially contracted basis set               ... off
Rotationally invariant grid construction     ... off
Angular grids for H and He will be reduced by one unit

Total number of grid points                  ...    66137
Total number of batches                      ...     1040
Average number of points per batch           ...       63
Average number of grid points per atom       ...     4724
Grids setup in   0.2 sec
Initializing property integral containers    ... done (  0.0 sec)

SHARK setup successfully completed in   0.3 seconds

Maximum memory used throughout the entire STARTUP-calculation: 25.7 MB
-------------------------------------------------------------------------------
                                 ORCA GUESS
                   Start orbitals & Density for SCF / CASSCF
-------------------------------------------------------------------------------

------------
SCF SETTINGS
------------
Hamiltonian:
 Ab initio Hamiltonian  Method          .... Hartree-Fock(GTOs)


General Settings:
 Integral files         IntName         .... 5
 Hartree-Fock type      HFTyp           .... RHF
 Total Charge           Charge          ....    0
 Multiplicity           Mult            ....    1
 Number of Electrons    NEL             ....   64
 Basis Dimension        Dim             ....  137
 Nuclear Repulsion      ENuc            ....    381.7833734341 Eh

Convergence Acceleration:
 AO-DIIS                CNVDIIS         .... on
   Start iteration      DIISMaxIt       ....    12
   Startup error        DIISStart       ....  0.200000
   # of expansion vecs  DIISMaxEq       ....     5
   Bias factor          DIISBfac        ....   1.050
   Max. coefficient     DIISMaxC        ....  10.000
 MO-DIIS                CNVKDIIS        .... off
 Trust-Rad. Augm. Hess. CNVTRAH         .... auto
   Auto Start mean grad. ratio tolernc. ....  1.125000
   Auto Start start iteration           ....    50
   Auto Start num. interpolation iter.  ....    10
   Max. Number of Micro iterations      ....    24
   Max. Number of Macro iterations      .... Maxiter - #DIIS iter
   Number of Davidson start vectors     ....     2
   Converg. threshold    (grad. norm)   ....   1.000e-05
   Grad. Scal. Fac. for Micro threshold ....   0.100
   Minimum threshold for Micro iter.    ....   1.000e-02
   NR start threshold (gradient norm)   ....   1.000e-04
   Initial trust radius                 ....   0.400
   Minimum AH scaling param. (alpha)    ....   1.000
   Maximum AH scaling param. (alpha)    .... 1000.000
   Quad. conv. algorithm                .... NR
   White noise on init. David. guess    .... on
   Maximum white noise                  ....   0.010
   Pseudo random numbers                .... off
   Inactive MOs                         .... canonical
   Orbital update algorithm             .... Taylor
   Preconditioner                       .... Diag
   Full preconditioner red. dimension   ....   250
 SOSCF                 CNVSOSCF           .... on
   Start iteration     SOSCFMaxIt         ....   150
   Startup grad/error  SOSCFStart         ....  0.003300
   Hessian update      SOSCFHessUp        .... L-BFGS
   Autom. constraints  SOSCFAutoConstrain .... off
 Level Shifting         CNVShift        .... on
   Level shift para.    LevelShift      ....    0.2500
   Turn off err/grad.   ShiftErr        ....    0.0010
 Zerner damping         CNVZerner       .... off
 Static damping         CNVDamp         .... on
   Fraction old density DampFac         ....    0.7000
   Max. Damping (<1)    DampMax         ....    0.9800
   Min. Damping (>=0)   DampMin         ....    0.0000
   Turn off err/grad.   DampErr         ....    0.1000

SCF Procedure:
 Maximum # iterations   MaxIter         ....   125
 SCF integral mode      SCFMode         .... Direct
   Integral package                     .... SHARK and LIBINT hybrid scheme
 Reset frequency        DirectResetFreq ....    20
 Integral Threshold     Thresh          ....  2.500e-11 Eh
 Primitive CutOff       TCut            ....  2.500e-12 Eh

Convergence Tolerance:
 Convergence Check Mode ConvCheckMode   .... Total+1el-Energy
 Convergence forced     ConvForced      .... 1
 Energy Change          TolE            ....  1.000e-08 Eh
 1-El. energy change                    ....  1.000e-05 Eh
 Orbital Gradient       TolG            ....  1.000e-05
 Orbital Rotation angle TolX            ....  1.000e-05
 DIIS Error             TolErr          ....  5.000e-07

------------------------------
INITIAL GUESS: MODEL POTENTIAL
------------------------------
Loading Hartree-Fock densities                     ... done
Calculating cut-offs                               ... done
Initializing the effective Hamiltonian             ... done
Setting up the integral package (SHARK)            ... done
Starting the Coulomb interaction                   ... done (   0.0 sec)
Making the grid                                    ... done (   0.1 sec)
Mapping shells                                     ... done
Starting the XC term evaluation                    ... done (   0.0 sec)
Transforming the Hamiltonian                       ... done (   0.0 sec)
Diagonalizing the Hamiltonian                      ... done (   0.0 sec)
Back transforming the eigenvectors                 ... done (   0.0 sec)
Now organizing SCF variables                       ... done
                      ------------------
                      INITIAL GUESS DONE (   0.1 sec)
                      ------------------
             **** ENERGY FILE WAS UPDATED (5.en.tmp) ****
Finished Guess after   0.1 sec
Maximum memory used throughout the entire GUESS-calculation: 8.3 MB

-------------------------------------------------------------------------------------------
                                      ORCA LEAN-SCF
                              memory conserving SCF solver
-------------------------------------------------------------------------------------------

----------------------------------------D-I-I-S--------------------------------------------
Iteration    Energy (Eh)           Delta-E    RMSDP     MaxDP     DIISErr   Damp  Time(sec)
-------------------------------------------------------------------------------------------
               ***  Starting incremental Fock matrix formation  ***
    1    -719.1084780597390136     0.00e+00  2.85e-03  6.28e-02  2.54e-01  0.700   0.8
    2    -719.2097877333864062    -1.01e-01  2.14e-03  4.53e-02  1.56e-01  0.700   0.8
                               ***Turning on AO-DIIS***
    3    -719.2684683936537340    -5.87e-02  1.19e-03  2.93e-02  8.98e-02  0.700   0.8
    4    -719.3055025426180009    -3.70e-02  2.74e-03  6.97e-02  6.40e-02  0.000   0.8
    5    -719.3884880185700013    -8.30e-02  3.27e-04  7.24e-03  7.05e-03  0.000   0.8
    6    -719.3888842651191453    -3.96e-04  1.61e-04  2.97e-03  3.70e-03  0.000   0.8
                              *** Initializing SOSCF ***
---------------------------------------S-O-S-C-F--------------------------------------
Iteration    Energy (Eh)           Delta-E    RMSDP     MaxDP     MaxGrad    Time(sec)
--------------------------------------------------------------------------------------
    7    -719.3889719879015274    -8.77e-05  9.36e-05  2.59e-03  2.38e-03     0.7
               *** Restarting incremental Fock matrix formation ***
    8    -719.3889995939356368    -2.76e-05  4.69e-05  9.04e-04  6.44e-04     0.8
    9    -719.3890060069292076    -6.41e-06  5.06e-05  1.51e-03  4.08e-04     0.7
   10    -719.3890083966822431    -2.39e-06  9.13e-06  2.50e-04  1.28e-04     0.7
   11    -719.3890085873241560    -1.91e-07  3.27e-06  7.83e-05  4.20e-05     0.6
   12    -719.3890086196100810    -3.23e-08  1.01e-06  3.20e-05  9.89e-06     0.6
   13    -719.3890086226666654    -3.06e-09  4.75e-07  1.21e-05  2.31e-06     0.6
                 **** Energy Check signals convergence ****

               *****************************************************
               *                     SUCCESS                       *
               *           SCF CONVERGED AFTER  13 CYCLES          *
               *****************************************************

             **** ENERGY FILE WAS UPDATED (5.en.tmp) ****

----------------
TOTAL SCF ENERGY
----------------

Total Energy       :       -719.38900862327716 Eh          -19575.57013 eV

Components:
Nuclear Repulsion  :        381.78337343408600 Eh           10388.85375 eV
Electronic Energy  :      -1101.17238205736317 Eh          -29964.42388 eV
One Electron Energy:      -1748.30908725494191 Eh          -47573.90887 eV
Two Electron Energy:        647.13670519757875 Eh           17609.48500 eV

Virial components:
Potential Energy   :      -1438.48411199444263 Eh          -39143.14269 eV
Kinetic Energy     :        719.09510337116535 Eh           19567.57256 eV
Virial Ratio       :          2.00040871541293

---------------
SCF CONVERGENCE
---------------

  Last Energy change         ...    3.0566e-09  Tolerance :   1.0000e-08
  Last MAX-Density change    ...    1.2106e-05  Tolerance :   1.0000e-07
  Last RMS-Density change    ...    4.7497e-07  Tolerance :   5.0000e-09
  Last DIIS Error            ...    2.3769e-03  Tolerance :   5.0000e-07
  Last Orbital Gradient      ...    2.3140e-06  Tolerance :   1.0000e-05
  Last Orbital Rotation      ...    5.8923e-06  Tolerance :   1.0000e-05


----------------
ORBITAL ENERGIES
----------------

  NO   OCC          E(Eh)            E(eV) 
   0   2.0000     -91.924626     -2501.3962 
   1   2.0000     -20.630405      -561.3819 
   2   2.0000     -20.569197      -559.7163 
   3   2.0000     -15.565139      -423.5490 
   4   2.0000     -11.397432      -310.1399 
   5   2.0000     -11.288516      -307.1761 
   6   2.0000     -11.264214      -306.5149 
   7   2.0000      -8.941455      -243.3093 
   8   2.0000      -6.623693      -180.2399 
   9   2.0000      -6.622349      -180.2033 
  10   2.0000      -6.620282      -180.1470 
  11   2.0000      -1.482912       -40.3521 
  12   2.0000      -1.377153       -37.4742 
  13   2.0000      -1.214328       -33.0435 
  14   2.0000      -1.060238       -28.8505 
  15   2.0000      -0.958448       -26.0807 
  16   2.0000      -0.878860       -23.9150 
  17   2.0000      -0.803462       -21.8633 
  18   2.0000      -0.724920       -19.7261 
  19   2.0000      -0.713458       -19.4142 
  20   2.0000      -0.677260       -18.4292 
  21   2.0000      -0.649942       -17.6858 
  22   2.0000      -0.616724       -16.7819 
  23   2.0000      -0.605350       -16.4724 
  24   2.0000      -0.569078       -15.4854 
  25   2.0000      -0.530568       -14.4375 
  26   2.0000      -0.523836       -14.2543 
  27   2.0000      -0.493210       -13.4209 
  28   2.0000      -0.485182       -13.2025 
  29   2.0000      -0.448620       -12.2076 
  30   2.0000      -0.405114       -11.0237 
  31   2.0000      -0.351869        -9.5748 
  32   0.0000       0.157894         4.2965 
  33   0.0000       0.194490         5.2923 
  34   0.0000       0.210177         5.7192 
  35   0.0000       0.235928         6.4199 
  36   0.0000       0.254184         6.9167 
  37   0.0000       0.274526         7.4702 
  38   0.0000       0.282058         7.6752 
  39   0.0000       0.301435         8.2025 
  40   0.0000       0.326288         8.8788 
  41   0.0000       0.374609        10.1936 
  42   0.0000       0.432792        11.7769 
*Only the first 10 virtual orbitals were printed.

                    ********************************
                    * MULLIKEN POPULATION ANALYSIS *
                    ********************************

-----------------------
MULLIKEN ATOMIC CHARGES
-----------------------
   0 H :    0.179359
   1 C :   -0.371207
   2 H :    0.164129
   3 H :    0.093803
   4 O :   -0.641599
   5 C :   -0.030719
   6 H :    0.292282
   7 S :   -0.042405
   8 N :   -0.689236
   9 H :    0.270588
  10 C :    0.804565
  11 H :    0.180504
  12 O :   -0.586042
  13 H :    0.375979
Sum of atomic charges:   -0.0000000

--------------------------------
MULLIKEN REDUCED ORBITAL CHARGES
--------------------------------
  0 H s       :     0.808384  s :     0.808384
      pz      :     0.007955  p :     0.012257
      px      :     0.001422
      py      :     0.002880

  1 C s       :     3.304623  s :     3.304623
      pz      :     1.000053  p :     3.018906
      px      :     0.917464
      py      :     1.101390
      dz2     :     0.010975  d :     0.047677
      dxz     :     0.006701
      dyz     :     0.010363
      dx2y2   :     0.010210
      dxy     :     0.009429

  2 H s       :     0.822983  s :     0.822983
      pz      :     0.006704  p :     0.012888
      px      :     0.001703
      py      :     0.004481

  3 H s       :     0.887745  s :     0.887745
      pz      :     0.002924  p :     0.018452
      px      :     0.005946
      py      :     0.009581

  4 O s       :     3.837077  s :     3.837077
      pz      :     1.842968  p :     4.779199
      px      :     1.335949
      py      :     1.600282
      dz2     :     0.003542  d :     0.025323
      dxz     :     0.003583
      dyz     :     0.001601
      dx2y2   :     0.009003
      dxy     :     0.007594

  5 C s       :     3.215045  s :     3.215045
      pz      :     1.010719  p :     2.744915
      px      :     0.888158
      py      :     0.846038
      dz2     :     0.015641  d :     0.070758
      dxz     :     0.009063
      dyz     :     0.014796
      dx2y2   :     0.014782
      dxy     :     0.016477

  6 H s       :     0.681428  s :     0.681428
      pz      :     0.004102  p :     0.026290
      px      :     0.014907
      py      :     0.007281

  7 S s       :     5.841719  s :     5.841719
      pz      :     3.414531  p :    10.131649
      px      :     3.642333
      py      :     3.074785
      dz2     :     0.015018  d :     0.069037
      dxz     :     0.012666
      dyz     :     0.010982
      dx2y2   :     0.008789
      dxy     :     0.021583

  8 N s       :     3.609084  s :     3.609084
      pz      :     1.129806  p :     4.045804
      px      :     1.370822
      py      :     1.545175
      dz2     :     0.007915  d :     0.034348
      dxz     :     0.002294
      dyz     :     0.012293
      dx2y2   :     0.009878
      dxy     :     0.001968

  9 H s       :     0.703257  s :     0.703257
      pz      :     0.014201  p :     0.026155
      px      :     0.004976
      py      :     0.006979

 10 C s       :     2.943038  s :     2.943038
      pz      :     0.620074  p :     2.106200
      px      :     0.657179
      py      :     0.828946
      dz2     :     0.009330  d :     0.146197
      dxz     :     0.018737
      dyz     :     0.021627
      dx2y2   :     0.051998
      dxy     :     0.044504

 11 H s       :     0.806582  s :     0.806582
      pz      :     0.001886  p :     0.012915
      px      :     0.003183
      py      :     0.007846

 12 O s       :     3.877211  s :     3.877211
      pz      :     1.475920  p :     4.676236
      px      :     1.769912
      py      :     1.430403
      dz2     :     0.002920  d :     0.032595
      dxz     :     0.001848
      dyz     :     0.011542
      dx2y2   :     0.007913
      dxy     :     0.008372

 13 H s       :     0.582390  s :     0.582390
      pz      :     0.008786  p :     0.041631
      px      :     0.011731
      py      :     0.021114



                     *******************************
                     * LOEWDIN POPULATION ANALYSIS *
                     *******************************

----------------------
LOEWDIN ATOMIC CHARGES
----------------------
   0 H :    0.092773
   1 C :   -0.207117
   2 H :    0.081167
   3 H :    0.046231
   4 O :   -0.208760
   5 C :   -0.031458
   6 H :    0.136568
   7 S :    0.012728
   8 N :   -0.275632
   9 H :    0.129000
  10 C :    0.232719
  11 H :    0.093843
  12 O :   -0.305597
  13 H :    0.203535

-------------------------------
LOEWDIN REDUCED ORBITAL CHARGES
-------------------------------
  0 H s       :     0.867243  s :     0.867243
      pz      :     0.023885  p :     0.039984
      px      :     0.006110
      py      :     0.009988

  1 C s       :     2.937747  s :     2.937747
      pz      :     1.058328  p :     3.180742
      px      :     1.025691
      py      :     1.096723
      dz2     :     0.020026  d :     0.088628
      dxz     :     0.014113
      dyz     :     0.017684
      dx2y2   :     0.019691
      dxy     :     0.017115

  2 H s       :     0.876150  s :     0.876150
      pz      :     0.021890  p :     0.042683
      px      :     0.006612
      py      :     0.014181

  3 H s       :     0.903051  s :     0.903051
      pz      :     0.008016  p :     0.050718
      px      :     0.016030
      py      :     0.026673

  4 O s       :     3.455653  s :     3.455653
      pz      :     1.792396  p :     4.705171
      px      :     1.343938
      py      :     1.568837
      dz2     :     0.006605  d :     0.047936
      dxz     :     0.006071
      dyz     :     0.001200
      dx2y2   :     0.017351
      dxy     :     0.016709

  5 C s       :     2.875878  s :     2.875878
      pz      :     1.029366  p :     3.014395
      px      :     1.008975
      py      :     0.976054
      dz2     :     0.029776  d :     0.141184
      dxz     :     0.017373
      dyz     :     0.028534
      dx2y2   :     0.031750
      dxy     :     0.033751

  6 H s       :     0.780619  s :     0.780619
      pz      :     0.012555  p :     0.082814
      px      :     0.046738
      py      :     0.023521

  7 S s       :     5.621107  s :     5.621107
      pz      :     3.488573  p :    10.289935
      px      :     3.669053
      py      :     3.132309
      dz2     :     0.016455  d :     0.076230
      dxz     :     0.014591
      dyz     :     0.013052
      dx2y2   :     0.009605
      dxy     :     0.022527

  8 N s       :     3.187684  s :     3.187684
      pz      :     1.149923  p :     4.026796
      px      :     1.341961
      py      :     1.534912
      dz2     :     0.016672  d :     0.061152
      dxz     :     0.005620
      dyz     :     0.019825
      dx2y2   :     0.014176
      dxy     :     0.004859

  9 H s       :     0.789246  s :     0.789246
      pz      :     0.041852  p :     0.081754
      px      :     0.015748
      py      :     0.024154

 10 C s       :     2.848920  s :     2.848920
      pz      :     0.662469  p :     2.602045
      px      :     0.886302
      py      :     1.053274
      dz2     :     0.020488  d :     0.316315
      dxz     :     0.039714
      dyz     :     0.040549
      dx2y2   :     0.114557
      dxy     :     0.101007

 11 H s       :     0.863841  s :     0.863841
      pz      :     0.007238  p :     0.042316
      px      :     0.011001
      py      :     0.024077

 12 O s       :     3.547511  s :     3.547511
      pz      :     1.446713  p :     4.700740
      px      :     1.742364
      py      :     1.511664
      dz2     :     0.006811  d :     0.057346
      dxz     :     0.002440
      dyz     :     0.012891
      dx2y2   :     0.018351
      dxy     :     0.016852

 13 H s       :     0.675892  s :     0.675892
      pz      :     0.027231  p :     0.120573
      px      :     0.032673
      py      :     0.060670



                      *****************************
                      * MAYER POPULATION ANALYSIS *
                      *****************************

  NA   - Mulliken gross atomic population
  ZA   - Total nuclear charge
  QA   - Mulliken gross atomic charge
  VA   - Mayer's total valence
  BVA  - Mayer's bonded valence
  FA   - Mayer's free valence

  ATOM       NA         ZA         QA         VA         BVA        FA
  0 H      0.8206     1.0000     0.1794     0.9355     0.9355    -0.0000
  1 C      6.3712     6.0000    -0.3712     3.7805     3.7805    -0.0000
  2 H      0.8359     1.0000     0.1641     0.9375     0.9375     0.0000
  3 H      0.9062     1.0000     0.0938     0.9689     0.9689     0.0000
  4 O      8.6416     8.0000    -0.6416     1.8345     1.8345    -0.0000
  5 C      6.0307     6.0000    -0.0307     3.7213     3.7213    -0.0000
  6 H      0.7077     1.0000     0.2923     0.8992     0.8992    -0.0000
  7 S     16.0424    16.0000    -0.0424     1.9001     1.9001    -0.0000
  8 N      7.6892     7.0000    -0.6892     2.7485     2.7485    -0.0000
  9 H      0.7294     1.0000     0.2706     0.9048     0.9048    -0.0000
 10 C      5.1954     6.0000     0.8046     3.6711     3.6711     0.0000
 11 H      0.8195     1.0000     0.1805     0.9371     0.9371     0.0000
 12 O      8.5860     8.0000    -0.5860     1.8815     1.8815    -0.0000
 13 H      0.6240     1.0000     0.3760     0.8692     0.8692    -0.0000

  Mayer bond orders larger than 0.100000
B(  0-H ,  5-C ) :   0.9489 B(  1-C ,  2-H ) :   0.9529 B(  1-C ,  5-C ) :   0.9487 
B(  1-C ,  7-S ) :   0.9692 B(  1-C , 11-H ) :   0.9576 B(  3-H ,  7-S ) :   0.9497 
B(  4-O , 10-C ) :   0.9826 B(  4-O , 13-H ) :   0.8376 B(  5-C ,  8-N ) :   0.9627 
B(  5-C , 10-C ) :   0.9162 B(  6-H ,  8-N ) :   0.8977 B(  8-N ,  9-H ) :   0.9061 
B( 10-C , 12-O ) :   1.7998 

-------
TIMINGS
-------

Total SCF time: 0 days 0 hours 0 min 10 sec 

Total time                  ....      10.079 sec
Sum of individual times     ....       9.545 sec  ( 94.7%)

SCF preparation             ....       0.015 sec  (  0.1%)
Fock matrix formation       ....       9.500 sec  ( 94.3%)
  Startup                   ....       0.000 sec  (  0.0% of F)
  Coulomb+Exchange Fock     ....      10.024 sec  (105.5% of F)
Diagonalization             ....       0.000 sec  (  0.0%)
Density matrix formation    ....       0.003 sec  (  0.0%)
Total Energy calculation    ....       0.001 sec  (  0.0%)
Population analysis         ....       0.002 sec  (  0.0%)
Orbital Transformation      ....       0.004 sec  (  0.0%)
Orbital Orthonormalization  ....       0.000 sec  (  0.0%)
DIIS solution               ....       0.014 sec  (  0.1%)
SOSCF solution              ....       0.007 sec  (  0.1%)
Finished LeanSCF after  10.1 sec

Maximum memory used throughout the entire LEANSCF-calculation: 11.8 MB

------------------------------------------------------------------------------
                                ORCA  MP2 
------------------------------------------------------------------------------

Freezing NCore=22 chemical core electrons
MP2 will be done in the AO integral direct mode
The Q1-step will be done using symmetric double matrices
Dimension of the basis                    ...  137
Memory devoted for MP2                    ... 4096 MB   
Memory needed for all in one shot         ...  208 MB
Number of MOs that can be treated together...  413      
MP2 density construction                  ... relaxed
The MP2 gradient is requested => amplitudes will be stored on disk
Total number of MOs              ...   21
Number of MOs treated per batch  ...   21 
Number of batches necessary      ...    1 
OPERATORS   0/  0 PASS   0
-----------------------------------------------
 MP2 CORRELATION ENERGY   :     -1.054892067 Eh
-----------------------------------------------


---------------------
MP2 DENSITY FORMATION
---------------------

Completing the external part of the density      ... done
Storing the unrelaxed density                    ... done

Calculating G(D)                                 ... done
Completing the Lagrangian                        ... done
Solving the Z-vector equations                   ... 
-------------------
SHARK CP-SCF DRIVER
-------------------

Dimension of the orbital basis          ...    137
Dimension of the CPSCF-problem          ...   3360
Number of operators                     ...      1
Max. number of iterations               ...    128
Convergence Tolerance                   ... 1.0e-04
Number of perturbations                 ...      1
Perturbation type                       ... REAL

----------------------------
POPLE LINEAR EQUATION SOLVER
----------------------------

  ITERATION   0:   ||err||_max =   1.2438e-01 (   1.0 sec)
  ITERATION   1:   ||err||_max =   3.0764e-02 (   1.0 sec)
  ITERATION   2:   ||err||_max =   1.3237e-02 (   1.0 sec)
  ITERATION   3:   ||err||_max =   3.5812e-03 (   1.0 sec)
  ITERATION   4:   ||err||_max =   1.2007e-03 (   1.0 sec)
  ITERATION   5:   ||err||_max =   3.8969e-04 (   1.0 sec)
  ITERATION   6:   ||err||_max =   1.5477e-04 (   1.0 sec)
  ITERATION   7:   ||err||_max =   6.3215e-05 (   1.0 sec)
                                                 ... done
Finalizing the relaxed density                   ... done
Transforming P to the AO basis                   ... done
Storing the relaxed density                      ... done

------------------------------------
ENERGY WEIGHTED DENSITY FINALIZATION
------------------------------------

Gathering the parts of the W-matrix              ...                                                      done
Forming the Z-density                            ... done
Transforming Z to the AO basis                   ... done
Calculating G(Z)                                 ... done
Finalizing the W-matrix                          ...                                                      done
Transforming W to the AO basis and storing       ... done

                *********************************************
                * UNRELAXED MP2 DENSITY POPULATION ANALYSIS *
                *********************************************

------------------------------------------------------------------------------
                           ORCA POPULATION ANALYSIS
------------------------------------------------------------------------------
Input electron density              ... 5.pmp2ur
BaseName (.gbw .S,...)              ... 5

                    ********************************
                    * MULLIKEN POPULATION ANALYSIS *
                    ********************************

-----------------------
MULLIKEN ATOMIC CHARGES
-----------------------
   0 H :    0.179813
   1 C :   -0.374322
   2 H :    0.164451
   3 H :    0.093072
   4 O :   -0.628016
   5 C :   -0.036435
   6 H :    0.290878
   7 S :   -0.039176
   8 N :   -0.681779
   9 H :    0.269402
  10 C :    0.771239
  11 H :    0.180901
  12 O :   -0.562847
  13 H :    0.372819
Sum of atomic charges:   -0.0000000

--------------------------------
MULLIKEN REDUCED ORBITAL CHARGES
--------------------------------
  0 H s       :     0.805286  s :     0.805286
      pz      :     0.008632  p :     0.014901
      px      :     0.002452
      py      :     0.003817
  1 C s       :     3.300507  s :     3.300507
      pz      :     0.996891  p :     3.010035
      px      :     0.915664
      py      :     1.097479
      dz2     :     0.014169  d :     0.063780
      dxz     :     0.010064
      dyz     :     0.013449
      dx2y2   :     0.013296
      dxy     :     0.012802
  2 H s       :     0.820003  s :     0.820003
      pz      :     0.007452  p :     0.015546
      px      :     0.002744
      py      :     0.005350
  3 H s       :     0.885609  s :     0.885609
      pz      :     0.004038  p :     0.021318
      px      :     0.006986
      py      :     0.010294
  4 O s       :     3.832912  s :     3.832912
      pz      :     1.829212  p :     4.746777
      px      :     1.327355
      py      :     1.590210
      dz2     :     0.008108  d :     0.048328
      dxz     :     0.008466
      dyz     :     0.006142
      dx2y2   :     0.013352
      dxy     :     0.012260
  5 C s       :     3.211848  s :     3.211848
      pz      :     1.007622  p :     2.738417
      px      :     0.885383
      py      :     0.845412
      dz2     :     0.018557  d :     0.086170
      dxz     :     0.012469
      dyz     :     0.017837
      dx2y2   :     0.017920
      dxy     :     0.019388
  6 H s       :     0.680866  s :     0.680866
      pz      :     0.004905  p :     0.028256
      px      :     0.015257
      py      :     0.008094
  7 S s       :     5.833074  s :     5.833074
      pz      :     3.401430  p :    10.097135
      px      :     3.624680
      py      :     3.071025
      dz2     :     0.023187  d :     0.108968
      dxz     :     0.021058
      dyz     :     0.018514
      dx2y2   :     0.016784
      dxy     :     0.029425
  8 N s       :     3.604416  s :     3.604416
      pz      :     1.124220  p :     4.021086
      px      :     1.362617
      py      :     1.534248
      dz2     :     0.012219  d :     0.056277
      dxz     :     0.006643
      dyz     :     0.016372
      dx2y2   :     0.014410
      dxy     :     0.006633
  9 H s       :     0.702394  s :     0.702394
      pz      :     0.014550  p :     0.028204
      px      :     0.005840
      py      :     0.007814
 10 C s       :     2.944771  s :     2.944771
      pz      :     0.636819  p :     2.127314
      px      :     0.662946
      py      :     0.827549
      dz2     :     0.011119  d :     0.156677
      dxz     :     0.020905
      dyz     :     0.023738
      dx2y2   :     0.054191
      dxy     :     0.046724
 11 H s       :     0.803585  s :     0.803585
      pz      :     0.002886  p :     0.015514
      px      :     0.004121
      py      :     0.008507
 12 O s       :     3.872604  s :     3.872604
      pz      :     1.459546  p :     4.635897
      px      :     1.755625
      py      :     1.420725
      dz2     :     0.007083  d :     0.054347
      dxz     :     0.006278
      dyz     :     0.015728
      dx2y2   :     0.012394
      dxy     :     0.012863
 13 H s       :     0.584421  s :     0.584421
      pz      :     0.009420  p :     0.042760
      px      :     0.012080
      py      :     0.021260


                     *******************************
                     * LOEWDIN POPULATION ANALYSIS *
                     *******************************

----------------------
LOEWDIN ATOMIC CHARGES
----------------------
   0 H :    0.092787
   1 C :   -0.210167
   2 H :    0.081203
   3 H :    0.044891
   4 O :   -0.200166
   5 C :   -0.035414
   6 H :    0.135829
   7 S :    0.017353
   8 N :   -0.271372
   9 H :    0.128340
  10 C :    0.208471
  11 H :    0.093900
  12 O :   -0.286883
  13 H :    0.201227

-------------------------------
LOEWDIN REDUCED ORBITAL CHARGES
-------------------------------
  0 H s       :     0.862546  s :     0.862546
      pz      :     0.025753  p :     0.044667
      px      :     0.007470
      py      :     0.011444
  1 C s       :     2.937556  s :     2.937556
      pz      :     1.053686  p :     3.165562
      px      :     1.020600
      py      :     1.091276
      dz2     :     0.023731  d :     0.107049
      dxz     :     0.017710
      dyz     :     0.021262
      dx2y2   :     0.023430
      dxy     :     0.020916
  2 H s       :     0.871529  s :     0.871529
      pz      :     0.023701  p :     0.047268
      px      :     0.007896
      py      :     0.015670
  3 H s       :     0.900572  s :     0.900572
      pz      :     0.009199  p :     0.054536
      px      :     0.017264
      py      :     0.028074
  4 O s       :     3.453731  s :     3.453731
      pz      :     1.779181  p :     4.674010
      px      :     1.335748
      py      :     1.559081
      dz2     :     0.011626  d :     0.072424
      dxz     :     0.011088
      dyz     :     0.005657
      dx2y2   :     0.022298
      dxy     :     0.021755
  5 C s       :     2.876269  s :     2.876269
      pz      :     1.024316  p :     3.000176
      px      :     1.003552
      py      :     0.972308
      dz2     :     0.033168  d :     0.158970
      dxz     :     0.021022
      dyz     :     0.032346
      dx2y2   :     0.035342
      dxy     :     0.037093
  6 H s       :     0.777744  s :     0.777744
      pz      :     0.013585  p :     0.086428
      px      :     0.048435
      py      :     0.024407
  7 S s       :     5.613205  s :     5.613205
      pz      :     3.473613  p :    10.250817
      px      :     3.650401
      py      :     3.126803
      dz2     :     0.025111  d :     0.118624
      dxz     :     0.023804
      dyz     :     0.020970
      dx2y2   :     0.017859
      dxy     :     0.030879
  8 N s       :     3.185808  s :     3.185808
      pz      :     1.143495  p :     4.000557
      px      :     1.333294
      py      :     1.523769
      dz2     :     0.021422  d :     0.085007
      dxz     :     0.010061
      dyz     :     0.024585
      dx2y2   :     0.019172
      dxy     :     0.009767
  9 H s       :     0.786177  s :     0.786177
      pz      :     0.043498  p :     0.085483
      px      :     0.016701
      py      :     0.025284
 10 C s       :     2.849663  s :     2.849663
      pz      :     0.677416  p :     2.614139
      px      :     0.887580
      py      :     1.049143
      dz2     :     0.023476  d :     0.327727
      dxz     :     0.041767
      dyz     :     0.042524
      dx2y2   :     0.116887
      dxy     :     0.103073
 11 H s       :     0.859285  s :     0.859285
      pz      :     0.008503  p :     0.046815
      px      :     0.012453
      py      :     0.025859
 12 O s       :     3.544451  s :     3.544451
      pz      :     1.431234  p :     4.660764
      px      :     1.728515
      py      :     1.501015
      dz2     :     0.011409  d :     0.081667
      dxz     :     0.006977
      dyz     :     0.017609
      dx2y2   :     0.023601
      dxy     :     0.022072
 13 H s       :     0.675779  s :     0.675779
      pz      :     0.027848  p :     0.122994
      px      :     0.033385
      py      :     0.061760


                      *****************************
                      * MAYER POPULATION ANALYSIS *
                      *****************************

  NA   - Mulliken gross atomic population
  ZA   - Total nuclear charge
  QA   - Mulliken gross atomic charge
  VA   - Mayer's total valence
  BVA  - Mayer's bonded valence
  FA   - Mayer's free valence

  ATOM       NA         ZA         QA         VA         BVA        FA
  0 H      0.8202     1.0000     0.1798     0.9435     0.8961     0.0474
  1 C      6.3743     6.0000    -0.3743     3.8729     3.5854     0.2876
  2 H      0.8355     1.0000     0.1645     0.9459     0.8986     0.0473
  3 H      0.9069     1.0000     0.0931     0.9776     0.9241     0.0536
  4 O      8.6280     8.0000    -0.6280     2.0929     1.7371     0.3558
  5 C      6.0364     6.0000    -0.0364     3.7971     3.5191     0.2780
  6 H      0.7091     1.0000     0.2909     0.9061     0.8614     0.0447
  7 S     16.0392    16.0000    -0.0392     2.1499     1.7866     0.3633
  8 N      7.6818     7.0000    -0.6818     2.9424     2.6153     0.3271
  9 H      0.7306     1.0000     0.2694     0.9121     0.8663     0.0458
 10 C      5.2288     6.0000     0.7712     3.7349     3.4449     0.2900
 11 H      0.8191     1.0000     0.1809     0.9449     0.8987     0.0462
 12 O      8.5628     8.0000    -0.5628     2.1480     1.7489     0.3992
 13 H      0.6272     1.0000     0.3728     0.8761     0.8323     0.0438

  Mayer bond orders larger than 0.100000
B(  0-H ,  5-C ) :   0.9118 B(  1-C ,  2-H ) :   0.9155 B(  1-C ,  5-C ) :   0.8954 
B(  1-C ,  7-S ) :   0.9033 B(  1-C , 11-H ) :   0.9205 B(  3-H ,  7-S ) :   0.9059 
B(  4-O , 10-C ) :   0.9289 B(  4-O , 13-H ) :   0.8031 B(  5-C ,  8-N ) :   0.9066 
B(  5-C , 10-C ) :   0.8665 B(  6-H ,  8-N ) :   0.8616 B(  8-N ,  9-H ) :   0.8689 
B( 10-C , 12-O ) :   1.6810 


                *******************************************
                * RELAXED MP2 DENSITY POPULATION ANALYSIS *
                *******************************************

------------------------------------------------------------------------------
                           ORCA POPULATION ANALYSIS
------------------------------------------------------------------------------
Input electron density              ... 5.pmp2re
BaseName (.gbw .S,...)              ... 5

                    ********************************
                    * MULLIKEN POPULATION ANALYSIS *
                    ********************************

-----------------------
MULLIKEN ATOMIC CHARGES
-----------------------
   0 H :    0.164132
   1 C :   -0.356424
   2 H :    0.150965
   3 H :    0.087859
   4 O :   -0.529022
   5 C :   -0.046226
   6 H :    0.272965
   7 S :   -0.043135
   8 N :   -0.620273
   9 H :    0.254818
  10 C :    0.580047
  11 H :    0.169247
  12 O :   -0.432450
  13 H :    0.347499
Sum of atomic charges:   -0.0000000

--------------------------------
MULLIKEN REDUCED ORBITAL CHARGES
--------------------------------
  0 H s       :     0.821806  s :     0.821806
      pz      :     0.007660  p :     0.014062
      px      :     0.002704
      py      :     0.003699
  1 C s       :     3.282496  s :     3.282496
      pz      :     0.989199  p :     3.015563
      px      :     0.937037
      py      :     1.089327
      dz2     :     0.013152  d :     0.058365
      dxz     :     0.009322
      dyz     :     0.012016
      dx2y2   :     0.011735
      dxy     :     0.012140
  2 H s       :     0.834240  s :     0.834240
      pz      :     0.006719  p :     0.014795
      px      :     0.002982
      py      :     0.005094
  3 H s       :     0.891305  s :     0.891305
      pz      :     0.004319  p :     0.020836
      px      :     0.006965
      py      :     0.009552
  4 O s       :     3.815648  s :     3.815648
      pz      :     1.786563  p :     4.666500
      px      :     1.316877
      py      :     1.563060
      dz2     :     0.007871  d :     0.046875
      dxz     :     0.008640
      dyz     :     0.006221
      dx2y2   :     0.011964
      dxy     :     0.012179
  5 C s       :     3.190877  s :     3.190877
      pz      :     1.001947  p :     2.776404
      px      :     0.898511
      py      :     0.875946
      dz2     :     0.016610  d :     0.078946
      dxz     :     0.011957
      dyz     :     0.016736
      dx2y2   :     0.016528
      dxy     :     0.017115
  6 H s       :     0.699943  s :     0.699943
      pz      :     0.005131  p :     0.027092
      px      :     0.013701
      py      :     0.008260
  7 S s       :     5.836611  s :     5.836611
      pz      :     3.405899  p :    10.106300
      px      :     3.613377
      py      :     3.087024
      dz2     :     0.021757  d :     0.100225
      dxz     :     0.019434
      dyz     :     0.016451
      dx2y2   :     0.015956
      dxy     :     0.026627
  8 N s       :     3.586840  s :     3.586840
      pz      :     1.112452  p :     3.980106
      px      :     1.344325
      py      :     1.523328
      dz2     :     0.011859  d :     0.053328
      dxz     :     0.006310
      dyz     :     0.014614
      dx2y2   :     0.013782
      dxy     :     0.006763
  9 H s       :     0.718091  s :     0.718091
      pz      :     0.013014  p :     0.027090
      px      :     0.006182
      py      :     0.007894
 10 C s       :     2.968519  s :     2.968519
      pz      :     0.750776  p :     2.304304
      px      :     0.716204
      py      :     0.837324
      dz2     :     0.010245  d :     0.147130
      dxz     :     0.020421
      dyz     :     0.021014
      dx2y2   :     0.051613
      dxy     :     0.043837
 11 H s       :     0.816016  s :     0.816016
      pz      :     0.003110  p :     0.014737
      px      :     0.004007
      py      :     0.007620
 12 O s       :     3.848938  s :     3.848938
      pz      :     1.399208  p :     4.531938
      px      :     1.713194
      py      :     1.419536
      dz2     :     0.006877  d :     0.051574
      dxz     :     0.006144
      dyz     :     0.014193
      dx2y2   :     0.012049
      dxy     :     0.012311
 13 H s       :     0.611559  s :     0.611559
      pz      :     0.009760  p :     0.040942
      px      :     0.011644
      py      :     0.019537


                     *******************************
                     * LOEWDIN POPULATION ANALYSIS *
                     *******************************

----------------------
LOEWDIN ATOMIC CHARGES
----------------------
   0 H :    0.092740
   1 C :   -0.218442
   2 H :    0.080341
   3 H :    0.045345
   4 O :   -0.164962
   5 C :   -0.055729
   6 H :    0.133476
   7 S :    0.019757
   8 N :   -0.259487
   9 H :    0.127284
  10 C :    0.128230
  11 H :    0.094908
  12 O :   -0.215168
  13 H :    0.191709

-------------------------------
LOEWDIN REDUCED ORBITAL CHARGES
-------------------------------
  0 H s       :     0.862951  s :     0.862951
      pz      :     0.025006  p :     0.044309
      px      :     0.007781
      py      :     0.011522
  1 C s       :     2.939242  s :     2.939242
      pz      :     1.056683  p :     3.176980
      px      :     1.026089
      py      :     1.094208
      dz2     :     0.023027  d :     0.102219
      dxz     :     0.016896
      dyz     :     0.019998
      dx2y2   :     0.021879
      dxy     :     0.020420
  2 H s       :     0.873035  s :     0.873035
      pz      :     0.023062  p :     0.046625
      px      :     0.008155
      py      :     0.015407
  3 H s       :     0.900111  s :     0.900111
      pz      :     0.009523  p :     0.054543
      px      :     0.017407
      py      :     0.027613
  4 O s       :     3.459123  s :     3.459123
      pz      :     1.745156  p :     4.632575
      px      :     1.338901
      py      :     1.548518
      dz2     :     0.011879  d :     0.073264
      dxz     :     0.012107
      dyz     :     0.005760
      dx2y2   :     0.021474
      dxy     :     0.022045
  5 C s       :     2.881000  s :     2.881000
      pz      :     1.025861  p :     3.022661
      px      :     1.009174
      py      :     0.987627
      dz2     :     0.031188  d :     0.152067
      dxz     :     0.020539
      dyz     :     0.031628
      dx2y2   :     0.034329
      dxy     :     0.034383
  6 H s       :     0.781453  s :     0.781453
      pz      :     0.013620  p :     0.085071
      px      :     0.047136
      py      :     0.024316
  7 S s       :     5.621209  s :     5.621209
      pz      :     3.470164  p :    10.249562
      px      :     3.641141
      py      :     3.138257
      dz2     :     0.023595  d :     0.109472
      dxz     :     0.022041
      dyz     :     0.018631
      dx2y2   :     0.016974
      dxy     :     0.028231
  8 N s       :     3.187373  s :     3.187373
      pz      :     1.144177  p :     3.989297
      px      :     1.328660
      py      :     1.516459
      dz2     :     0.021084  d :     0.082818
      dxz     :     0.009838
      dyz     :     0.023241
      dx2y2   :     0.018832
      dxy     :     0.009822
  9 H s       :     0.788407  s :     0.788407
      pz      :     0.042105  p :     0.084309
      px      :     0.016719
      py      :     0.025485
 10 C s       :     2.853213  s :     2.853213
      pz      :     0.765278  p :     2.697794
      px      :     0.895858
      py      :     1.036658
      dz2     :     0.022759  d :     0.320763
      dxz     :     0.041101
      dyz     :     0.038428
      dx2y2   :     0.116922
      dxy     :     0.101553
 11 H s       :     0.858886  s :     0.858886
      pz      :     0.008561  p :     0.046206
      px      :     0.012477
      py      :     0.025168
 12 O s       :     3.546906  s :     3.546906
      pz      :     1.383323  p :     4.586892
      px      :     1.701521
      py      :     1.502048
      dz2     :     0.011304  d :     0.081369
      dxz     :     0.007099
      dyz     :     0.017717
      dx2y2   :     0.023396
      dxy     :     0.021854
 13 H s       :     0.687451  s :     0.687451
      pz      :     0.027674  p :     0.120840
      px      :     0.032936
      py      :     0.060230


                      *****************************
                      * MAYER POPULATION ANALYSIS *
                      *****************************

  NA   - Mulliken gross atomic population
  ZA   - Total nuclear charge
  QA   - Mulliken gross atomic charge
  VA   - Mayer's total valence
  BVA  - Mayer's bonded valence
  FA   - Mayer's free valence

  ATOM       NA         ZA         QA         VA         BVA        FA
  0 H      0.8359     1.0000     0.1641     0.9494     0.9020     0.0474
  1 C      6.3564     6.0000    -0.3564     3.9271     3.6431     0.2840
  2 H      0.8490     1.0000     0.1510     0.9508     0.9035     0.0473
  3 H      0.9121     1.0000     0.0879     0.9841     0.9309     0.0533
  4 O      8.5290     8.0000    -0.5290     2.2092     1.8618     0.3475
  5 C      6.0462     6.0000    -0.0462     3.8602     3.5864     0.2738
  6 H      0.7270     1.0000     0.2730     0.9173     0.8726     0.0447
  7 S     16.0431    16.0000    -0.0431     2.1893     1.8304     0.3589
  8 N      7.6203     7.0000    -0.6203     3.0102     2.6876     0.3227
  9 H      0.7452     1.0000     0.2548     0.9199     0.8740     0.0459
 10 C      5.4200     6.0000     0.5800     3.9515     3.6794     0.2721
 11 H      0.8308     1.0000     0.1692     0.9503     0.9041     0.0462
 12 O      8.4325     8.0000    -0.4325     2.3099     1.9260     0.3839
 13 H      0.6525     1.0000     0.3475     0.8972     0.8546     0.0427

  Mayer bond orders larger than 0.100000
B(  0-H ,  5-C ) :   0.9025 B(  1-C ,  2-H ) :   0.9118 B(  1-C ,  5-C ) :   0.9068 
B(  1-C ,  7-S ) :   0.9284 B(  1-C , 11-H ) :   0.9156 B(  3-H ,  7-S ) :   0.9014 
B(  4-O , 10-C ) :   1.0086 B(  4-O , 13-H ) :   0.8095 B(  5-C ,  8-N ) :   0.9362 
B(  5-C , 10-C ) :   0.8686 B(  6-H ,  8-N ) :   0.8643 B(  8-N ,  9-H ) :   0.8718 
B( 10-C , 12-O ) :   1.7964 


----------------------------------
MP2 DERIVATIVE INTEGRAL GENERATION
----------------------------------

Input SCF Electron Density              ... 5.scfp
Input Correlated Electron Density       ... 5.pmp2re
Input Energy Weighted Density           ... 5.wmp2.tmp
Input Wavefunction Amplitudes           ... 5.mp2tsaa.tmp

Nuclear repulsion gradient              ... done (  0.0 sec)
HCore & Overlap gradient  (SHARK)       ... done (  0.1 sec)
Analytic two-electron gradient terms    ... 
  Batch handling in the gradient evaluation:
  General contraction                   ... not used
  Memory available                      ... 4087.7 MB
  Memory per occupied orbital in Q2     ...    3.0 MB
  Memory per occupied orbital in Q3     ...    0.0 MB
  Total memory requirement per |i>      ...    3.0 MB
  Number of orbitals treated per batch  ...     21
  Number of batches to be done          ...      1
done (  6.4 sec)

---------------------------------------
MP2 TOTAL ENERGY:     -720.443900690 Eh
---------------------------------------

The final MP2 gradient
  0:   0.00128769   0.00180508   0.00293790
  1:  -0.00128615   0.00602543  -0.00864019
  2:  -0.00138852  -0.00272340   0.00165488
  3:   0.00007440   0.00021122   0.00061336
  4:  -0.02180354  -0.01448826  -0.00433789
  5:  -0.00107003   0.00004844  -0.00046139
  6:  -0.00026779   0.00158299   0.00151733
  7:   0.00285971  -0.00139385  -0.00087529
  8:   0.00065749  -0.00696341   0.00333045
  9:  -0.00206839   0.00049093  -0.00071865
 10:   0.00503743  -0.01988150  -0.00247788
 11:  -0.00177594   0.00003195   0.00104369
 12:   0.01325218   0.03269270   0.00535913
 13:   0.00649147   0.00256166   0.00105455

-----------------------------------
NORM OF THE MP2 GRADIENT:  0.051759
-----------------------------------

Maximum memory used throughout the entire MP2-calculation: 233.4 MB

-------------------------   --------------------
FINAL SINGLE POINT ENERGY      -720.443900690130
-------------------------   --------------------

------------------------------------------------------------------------------
                         ORCA GEOMETRY RELAXATION STEP
------------------------------------------------------------------------------

Reading the OPT-File                    .... done
Getting information on internals        .... done
Copying old internal coords+grads       .... done
Making the new internal coordinates     .... (2022 redundants) done
Validating the new internal coordinates .... (2022 redundants) done
Calculating the B-matrix                .... done
Calculating the G,G- and P matrices     .... done
Transforming gradient to internals      .... done
Projecting the internal gradient        .... done
Number of atoms                         ....  14
Number of internal coordinates          ....  55
Current Energy                          ....  -720.443900690 Eh
Current gradient norm                   ....     0.051758748 Eh/bohr
Maximum allowed component of the step   ....  0.300
Current trust radius                    ....  0.300
Evaluating the initial hessian          ....  (Almloef) done
Projecting the Hessian                  .... done
Forming the augmented Hessian           .... done
Diagonalizing the augmented Hessian     .... done
Last element of RFO vector              ....  0.988946401
Lowest eigenvalues of augmented Hessian:
 -0.003035602  0.010022017  0.010486324  0.010846680  0.016577681
Length of the computed step             ....  0.149930722
The final length of the internal step   ....  0.149930722
Converting the step to Cartesian space:
 Initial RMS(Int)=    0.0202166544
Transforming coordinates:
 Iter   0:  RMS(Cart)=    0.0288847482 RMS(Int)=    0.0201933122
done
Storing new coordinates                 .... done

                                .--------------------.
          ----------------------|Geometry convergence|-------------------------
          Item                value                   Tolerance       Converged
          ---------------------------------------------------------------------
[...]
      py      :     0.009341
  4 O s       :     3.830572  s :     3.830572
      pz      :     1.741669  p :     4.650134
      px      :     1.361856
      py      :     1.546610
      dz2     :     0.008761  d :     0.047713
      dxz     :     0.009504
      dyz     :     0.006727
      dx2y2   :     0.011448
      dxy     :     0.011273
  5 C s       :     3.187530  s :     3.187530
      pz      :     0.980444  p :     2.766603
      px      :     0.905442
      py      :     0.880717
      dz2     :     0.016242  d :     0.078799
      dxz     :     0.012160
      dyz     :     0.017822
      dx2y2   :     0.015994
      dxy     :     0.016581
  6 H s       :     0.702804  s :     0.702804
      pz      :     0.004977  p :     0.026928
      px      :     0.013711
      py      :     0.008239
  7 S s       :     5.836619  s :     5.836619
      pz      :     3.394792  p :    10.092329
      px      :     3.687145
      py      :     3.010392
      dz2     :     0.019955  d :     0.100771
      dxz     :     0.018398
      dyz     :     0.022129
      dx2y2   :     0.017033
      dxy     :     0.023257
  8 N s       :     3.603535  s :     3.603535
      pz      :     1.106383  p :     3.957803
      px      :     1.339696
      py      :     1.511725
      dz2     :     0.010946  d :     0.053870
      dxz     :     0.006050
      dyz     :     0.016235
      dx2y2   :     0.014185
      dxy     :     0.006454
  9 H s       :     0.715627  s :     0.715627
      pz      :     0.012244  p :     0.026908
      px      :     0.006215
      py      :     0.008449
 10 C s       :     2.985441  s :     2.985441
      pz      :     0.736248  p :     2.298496
      px      :     0.732558
      py      :     0.829690
      dz2     :     0.017800  d :     0.141215
      dxz     :     0.022663
      dyz     :     0.020689
      dx2y2   :     0.041861
      dxy     :     0.038203
 11 H s       :     0.818460  s :     0.818460
      pz      :     0.003002  p :     0.014762
      px      :     0.004079
      py      :     0.007681
 12 O s       :     3.863279  s :     3.863279
      pz      :     1.411711  p :     4.530903
      px      :     1.695435
      py      :     1.423757
      dz2     :     0.009136  d :     0.050763
      dxz     :     0.006248
      dyz     :     0.012894
      dx2y2   :     0.010948
      dxy     :     0.011537
 13 H s       :     0.615200  s :     0.615200
      pz      :     0.009404  p :     0.040738
      px      :     0.011193
      py      :     0.020142


                     *******************************
                     * LOEWDIN POPULATION ANALYSIS *
                     *******************************

----------------------
LOEWDIN ATOMIC CHARGES
----------------------
   0 H :    0.088861
   1 C :   -0.221368
   2 H :    0.081816
   3 H :    0.043316
   4 O :   -0.175293
   5 C :   -0.052358
   6 H :    0.133969
   7 S :    0.029871
   8 N :   -0.255177
   9 H :    0.128944
  10 C :    0.144589
  11 H :    0.094281
  12 O :   -0.231103
  13 H :    0.189651

-------------------------------
LOEWDIN REDUCED ORBITAL CHARGES
-------------------------------
  0 H s       :     0.866163  s :     0.866163
      pz      :     0.024040  p :     0.044976
      px      :     0.008233
      py      :     0.012703
  1 C s       :     2.936784  s :     2.936784
      pz      :     1.058574  p :     3.180828
      px      :     1.032322
      py      :     1.089932
      dz2     :     0.025048  d :     0.103755
      dxz     :     0.015748
      dyz     :     0.019185
      dx2y2   :     0.022350
      dxy     :     0.021424
  2 H s       :     0.871488  s :     0.871488
      pz      :     0.024770  p :     0.046696
      px      :     0.008530
      py      :     0.013397
  3 H s       :     0.903436  s :     0.903436
      pz      :     0.010757  p :     0.053248
      px      :     0.015661
      py      :     0.026830
  4 O s       :     3.480920  s :     3.480920
      pz      :     1.712566  p :     4.622253
      px      :     1.376747
      py      :     1.532940
      dz2     :     0.011906  d :     0.072120
      dxz     :     0.015239
      dyz     :     0.006879
      dx2y2   :     0.019027
      dxy     :     0.019069
  5 C s       :     2.880144  s :     2.880144
      pz      :     1.012912  p :     3.020602
      px      :     1.015047
      py      :     0.992642
      dz2     :     0.030813  d :     0.151612
      dxz     :     0.020580
      dyz     :     0.033721
      dx2y2   :     0.033147
      dxy     :     0.033352
  6 H s       :     0.781688  s :     0.781688
      pz      :     0.013011  p :     0.084343
      px      :     0.047362
      py      :     0.023969
  7 S s       :     5.621032  s :     5.621032
      pz      :     3.470119  p :    10.238935
      px      :     3.702134
      py      :     3.066683
      dz2     :     0.021659  d :     0.110162
      dxz     :     0.020687
      dyz     :     0.024643
      dx2y2   :     0.018434
      dxy     :     0.024738
  8 N s       :     3.202618  s :     3.202618
      pz      :     1.141099  p :     3.970266
      px      :     1.326497
      py      :     1.502671
      dz2     :     0.019410  d :     0.082292
      dxz     :     0.009330
      dyz     :     0.025841
      dx2y2   :     0.018815
      dxy     :     0.008896
  9 H s       :     0.787218  s :     0.787218
      pz      :     0.039563  p :     0.083839
      px      :     0.016713
      py      :     0.027563
 10 C s       :     2.861401  s :     2.861401
      pz      :     0.796741  p :     2.689590
      px      :     0.879542
      py      :     1.013307
      dz2     :     0.034412  d :     0.304420
      dxz     :     0.049918
      dyz     :     0.042492
      dx2y2   :     0.093276
      dxy     :     0.084322
 11 H s       :     0.859479  s :     0.859479
      pz      :     0.008162  p :     0.046239
      px      :     0.012666
      py      :     0.025411
 12 O s       :     3.562529  s :     3.562529
      pz      :     1.412694  p :     4.589770
      px      :     1.682849
      py      :     1.494228
      dz2     :     0.011939  d :     0.078803
      dxz     :     0.008121
      dyz     :     0.020551
      dx2y2   :     0.020127
      dxy     :     0.018065
 13 H s       :     0.690066  s :     0.690066
      pz      :     0.026813  p :     0.120283
      px      :     0.031694
      py      :     0.061776


                      *****************************
                      * MAYER POPULATION ANALYSIS *
                      *****************************

  NA   - Mulliken gross atomic population
  ZA   - Total nuclear charge
  QA   - Mulliken gross atomic charge
  VA   - Mayer's total valence
  BVA  - Mayer's bonded valence
  FA   - Mayer's free valence

  ATOM       NA         ZA         QA         VA         BVA        FA
  0 H      0.8398     1.0000     0.1602     0.9498     0.9031     0.0467
  1 C      6.3564     6.0000    -0.3564     3.9249     3.6414     0.2835
  2 H      0.8471     1.0000     0.1529     0.9523     0.9050     0.0473
  3 H      0.9189     1.0000     0.0811     0.9826     0.9289     0.0537
  4 O      8.5284     8.0000    -0.5284     2.2134     1.8610     0.3523
  5 C      6.0329     6.0000    -0.0329     3.8523     3.5795     0.2728
  6 H      0.7297     1.0000     0.2703     0.9155     0.8702     0.0453
  7 S     16.0297    16.0000    -0.0297     2.1979     1.8397     0.3581
  8 N      7.6152     7.0000    -0.6152     3.0141     2.6887     0.3254
  9 H      0.7425     1.0000     0.2575     0.9198     0.8736     0.0462
 10 C      5.4252     6.0000     0.5748     3.9330     3.6543     0.2787
 11 H      0.8332     1.0000     0.1668     0.9501     0.9037     0.0464
 12 O      8.4449     8.0000    -0.4449     2.3000     1.9090     0.3910
 13 H      0.6559     1.0000     0.3441     0.9008     0.8572     0.0436

  Mayer bond orders larger than 0.100000
B(  0-H ,  5-C ) :   0.9063 B(  1-C ,  2-H ) :   0.9090 B(  1-C ,  5-C ) :   0.9058 
B(  1-C ,  7-S ) :   0.9328 B(  1-C , 11-H ) :   0.9153 B(  3-H ,  7-S ) :   0.9042 
B(  4-O , 10-C ) :   1.0001 B(  4-O , 13-H ) :   0.8120 B(  5-C ,  8-N ) :   0.9302 
B(  5-C , 10-C ) :   0.8689 B(  6-H ,  8-N ) :   0.8653 B(  8-N ,  9-H ) :   0.8683 
B( 10-C , 12-O ) :   1.7750 


----------------------------------
MP2 DERIVATIVE INTEGRAL GENERATION
----------------------------------

Input SCF Electron Density              ... 5.scfp
Input Correlated Electron Density       ... 5.pmp2re
Input Energy Weighted Density           ... 5.wmp2.tmp
Input Wavefunction Amplitudes           ... 5.mp2tsaa.tmp

Nuclear repulsion gradient              ... done (  0.0 sec)
HCore & Overlap gradient  (SHARK)       ... done (  0.1 sec)
Analytic two-electron gradient terms    ... 
  Batch handling in the gradient evaluation:
  General contraction                   ... not used
  Memory available                      ... 4087.3 MB
  Memory per occupied orbital in Q2     ...    3.0 MB
  Memory per occupied orbital in Q3     ...    0.0 MB
  Total memory requirement per |i>      ...    3.0 MB
  Number of orbitals treated per batch  ...     21
  Number of batches to be done          ...      1
done (  6.3 sec)

---------------------------------------
MP2 TOTAL ENERGY:     -720.446835904 Eh
---------------------------------------

The final MP2 gradient
  0:  -0.00001509   0.00003940  -0.00003669
  1:   0.00003621   0.00000523  -0.00002493
  2:   0.00002152   0.00001502  -0.00001309
  3:   0.00002676   0.00000990  -0.00003313
  4:   0.00005321   0.00004962   0.00002347
  5:  -0.00002406  -0.00005880   0.00008532
  6:  -0.00000520  -0.00001729   0.00000066
  7:  -0.00004392  -0.00000752   0.00007439
  8:   0.00008324   0.00004405  -0.00002684
  9:  -0.00003244  -0.00000272   0.00000957
 10:  -0.00001576   0.00007439   0.00001813
 11:  -0.00002173  -0.00001230  -0.00000238
 12:  -0.00007631  -0.00014792  -0.00007880
 13:   0.00001358   0.00000895   0.00000431

-----------------------------------
NORM OF THE MP2 GRADIENT:  0.000291
-----------------------------------

Maximum memory used throughout the entire MP2-calculation: 233.8 MB

-------------------------   --------------------
FINAL SINGLE POINT ENERGY      -720.446835903689
-------------------------   --------------------

                                *** OPTIMIZATION RUN DONE ***


------------------------------------------------------------------------------
                              ORCA PROPERTY CALCULATIONS
------------------------------------------------------------------------------

GBWName                                 ... 5.gbw
Number of atoms                         ...     14
Number of basis functions               ...    137
Max core memory                         ...   4096 MB

Electric properties:
Dipole moment                           ... YES
Quadrupole moment                       ...  NO
Static polarizability (Dipole/Dipole)   ...  NO
Static polarizability (Dipole/Quad.)    ...  NO
Static polarizability (Quad./Quad.)     ...  NO
Static polarizability (Velocity)        ...  NO
Static hyperpolarizability              ...  NO

Atomic electric properties:
Dipole moment                           ...  NO
Quadrupole moment                       ...  NO
Static polarizability                   ...  NO

Choice of electric origin               ... Center of mass
Position of electric origin             ...    -3.774810     2.382353     1.189380

General magnetic properties:
Magnetizability                         ...  NO

EPR properties:
g-Tensor (aka g-matrix)                 ...  NO
Zero-Field splitting spin-orbit         ...  NO
Zero-field splitting spin-spin          ...  NO
Hyperfine couplings                     ...  NO (   0 nuclei)
Quadrupole couplings                    ...  NO (   0 nuclei)
Contact density                         ...  NO (   0 nuclei)

NMR properties:
Chemical shifts                         ...  NO (   0 nuclei)
Spin-rotation constants                 ...  NO (   0 nuclei)
Spin-spin couplings                     ...  NO (   0 nuclei,    0 pairs)

Choice of magnetic origin               ... GIAO
Position of magnetic origin             ...     0.000000     0.000000     0.000000

Properties with geometric perturbations:
SCF Hessian                             ...  NO
IR spectrum                             ...  NO
VCD spectrum                            ...  NO
X-ray spectroscopy properties:
SCF XES/XAS/RIXS spectra                ...  NO

SCF SOC stabilization energy            ...  NO
Diagonal Born-Oppenheimer correction    ...  NO

-------------
DIPOLE MOMENT
-------------

Method             : SCF
Type of density    : Electron Density
Multiplicity       :   1
Irrep              :   0
Energy             :  -719.3872904451247905 Eh
Basis              : AO
                                X                 Y                 Z
Electronic contribution:     -0.159239223      -3.153808427       2.665479643
Nuclear contribution   :      1.209445817       3.283977254      -3.024746025
                        -----------------------------------------
Total Dipole Moment    :      1.050206594       0.130168828      -0.359266383
                        -----------------------------------------
Magnitude (a.u.)       :      1.117564382
Magnitude (Debye)      :      2.840622910



--------------------
Rotational spectrum 
--------------------
 
Rotational constants in cm-1:             0.102744             0.050523             0.039828 
Rotational constants in MHz :          3080.194322          1514.631455          1194.025419 

Dipole components along the rotational axes: 
x,y,z [a.u.] :    -1.116444    -0.049522     0.007141 
x,y,z [Debye]:    -2.837775    -0.125875     0.018151 

 

-------------
DIPOLE MOMENT
-------------

Method             : MP2
Type of density    : Electron Density
Multiplicity       :   1
Level              : Unrelaxed density
Irrep              :   0
Energy             :     0.0000000000000000 Eh
Basis              : AO
                                X                 Y                 Z
Electronic contribution:     -0.164421880      -3.182229908       2.656212094
Nuclear contribution   :      1.209445817       3.283977254      -3.024746025
                        -----------------------------------------
Total Dipole Moment    :      1.045023937       0.101747346      -0.368533931
                        -----------------------------------------
Magnitude (a.u.)       :      1.112764489
Magnitude (Debye)      :      2.828422554



--------------------
Rotational spectrum 
--------------------
 
Rotational constants in cm-1:             0.102744             0.050523             0.039828 
Rotational constants in MHz :          3080.194322          1514.631455          1194.025419 

Dipole components along the rotational axes: 
x,y,z [a.u.] :    -1.112028    -0.028583     0.028649 
x,y,z [Debye]:    -2.826551    -0.072652     0.072819 

 

-------------
DIPOLE MOMENT
-------------

Method             : MP2
Type of density    : Electron Density
Multiplicity       :   1
Level              : Relaxed density
Irrep              :   0
Energy             :     0.0000000000000000 Eh
Basis              : AO
                                X                 Y                 Z
Electronic contribution:     -0.170071300      -3.297140054       2.636318610
Nuclear contribution   :      1.209445817       3.283977254      -3.024746025
                        -----------------------------------------
Total Dipole Moment    :      1.039374517      -0.013162800      -0.388427415
                        -----------------------------------------
Magnitude (a.u.)       :      1.109661436
Magnitude (Debye)      :      2.820535219



--------------------
Rotational spectrum 
--------------------
 
Rotational constants in cm-1:             0.102744             0.050523             0.039828 
Rotational constants in MHz :          3080.194322          1514.631455          1194.025419 

Dipole components along the rotational axes: 
x,y,z [a.u.] :    -1.103476     0.065941     0.096650 
x,y,z [Debye]:    -2.804813     0.167608     0.245665 

 

Dipole moment calculation done in   0.0 sec 

Maximum memory used throughout the entire PROP-calculation: 6.8 MB

--------------------------------
SUGGESTED CITATIONS FOR THIS RUN
--------------------------------

Below you find a list of papers that are relevant to this ORCA run
We neither can nor want to force you to cite these papers, but we appreciate if you do
You receive ORCA, which is the product of decades of hard work by many enthusiastic individuals, for free
The only thing we kindly ask in return is that you cite our papers,
We deeply appreciate it, if you show your appreciation for ORCA by not just citing the generic ORCA reference.

Please note that relegating all ORCA citations to the supporting information does *not* help us.
SI sections are not indexed - citations you put there will not count into any citation statistics
But we need these citations in order to attract the funding resources that allow us to do what we are doing

Therefore, if you are a happy ORCA user, please consider citing a few of the papers listed below in the main body of your paper

In addition to the list printed below, the program has created the file 5.bibtex that contains the list in bibtex format
You can import this file easily into all common literature databanks and citation aid programs


List of essential papers. We consider these as the minimum necessary citations

  1. Neese, F.
     Software update: the ORCA program system, version 6.0
     WIRES Comput. Molec. Sci. 2025 15(1), e70019
     doi.org/10.1002/wcms.7019

List of papers to cite with high priority. The work reported in these papers was absolutely
necessary for this run to complete.
Our perspective: the developers of density functionals and basis sets usually get cited in chemistry papers
Good! But without the algorithms to do something with them, the functionals or basis sets would not do anything.
Hence, in our opinion, the algorithm design and method developments papers are equally worthy of getting cited

  1. Neese, F.
     The SHARK Integral Generation and Digestion System
     J. Comp. Chem. 2022 44(3), 381
     doi.org/10.1002/jcc.26942

List of suggested additional citations. These are papers that are important in the 'surrounding' of 
of this run, or papers that preceded the highly important papers. If you like your results we are grateful for a citation.

  1. Neese, F.
     The ORCA program system
     WIRES Comput. Molec. Sci. 2012 2(1), 73-78
     doi.org/10.1002/wcms.81
  2. Neese, F.
     Software update: the ORCA program system, version 4.0
     WIRES Comput. Molec. Sci. 2018 8(1), 1-6
     doi.org/10.1002/wcms.1327
  3. Neese, F.; Wennmohs, F.; Becker, U.; Riplinger, C.
     The ORCA quantum chemistry program package
     J. Chem. Phys. 2020 152(22), 224108
     doi.org/10.1063/5.0004608
  4. Neese, F.
     Software update: The ORCA program system—Version 5.0
     WIRES Comput. Molec. Sci. 2022 12(1), e1606
     doi.org/10.1002/wcms.1606

List of optional additional citations

  1. Neese, F.
     Approximate second-order SCF convergence for spin unrestricted wavefunctions
     Chem. Phys. Lett. 2000 325(1-3), 93-98
     doi.org/10.1016/s0009-2614(00)00662-x

Timings for individual modules:

Sum of individual times          ...      289.102 sec (=   4.818 min)
Startup calculation              ...        2.986 sec (=   0.050 min)   1.0 %
SCF iterations                   ...       76.388 sec (=   1.273 min)  26.4 %
Property calculations            ...        0.034 sec (=   0.001 min)   0.0 %
MP2 module                       ...      209.678 sec (=   3.495 min)  72.5 %
Geometry relaxation              ...        0.016 sec (=   0.000 min)   0.0 %
                             ****ORCA TERMINATED NORMALLY****
TOTAL RUN TIME: 0 days 0 hours 4 minutes 49 seconds 289 msec
