
                                 *****************
                                 * O   R   C   A *
                                 *****************

                                            #,                                       
                                            ###                                      
                                            ####                                     
                                            #####                                    
                                            ######                                   
                                           ########,                                 
                                     ,,################,,,,,                         
                               ,,#################################,,                 
                          ,,##########################################,,             
                       ,#########################################, ''#####,          
                    ,#############################################,,   '####,        
                  ,##################################################,,,,####,       
                ,###########''''           ''''###############################       
              ,#####''   ,,,,##########,,,,          '''####'''          '####       
            ,##' ,,,,###########################,,,                        '##       
           ' ,,###''''                  '''############,,,                           
         ,,##''                                '''############,,,,        ,,,,,,###''
      ,#''                                            '''#######################'''  
     '                                                          ''''####''''         
             ,#######,   #######,   ,#######,      ##                                
            ,#'     '#,  ##    ##  ,#'     '#,    #''#        ,####,    ,#,          
            ##       ##  ##   ,#'  ##            #'  '#       #'       ,# #          
            ##       ##  #######   ##           ,######,      #####,      #          
            '#,     ,#'  ##    ##  '#,     ,#' ,#      #,     #,   #      #          
             '#######'   ##     ##  '#######'  #'      '#     '####' #    #          



                #########################################################
                #                        -***-                          #
                #          Department of theory and spectroscopy        #
                #                                                       #
                #                      Frank Neese                      #
                #                                                       #
                #     Directorship, Architecture, Infrastructure        #
                #                    SHARK, DRIVERS                     #
                #        Core code/Algorithms in most modules           #
                #                                                       #
                #        Max Planck Institute fuer Kohlenforschung      #
                #                Kaiser Wilhelm Platz 1                 #
                #                 D-45470 Muelheim/Ruhr                 #
                #                      Germany                          #
                #                                                       #
                #                  All rights reserved                  #
                #                        -***-                          #
                #########################################################


                         Program Version 6.1.0  -  RELEASE   -
                                (GIT: $679e74b$)
                          ($2025-06-10 18:02:51 +0200$)


 With contributions from (in alphabetic order):
[Max-Planck-Institut fuer Kohlenforschung]                               
  Daniel Aravena         : Magnetic Suceptibility                        
  Michael Atanasov       : Ab Initio Ligand Field Theory (pilot matlab implementation)
  Alexander A. Auer      : GIAO ZORA, VPT2 properties, NMR spectrum      
  Ute Becker             : All parallelization in ORCA, NUMFREQ, NUMCALC 
  Giovanni Bistoni       : ED, misc. LED, open-shell LED, HFLD           
  Dmytro Bykov           : pre 5.0 version of the SCF Hessian            
  Marcos Casanova-Páez   : Triplet and SCS-CIS(D). UHF-(DLPNO)-IP/EA/STEOM-CCSD. UHF-CVS-IP/STEOM-CCSD   
  Vijay G. Chilkuri      : MRCI spin determinant printing, contributions to CSF-ICE 
  Pauline Colinet        : FMM embedding                                 
  Dipayan Datta          : RHF DLPNO-CCSD density                        
  Achintya Kumar Dutta   : EOM-CC, STEOM-CC                              
  Nicolas Foglia         : Exact transition moments, OPA infrastructure, MCD improvements    
  Dmitry Ganyushin       : Spin-Orbit,Spin-Spin,Magnetic field MRCI      
  Miquel Garcia-Rates    : C-PCM and meta-GGA Hessian, CCSD/C-PCM, Gaussian charge scheme 
  Tiago L. C. Gouveia    : GS-ROHF, GS-ROCIS                             
  Yang Guo               : DLPNO-NEVPT2, F12-NEVPT2, CIM, IAO-localization        
  Andreas Hansen         : Spin unrestricted coupled pair/coupled cluster methods 
  Ingolf Harden          : AUTO-CI MPn and infrastructure                
  Benjamin Helmich-Paris : MC-RPA, TRAH-(SCF,CASSCF), AVAS, COSX integrals, SCF dyn. polar., MC-PDFT, srDFT 
  Lee Huntington         : MR-EOM, pCC                                   
  Robert Izsak           : Overlap fitted RIJCOSX, COSX-SCS-MP3, EOM     
  Riya Kayal             : Wick's Theorem for AUTO-CI, AUTO-CI UHF-CCSDT 
  Emily Kempfer          : AUTO-CI RHF CISDT and CCSDT, approximate NEVPT4
  Christian Kollmar      : KDIIS, OOCD, Brueckner-CCSD(T), CCSD density, CASPT2, CASPT2-K, improved NEVPT2 
  Axel Koslowski         : Symmetry handling                             
  Simone Kossmann        : meta-GGA functionals, TD-DFT gradient, OOMP2, (MP2 Hessian; deprecated post 5.0) 
  Lucas Lang             : DCDCAS, Hyperfine gauge corrections, ICE-SOC+SSC
  Marvin Lechner         : AUTO-CI (C++ implementation), FIC-MRCC        
  Spencer Leger          : CASSCF response                               
  Dagmar Lenk            : GEPOL surface, SMD, ORCA-2-JSON               
  Dimitrios Liakos       : Extrapolation schemes; Compound Job, Property file
  Dimitrios Manganas     : Further ROCIS development; embedding schemes. LFT, Crystal Embedding 
  Dimitrios Pantazis     : SARC Basis sets                               
  Anastasios Papadopoulos: AUTO-CI, single reference methods and gradients 
  Taras Petrenko         : pre 6.0 DFT Hessian and TD-DFT gradient,  ECA, NRVS 
  Petra Pikulova         : Analytic Raman intensities                    
  Peter Pinski           : DLPNO-MP2, DLPNO-MP2 Gradient                 
  Shashank Vittal Rao    : ES-AILFT, MagRelax                            
  Christoph Reimann      : Effective Core Potentials                     
  Marius Retegan         : Local ZFS, SOC                                
  Christoph Riplinger    : Optimizer, TS searches, QM/MM, DLPNO-CCSD(T), (RO)-DLPNO pert. Triples 
  Michael Roemelt        : Original ROCIS implementation, recursive CI coupling coefficients
  Masaaki Saitow         : Open-shell DLPNO-CCSD energy and density      
  Barbara Sandhoefer     : DKH picture change effects                    
  Yorick L. A. Schmerwitz: GMF and freeze-and-release deltaSCF, NEB S-IDPP initial path                    
  Kantharuban Sivalingam : CASSCF convergence/infrastructure, NEVPT2, NEVPT3, NEVPT4(SD), FIC-MRCI and CEPA variants
  Bernardo de Souza      : ESD, SOC TD-DFT                               
  Georgi L. Stoychev     : AutoAux, RI-MP2 NMR, DLPNO-MP2 response, X2C  
  Van Anh Tran           : RI-MP2 g-tensors                              
  Willem Van den Heuvel  : Paramagnetic NMR                              
  Zikuan Wang            : NOTCH, Electric field optimization            
  Frank Wennmohs         : Technical directorship and infrastructure     
  Hang Xu                : AUTO-CI-Response properties                   
                                                                         
[FACCTs GmbH]                                                            
  Markus Bursch, Nicolas Foglia, Miquel Garcia-Rates, Ingolf Harden, Hagen Neugebauer, Anastasios Papadopoulos, 
  Christoph Riplinger, Bernardo de Souza, Georgi L. Stoychev                                                    
                                                                 
  APM, various basis sets, CI-OPT, improved COSX, DLPNO-Multilevel,           
  DOCKER, DRACO, updates on ESD, Fragmentator, GOAT, IRC, LR-CPCM, L-BFGS, MBIS, meta-GGA TD-DFT gradient, ML-optimized integration grids, 
  MM, NACMEs, nearIR, NEB, NEB-TS, NL-DFT gradient (VV10), 2- and 3-layer-ONIOM, interface openCOSMO-RS, QMMM,   
  Crystal-QMMM, RESP, rigid body optimization, SF, symmetry and pop. for TD-DFT, various functionals, SOLVATOR                                   
                                                                         
[Other institutions]                                                     
  V. Asgeirsson          : NEB                                           
  Christoph Bannwarth    : sTDA-DFT, sTD-DFT, PBEh-3c, B97-3c, D3        
  Giovanni Bistoni       : ETS/NOCV, ADLD/ADEX, COVALED                  
  Martin Brehm           : Molecular dynamics                            
  Ronald Cardenas        : ETS/NOCV                                      
  Martina Colucci        : COVALED                                       
  Sebastian Ehlert       : rSCAN, r2SCAN, r2SCAN-3c, D4, dhf basis sets  
  Marvin Friede          : D4 for Fr, Ra, Ac-Lr                          
  Lars Goerigk           : TD-DFT with DH, B97 family of functionals     
  Stefan Grimme          : VdW corrections, initial TS optimization, DFT functionals, gCP, sTDA/sTD-DF 
  Waldemar Hujo          : DFT-NL                                        
  H. Jonsson             : NEB                                           
  Holger Kruse           : gCP                                           
  Marcel Mueller         : wB97X-3c, vDZP basis set                      
  Hagen Neugebauer       : wr2SCAN, Native XTB                           
  Gianluca Regni         : ADLD/ADEX                                     
  Tobias Risthaus        : pre 6.0 range-separated hybrid DFT and stability analysis
  Lukas Wittmann         : regularized MP2, r2SCAN double-hybrids, wr2SCAN        
                                                                         
We gratefully acknowledge several colleagues who have allowed us to      
interface, adapt or use parts of their codes:                            
  Ed Valeev, F. Pavosevic, A. Kumar             : LibInt (2-el integral package), F12 methods 
  Garnet Chan, S. Sharma, J. Yang, R. Olivares  : DMRG                   
  Ulf Ekstrom                                   : XCFun DFT Library      
  Mihaly Kallay                                 : mrcc  (arbitrary order and MRCC methods)
  Frank Weinhold                                : gennbo (NPA and NBO analysis)           
  Simon Mueller                                 : openCOSMO-RS                            
  Christopher J. Cramer and Donald G. Truhlar   : smd solvation model                     
  S Lehtola, MJT Oliveira, MAL Marques          : LibXC Library                           
  Liviu Ungur et al                             : ANISO software                          


 Your calculation uses the libint2 library for the computation of 2-el integrals
 For citations please refer to: http://libint.valeyev.net

 Your ORCA version has been built with support for libXC version: 7.0.0
 For citations please refer to: https://libxc.gitlab.io

 This ORCA versions uses:
   CBLAS   interface :  Fast vector & matrix operations
   LAPACKE interface :  Fast linear algebra routines
   SCALAPACK package :  Parallel linear algebra routines
   Shared memory     :  Shared parallel matrices
   BLAS/LAPACK       :  OpenBLAS 0.3.29  USE64BITINT DYNAMIC_ARCH NO_AFFINITY Haswell SINGLE_THREADED
        Core in use  :  Haswell
   Copyright (c) 2011-2014, The OpenBLAS Project


  ***********************************
  * Starting time: Sat Aug 30 15:23:44 2025
  * Host name:     chemlab03
  * Process ID:    78357
  * Working dir.:  /home/vivek/mm-project/vivek/xtb-goat/B97-D-opt/e/0
  ***********************************



***************************************
The coordinates will be read from file: /home/vivek/mm-project/vivek/xtb-goat/xtb-goat/e/E_CONF/0.xyz
***************************************


Your calculation utilizes empirical dispersion correction


Warning: RI is on but no J-basis has been assigned. Assigning Def2/J (nothing to worry about!)
================================================================================

----- Orbital basis set information -----
Your calculation utilizes the basis: 6-31G**
   H-He, Li-Ne : W. J. Hehre, R. Ditchfield and J.A. Pople, J. Chem. Phys. 56, 2257 (1972).
                 Note: He and Ne are unpublished basis sets taken from the Gaussian program.
                 Note: Li and B from J. D. Dill and J. A. Pople, J. Chem. Phys. 62, 2921 (1975).
   Na - Ar     : M. M. Francl, W. J. Pietro, W. J. Hehre, J. S. Binkley, M. S. Gordon, 
                 D. J. DeFrees and J. A. Pople, J. Chem. Phys. 77, 3654 (1982).
   K - Zn      : V. A. Rassolov, J. A. Pople, M. A. Ratner, and T. L. Windus, J. Chem. Phys. 109, 1223 (1998).

----- AuxJ basis set information -----
Your calculation utilizes the auxiliary basis: def2/J
   H-Rn: F. Weigend, Phys. Chem. Chem. Phys. 8, 1057 (2006).
   Fr-Lr: K. Eichkorn, F. Weigend, O. Treutler, R. Ahlrichs; Theor. Chem. Acc. 97, 119 (1997).

================================================================================
                                        WARNINGS
                       Please study these warnings very carefully!
================================================================================


WARNING: Geometry Optimization
  ===> : Switching off AutoStart
         For restart on a previous wavefunction, please use MOREAD

INFO   : The exchange functional is Grimme's B97(-D)
         As described in S. Grimme, J. Comput. Chem. 27, 1787 (2006).
         Note that this functional defaults to a pure GGA. 

INFO   : The correlation functional is Grimme's B97(-D)
         As described in S. Grimme, J. Comput. Chem. 27, 1787 (2006).

================================================================================
                                       INPUT FILE
================================================================================
NAME = 0.inp
|  1> ! B97-D 6-31G** opt
|  2> 
|  3> * xyzfile 0 1 /home/vivek/mm-project/vivek/xtb-goat/xtb-goat/e/E_CONF/0.xyz
|  4> 
|  5>                          ****END OF INPUT****
================================================================================

                       *****************************
                       * Geometry Optimization Run *
                       *****************************

Geometry optimization settings:
Update method            Update   .... BFGS
Choice of coordinates    CoordSys .... (2022) Redundant Internals
Initial Hessian          InHess   .... Almloef's Model
Max. no of cycles        MaxIter  .... 57

Convergence Tolerances:
Energy Change            TolE     ....  5.0000e-06 Eh
Max. Gradient            TolMAXG  ....  3.0000e-04 Eh/bohr
RMS Gradient             TolRMSG  ....  1.0000e-04 Eh/bohr
Max. Displacement        TolMAXD  ....  4.0000e-03 bohr
RMS Displacement         TolRMSD  ....  2.0000e-03 bohr
Strict Convergence                .... False

------------------------------------------------------------------------------
                        ORCA OPTIMIZATION COORDINATE SETUP
------------------------------------------------------------------------------

The optimization will be done in redundant internal coordinates (2022)
Making redundant internal coordinates   ...  (2022 redundants) done
Evaluating the initial hessian          ...  (Almloef) done
Evaluating the coordinates              ...  done
Calculating the B-matrix                .... done
Calculating the G-matrix                .... done
The number of degrees of freedom        ....   78

    -----------------------------------------------------------------
                    Redundant Internal Coordinates


    -----------------------------------------------------------------
         Definition                    Initial Value    Approx d2E/dq
    -----------------------------------------------------------------
      1. B(C   1,C   0)                  1.5098         0.402349   
      2. B(O   4,C   0)                  1.3339         0.687623   
      3. B(C   5,C   1)                  1.5309         0.372363   
      4. B(H   6,C   1)                  1.0921         0.357338   
      5. B(H   7,C   1)                  1.0887         0.361832   
      6. B(C   8,C   5)                  1.5423         0.357126   
      7. B(H   9,C   5)                  1.0907         0.359188   
      8. B(H  10,C   5)                  1.0896         0.360569   
      9. B(C  11,C   8)                  1.5280         0.376326   
     10. B(O  12,C  11)                  1.2045         1.106050   
     11. B(N  13,C   8)                  1.4497         0.449472   
     12. B(N  13,H   3)                  1.0163         0.422785   
     13. B(N  13,H   2)                  1.0140         0.426416   
     14. B(H  14,O   4)                  0.9706         0.500100   
     15. B(O  15,C  11)                  1.3293         0.699292   
     16. B(H  16,C   8)                  1.0955         0.352917   
     17. B(O  17,C   0)                  1.2030         1.112130   
     18. B(H  18,O  15)                  0.9707         0.499916   
     19. A(O   4,C   0,O  17)          122.8533         0.485586   
     20. A(C   1,C   0,O  17)          125.2910         0.443198   
     21. A(C   1,C   0,O   4)          111.8557         0.406677   
     22. A(C   0,C   1,H   6)          107.6480         0.327888   
     23. A(C   0,C   1,H   7)          109.1943         0.328564   
     24. A(C   5,C   1,H   7)          110.8008         0.324401   
     25. A(H   6,C   1,H   7)          108.9291         0.290707   
     26. A(C   0,C   1,C   5)          111.5223         0.367793   
     27. A(C   5,C   1,H   6)          108.6590         0.323736   
     28. A(C   0,O   4,H  14)          110.9640         0.374256   
     29. A(C   8,C   5,H  10)          108.0237         0.322001   
     30. A(C   1,C   5,H  10)          108.5045         0.324215   
     31. A(C   8,C   5,H   9)          108.3646         0.321799   
     32. A(H   9,C   5,H  10)          109.1661         0.290783   
     33. A(C   1,C   5,H   9)          109.6242         0.324011   
     34. A(C   1,C   5,C   8)          113.0876         0.360370   
     35. A(C   5,C   8,C  11)          109.2458         0.361021   
     36. A(N  13,C   8,H  16)          109.0694         0.331252   
     37. A(C  11,C   8,H  16)          107.3814         0.323637   
     38. A(C   5,C   8,H  16)          107.5048         0.320873   
     39. A(C  11,C   8,N  13)          112.5434         0.373198   
     40. A(C   5,C   8,N  13)          110.9093         0.369849   
     41. A(C   8,C  11,O  12)          123.9256         0.437446   
     42. A(O  12,C  11,O  15)          123.6409         0.486606   
     43. A(C   8,C  11,O  15)          112.4311         0.403100   
     44. A(H   3,N  13,C   8)          109.2415         0.338421   
     45. A(H   2,N  13,C   8)          110.2743         0.338904   
     46. A(H   2,N  13,H   3)          106.5806         0.301430   
     47. A(C  11,O  15,H  18)          110.9093         0.375320   
     48. D(C   5,C   1,C   0,O  17)    -51.4364         0.012008   
     49. D(H   6,C   1,C   0,O  17)     67.6653         0.012008   
     50. D(H   6,C   1,C   0,O   4)   -112.2730         0.012008   
     51. D(H   7,C   1,C   0,O   4)      5.8399         0.012008   
     52. D(C   5,C   1,C   0,O   4)    128.6253         0.012008   
     53. D(H  14,O   4,C   0,O  17)      3.5599         0.035289   
     54. D(H  14,O   4,C   0,C   1)   -176.5001         0.035289   
     55. D(H   9,C   5,C   1,H   7)   -177.7178         0.011076   
     56. D(H   9,C   5,C   1,H   6)    -58.0779         0.011076   
     57. D(H   9,C   5,C   1,C   0)     60.4208         0.011076   
     58. D(C   8,C   5,C   1,H   7)     61.2440         0.011076   
     59. D(C   8,C   5,C   1,H   6)   -179.1161         0.011076   
     60. D(C   8,C   5,C   1,C   0)    -60.6174         0.011076   
     61. D(C  11,C   8,C   5,H   9)    -51.6820         0.010244   
     62. D(C  11,C   8,C   5,C   1)     70.0667         0.010244   
     63. D(N  13,C   8,C   5,H  10)     65.5500         0.010244   
     64. D(N  13,C   8,C   5,H   9)   -176.2993         0.010244   
     65. D(N  13,C   8,C   5,C   1)    -54.5505         0.010244   
     66. D(C  11,C   8,C   5,H  10)   -169.8327         0.010244   
     67. D(O  15,C  11,C   8,N  13)   -168.3108         0.010581   
     68. D(O  15,C  11,C   8,C   5)     68.0325         0.010581   
     69. D(O  12,C  11,C   8,H  16)    131.1791         0.010581   
     70. D(O  12,C  11,C   8,N  13)     11.1390         0.010581   
     71. D(O  12,C  11,C   8,C   5)   -112.5177         0.010581   
     72. D(H   3,N  13,C   8,C  11)    -44.6725         0.017234   
     73. D(H   3,N  13,C   8,C   5)     78.0548         0.017234   
     74. D(H   2,N  13,C   8,H  16)    -46.9145         0.017234   
     75. D(H   2,N  13,C   8,C  11)     72.1451         0.017234   
     76. D(H   2,N  13,C   8,C   5)   -165.1276         0.017234   
     77. D(H  18,O  15,C  11,O  12)      6.7187         0.036613   
     78. D(H  18,O  15,C  11,C   8)   -173.8297         0.036613   
    -----------------------------------------------------------------

Number of atoms                         .... 19
Number of degrees of freedom            .... 78


         *************************************************************
         *                GEOMETRY OPTIMIZATION CYCLE   1            *
         *************************************************************
---------------------------------
CARTESIAN COORDINATES (ANGSTROEM)
---------------------------------
  C     -2.511429   -0.405267   -0.190504
  C     -2.292722    0.805535   -1.065505
  H     -0.669821    3.061481    1.723971
  H     -1.986702    2.207653    1.292670
  O     -3.503657   -0.215706    0.680638
  C     -0.823975    1.237237   -1.070090
  H     -2.580455    0.534626   -2.083587
  H     -2.932878    1.616134   -0.721436
  C     -0.302756    1.623435    0.329102
  H     -0.204976    0.426161   -1.455578
  H     -0.720846    2.105841   -1.719875
  C     -0.196352    0.366582    1.191536
  O     -0.889820    0.149815    2.152273
  N     -1.141597    2.641082    0.930962
  H     -3.597118   -0.979549    1.272137
  O      0.756917   -0.458545    0.770131
  H      0.710122    2.021889    0.205009
  O     -1.882866   -1.429253   -0.251091
  H      0.741956   -1.289826    1.271134

----------------------------
CARTESIAN COORDINATES (A.U.)
----------------------------
  NO LB      ZA    FRAG     MASS         X           Y           Z
   0 C     6.0000    0    12.011   -4.745913   -0.765844   -0.360000
   1 C     6.0000    0    12.011   -4.332617    1.522240   -2.013513
   2 H     1.0000    0     1.008   -1.265777    5.785362    3.257833
   3 H     1.0000    0     1.008   -3.754323    4.171859    2.442792
   4 O     8.0000    0    15.999   -6.620952   -0.407625    1.286219
   5 C     6.0000    0    12.011   -1.557087    2.338040   -2.022178
   6 H     1.0000    0     1.008   -4.876354    1.010297   -3.937409
   7 H     1.0000    0     1.008   -5.542336    3.054050   -1.363316
   8 C     6.0000    0    12.011   -0.572126    3.067847    0.621913
   9 H     1.0000    0     1.008   -0.387349    0.805327   -2.750644
  10 H     1.0000    0     1.008   -1.362201    3.979462   -3.250093
  11 C     6.0000    0    12.011   -0.371052    0.692740    2.251677
  12 O     8.0000    0    15.999   -1.681516    0.283109    4.067207
  13 N     7.0000    0    14.007   -2.157305    4.990921    1.759264
  14 H     1.0000    0     1.008   -6.797569   -1.851080    2.403990
  15 O     8.0000    0    15.999    1.430365   -0.866524    1.455337
  16 H     1.0000    0     1.008    1.341936    3.820816    0.387411
  17 O     8.0000    0    15.999   -3.558101   -2.700897   -0.474493
  18 H     1.0000    0     1.008    1.402094   -2.437419    2.402095

--------------------------------
INTERNAL COORDINATES (ANGSTROEM)
--------------------------------
 C      0   0   0     0.000000000000     0.00000000     0.00000000
 C      1   0   0     1.509801756753     0.00000000     0.00000000
 H      2   1   0     3.937547704542    96.23492774     0.00000000
 H      3   2   1     1.627642722940    34.74066589   301.39155385
 O      1   2   3     1.333918298850   111.85572916    72.46884457
 C      2   1   3     1.530884460114   111.52230684    56.15646792
 H      2   1   3     1.092095697438   107.64795713   175.25817868
 H      2   1   3     1.088693545136   109.19431936   293.37104209
 C      6   2   1     1.542257174865   113.08762117   299.38261224
 H      6   2   1     1.090690062123   109.62424957    60.42079300
 H      6   2   1     1.089645505974   108.50454649   179.55731111
 C      9   6   2     1.528002591748   109.24582566    70.06669691
 O     12   9   6     1.204533955037   123.92561173   247.48228867
 N      3   2   1     1.013987580449    10.47195906   207.57761023
 H      5   1   2     0.970598952300   110.96400851   183.49990906
 O     12   9   6     1.329337672617   112.43106987    68.03250564
 H      9   6   2     1.095484642455   107.50478491   186.29133315
 O      1   2   3     1.203041635295   125.29095440   252.40710728
 H     16  12   9     0.970699073708   110.90934412   186.17030938

---------------------------
INTERNAL COORDINATES (A.U.)
---------------------------
 C      0   0   0     0.000000000000     0.00000000     0.00000000
 C      1   0   0     2.853111836776     0.00000000     0.00000000
 H      2   1   0     7.440886800835    96.23492774     0.00000000
 H      3   2   1     3.075798990226    34.74066589   301.39155385
 O      1   2   3     2.520740269852   111.85572916    72.46884457
 C      2   1   3     2.892952372291   111.52230684    56.15646792
 H      2   1   3     2.063761780192   107.64795713   175.25817868
 H      2   1   3     2.057332644076   109.19431936   293.37104209
 C      6   2   1     2.914443688570   113.08762117   299.38261224
 H      6   2   1     2.061105514402   109.62424957    60.42079300
 H      6   2   1     2.059131589348   108.50454649   179.55731111
 C      9   6   2     2.887506430325   109.24582566    70.06669691
 O     12   9   6     2.276239294029   123.92561173   247.48228867
 N      3   2   1     1.916158830246    10.47195906   207.57761023
 H      5   1   2     1.834166205717   110.96400851   183.49990906
 O     12   9   6     2.512084140751   112.43106987    68.03250564
 H      9   6   2     2.070165958156   107.50478491   186.29133315
 O      1   2   3     2.273419218413   125.29095440   252.40710728
 H     16  12   9     1.834355407758   110.90934412   186.17030938

---------------------
BASIS SET INFORMATION
---------------------
There are 4 groups of distinct atoms

 Group   1 Type C   : 10s4p1d contracted to 3s2p1d pattern {631/31/1}
 Group   2 Type H   : 4s1p contracted to 2s1p pattern {31/1}
 Group   3 Type O   : 10s4p1d contracted to 3s2p1d pattern {631/31/1}
 Group   4 Type N   : 10s4p1d contracted to 3s2p1d pattern {631/31/1}

Atom   0C    basis set group =>   1
Atom   1C    basis set group =>   1
Atom   2H    basis set group =>   2
Atom   3H    basis set group =>   2
Atom   4O    basis set group =>   3
Atom   5C    basis set group =>   1
Atom   6H    basis set group =>   2
Atom   7H    basis set group =>   2
Atom   8C    basis set group =>   1
Atom   9H    basis set group =>   2
Atom  10H    basis set group =>   2
Atom  11C    basis set group =>   1
Atom  12O    basis set group =>   3
Atom  13N    basis set group =>   4
Atom  14H    basis set group =>   2
Atom  15O    basis set group =>   3
Atom  16H    basis set group =>   2
Atom  17O    basis set group =>   3
Atom  18H    basis set group =>   2
---------------------------------
AUXILIARY/J BASIS SET INFORMATION
---------------------------------
There are 4 groups of distinct atoms

 Group   1 Type C   : 12s5p4d2f1g contracted to 6s4p3d1f1g pattern {711111/2111/211/2/1}
 Group   2 Type H   : 5s2p1d contracted to 3s1p1d pattern {311/2/1}
 Group   3 Type O   : 12s5p4d2f1g contracted to 6s4p3d1f1g pattern {711111/2111/211/2/1}
 Group   4 Type N   : 12s5p4d2f1g contracted to 6s4p3d1f1g pattern {711111/2111/211/2/1}

Atom   0C    basis set group =>   1
Atom   1C    basis set group =>   1
Atom   2H    basis set group =>   2
Atom   3H    basis set group =>   2
Atom   4O    basis set group =>   3
Atom   5C    basis set group =>   1
Atom   6H    basis set group =>   2
Atom   7H    basis set group =>   2
Atom   8C    basis set group =>   1
Atom   9H    basis set group =>   2
Atom  10H    basis set group =>   2
Atom  11C    basis set group =>   1
Atom  12O    basis set group =>   3
Atom  13N    basis set group =>   4
Atom  14H    basis set group =>   2
Atom  15O    basis set group =>   3
Atom  16H    basis set group =>   2
Atom  17O    basis set group =>   3
Atom  18H    basis set group =>   2
------------------------------------------------------------------------------
                             ORCA STARTUP CALCULATIONS
                           -- RI-GTO INTEGRALS CHOSEN --
------------------------------------------------------------------------------
------------------------------------------------------------------------------
                   ___                                                        
                  /   \      - P O W E R E D   B Y -                         
                 /     \                                                     
                 |  |  |   _    _      __       _____    __    __             
                 |  |  |  | |  | |    /  \     |  _  \  |  |  /  |          
                  \  \/   | |  | |   /    \    | | | |  |  | /  /          
                 / \  \   | |__| |  /  /\  \   | |_| |  |  |/  /          
                |  |  |   |  __  | /  /__\  \  |    /   |      \           
                |  |  |   | |  | | |   __   |  |    \   |  |\   \          
                \     /   | |  | | |  |  |  |  | |\  \  |  | \   \       
                 \___/    |_|  |_| |__|  |__|  |_| \__\ |__|  \__/        
                                                                              
                      - O R C A' S   B I G   F R I E N D -                    
                                      &                                       
                       - I N T E G R A L  F E E D E R -                       
                                                                              
 v1 FN, 2020, v2 2021, v3 2022-2024                                           
------------------------------------------------------------------------------


----------------------
SHARK INTEGRAL PACKAGE
----------------------

Number of atoms                             ...     19
Number of basis functions                   ...    185
Number of shells                            ...     87
Maximum angular momentum                    ...      2
Integral batch strategy                     ... SHARK/LIBINT Hybrid
RI-J (if used) integral strategy            ... SPLIT-RIJ (Revised 2003 algorithm where possible)
Printlevel                                  ...      1
Contraction scheme used                     ... SEGMENTED contraction
Prescreening option                         ... SCHWARTZ
   Thresh                                   ... 2.500e-11
   Tcut                                     ... 2.500e-12
   Tpresel                                  ... 2.500e-12 
Coulomb Range Separation                    ... NOT USED
Exchange Range Separation                   ... NOT USED
Multipole approximations                    ... NOT USED
Finite Nucleus Model                        ... NOT USED
CABS basis                                  ... NOT available
Auxiliary Coulomb fitting basis             ... AVAILABLE
   # of basis functions in Aux-J            ...    589
   # of shells in Aux-J                     ...    195
   Maximum angular momentum in Aux-J        ...      4
Auxiliary J/K fitting basis                 ... NOT available
Auxiliary Correlation fitting basis         ... NOT available
Auxiliary 'external' fitting basis          ... NOT available

Checking pre-screening integrals            ... done (  0.0 sec) Dimension = 87
   => SHARK Basis and OBASIS are compatible. Storing Pre-screening
Shell pair information
Shell pair cut-off parameter TPreSel        ...   2.5e-12
Total number of shell pairs                 ...      3828
Shell pairs after pre-screening             ...      3552
Total number of primitive shell pairs       ...     19347
Primitive shell pairs kept                  ...     11685
          la=0 lb=0:   1069 shell pairs
          la=1 lb=0:   1274 shell pairs
          la=1 lb=1:    408 shell pairs
          la=2 lb=0:    463 shell pairs
          la=2 lb=1:    283 shell pairs
          la=2 lb=2:     55 shell pairs

Checking whether 4 symmetric matrices of dimension 185 fit in memory
:Max Core in MB      =   4096.00
 MB in use           =      8.26
 MB left             =   4087.74
 MB needed           =      0.53
 Data fit in memory  = YES
Calculating RI/J V-Matrix + Cholesky decomp.... done (  0.0 sec)
Calculating Nuclear repulsion               ... done (  0.0 sec) ENN=    592.354615005479 Eh

Diagonalization of the overlap matrix:
Smallest eigenvalue                        ... 2.934e-03
Time for diagonalization                   ...    0.002 sec
Threshold for overlap eigenvalues          ... 1.000e-07
Number of eigenvalues below threshold      ... 0
Time for construction of square roots      ...    0.001 sec
Total time needed                          ...    0.002 sec

-------------------
DFT GRID GENERATION
-------------------

General Integration Accuracy     IntAcc      ... 4.388
Radial Grid Type                 RadialGrid  ... OptM3 with GC (2021)
Angular Grid (max. ang.)         AngularGrid ... 4 (Lebedev-302)
Angular grid pruning method      GridPruning ... 4 (adaptive)
Weight generation scheme         WeightScheme... mBecke (2022)
Basis function cutoff            BFCut       ... 1.0000e-11
Integration weight cutoff        WCut        ... 1.0000e-14
Partially contracted basis set               ... off
Rotationally invariant grid construction     ... off
Angular grids for H and He will be reduced by one unit

Total number of grid points                  ...    89047
Total number of batches                      ...     1402
Average number of points per batch           ...       63
Average number of grid points per atom       ...     4687
Grids setup in   0.4 sec
Initializing property integral containers    ... done (  0.0 sec)

SHARK setup successfully completed in   0.5 seconds

Maximum memory used throughout the entire STARTUP-calculation: 38.0 MB
-------------------------------------------------------------------------------
                                 ORCA GUESS
                   Start orbitals & Density for SCF / CASSCF
-------------------------------------------------------------------------------

------------
SCF SETTINGS
------------
Hamiltonian:
 Density Functional     Method          .... DFT(GTOs)
 Exchange Functional    Exchange        .... B97(D)
 Correlation Functional Correlation     .... B97(D)
 Gradients option       PostSCFGGA      .... off
 RI-approximation to the Coulomb term is turned on
   Number of AuxJ basis functions       .... 589


General Settings:
 Integral files         IntName         .... 0
 Hartree-Fock type      HFTyp           .... RHF
 Total Charge           Charge          ....    0
 Multiplicity           Mult            ....    1
 Number of Electrons    NEL             ....   78
 Basis Dimension        Dim             ....  185
 Nuclear Repulsion      ENuc            ....    592.3546150055 Eh

Convergence Acceleration:
 AO-DIIS                CNVDIIS         .... on
   Start iteration      DIISMaxIt       ....    12
   Startup error        DIISStart       ....  0.200000
   # of expansion vecs  DIISMaxEq       ....     5
   Bias factor          DIISBfac        ....   1.050
   Max. coefficient     DIISMaxC        ....  10.000
 MO-DIIS                CNVKDIIS        .... off
 Trust-Rad. Augm. Hess. CNVTRAH         .... auto
   Auto Start mean grad. ratio tolernc. ....  1.125000
   Auto Start start iteration           ....    50
   Auto Start num. interpolation iter.  ....    10
   Max. Number of Micro iterations      ....    24
   Max. Number of Macro iterations      .... Maxiter - #DIIS iter
   Number of Davidson start vectors     ....     2
   Converg. threshold    (grad. norm)   ....   1.000e-05
   Grad. Scal. Fac. for Micro threshold ....   0.100
   Minimum threshold for Micro iter.    ....   1.000e-02
   NR start threshold (gradient norm)   ....   1.000e-04
   Initial trust radius                 ....   0.400
   Minimum AH scaling param. (alpha)    ....   1.000
   Maximum AH scaling param. (alpha)    .... 1000.000
   Quad. conv. algorithm                .... NR
   White noise on init. David. guess    .... on
   Maximum white noise                  ....   0.010
   Pseudo random numbers                .... off
   Inactive MOs                         .... canonical
   Orbital update algorithm             .... Taylor
   Preconditioner                       .... Diag
   Full preconditioner red. dimension   ....   250
 SOSCF                 CNVSOSCF           .... on
   Start iteration     SOSCFMaxIt         ....   150
   Startup grad/error  SOSCFStart         ....  0.003300
   Hessian update      SOSCFHessUp        .... L-BFGS
   Autom. constraints  SOSCFAutoConstrain .... off
 Level Shifting         CNVShift        .... on
   Level shift para.    LevelShift      ....    0.2500
   Turn off err/grad.   ShiftErr        ....    0.0010
 Zerner damping         CNVZerner       .... off
 Static damping         CNVDamp         .... on
   Fraction old density DampFac         ....    0.7000
   Max. Damping (<1)    DampMax         ....    0.9800
   Min. Damping (>=0)   DampMin         ....    0.0000
   Turn off err/grad.   DampErr         ....    0.1000

SCF Procedure:
 Maximum # iterations   MaxIter         ....   125
 SCF integral mode      SCFMode         .... Direct
   Integral package                     .... SHARK and LIBINT hybrid scheme
 Reset frequency        DirectResetFreq ....    20
 Integral Threshold     Thresh          ....  2.500e-11 Eh
 Primitive CutOff       TCut            ....  2.500e-12 Eh

Convergence Tolerance:
 Convergence Check Mode ConvCheckMode   .... Total+1el-Energy
 Convergence forced     ConvForced      .... 0
 Energy Change          TolE            ....  1.000e-08 Eh
 1-El. energy change                    ....  1.000e-05 Eh
 Orbital Gradient       TolG            ....  1.000e-05
 Orbital Rotation angle TolX            ....  1.000e-05
 DIIS Error             TolErr          ....  5.000e-07

------------------------------
INITIAL GUESS: MODEL POTENTIAL
------------------------------
Loading Hartree-Fock densities                     ... done
Calculating cut-offs                               ... done
Initializing the effective Hamiltonian             ... done
Setting up the integral package (SHARK)            ... done
Starting the Coulomb interaction                   ... done (   0.1 sec)
Making the grid                                    ... done (   0.1 sec)
Mapping shells                                     ... done
Starting the XC term evaluation                    ... done (   0.1 sec)
  promolecular density results
     # of electrons  =     77.999019715
     EX              =    -66.730819905
     EC              =     -3.513330495
     EX+EC           =    -70.244150399
Transforming the Hamiltonian                       ... done (   0.0 sec)
Diagonalizing the Hamiltonian                      ... done (   0.0 sec)
Back transforming the eigenvectors                 ... done (   0.0 sec)
Now organizing SCF variables                       ... done
                      ------------------
                      INITIAL GUESS DONE (   0.3 sec)
                      ------------------
             **** ENERGY FILE WAS UPDATED (0.en.tmp) ****
Finished Guess after   0.3 sec
Maximum memory used throughout the entire GUESS-calculation: 13.7 MB

-------------------------------------------------------------------------------------------
                                      ORCA LEAN-SCF
                              memory conserving SCF solver
-------------------------------------------------------------------------------------------

----------------------------------------D-I-I-S--------------------------------------------
Iteration    Energy (Eh)           Delta-E    RMSDP     MaxDP     DIISErr   Damp  Time(sec)
-------------------------------------------------------------------------------------------
               ***  Starting incremental Fock matrix formation  ***
    1    -550.8637668758807422     0.00e+00  3.99e-03  9.92e-02  2.59e-01  0.700   0.6
    2    -551.0625758849004114    -1.99e-01  2.40e-03  5.04e-02  9.27e-02  0.700   0.5
                               ***Turning on AO-DIIS***
    3    -551.1200884138651190    -5.75e-02  8.79e-04  1.51e-02  2.90e-02  0.700   0.5
    4    -551.1593730570194793    -3.93e-02  1.16e-03  1.86e-02  1.52e-02  0.000   0.5
    5    -551.2517768452784139    -9.24e-02  4.05e-04  8.02e-03  1.06e-02  0.000   0.5
                              *** Initializing SOSCF ***
---------------------------------------S-O-S-C-F--------------------------------------
Iteration    Energy (Eh)           Delta-E    RMSDP     MaxDP     MaxGrad    Time(sec)
--------------------------------------------------------------------------------------
    6    -551.2526675975724402    -8.91e-04  1.45e-04  2.39e-03  2.88e-03     0.5
               *** Restarting incremental Fock matrix formation ***
    7    -551.2527346225680276    -6.70e-05  1.23e-04  2.71e-03  6.85e-04     0.6
    8    -551.2527104427025506     2.42e-05  6.76e-05  2.08e-03  1.77e-03     0.5
    9    -551.2527448504910126    -3.44e-05  4.46e-05  8.26e-04  2.11e-04     0.5
   10    -551.2527424825553908     2.37e-06  2.56e-05  4.63e-04  2.97e-04     0.5
   11    -551.2527465399965649    -4.06e-06  9.25e-06  2.44e-04  4.24e-05     0.5
   12    -551.2527464002206443     1.40e-07  5.59e-06  1.67e-04  6.83e-05     0.4
   13    -551.2527466157870322    -2.16e-07  3.71e-06  1.21e-04  2.72e-05     0.4
   14    -551.2527465772678852     3.85e-08  2.56e-06  8.90e-05  5.85e-05     0.4
   15    -551.2527466254713318    -4.82e-08  7.80e-07  1.94e-05  2.93e-06     0.4
   16    -551.2527466222403518     3.23e-09  4.46e-07  1.40e-05  4.44e-06     0.4
                 **** Energy Check signals convergence ****

               *****************************************************
               *                     SUCCESS                       *
               *           SCF CONVERGED AFTER  16 CYCLES          *
               *****************************************************

             **** ENERGY FILE WAS UPDATED (0.en.tmp) ****

----------------
TOTAL SCF ENERGY
----------------

Total Energy       :       -551.25274662531399 Eh          -15000.34984 eV

Components:
Nuclear Repulsion  :        592.35461500547933 Eh           16118.78854 eV
Electronic Energy  :      -1143.60736163079332 Eh          -31119.13838 eV
One Electron Energy:      -1930.03868503180684 Eh          -52519.02264 eV
Two Electron Energy:        786.43132340101351 Eh           21399.88426 eV

Virial components:
Potential Energy   :      -1099.77801789571276 Eh          -29926.48130 eV
Kinetic Energy     :        548.52527127039878 Eh           14926.13146 eV
Virial Ratio       :          2.00497237866288

DFT components:
N(Alpha)           :       38.999886186616 electrons
N(Beta)            :       38.999886186616 electrons
N(Total)           :       77.999772373232 electrons
E(X)               :      -68.096785213260 Eh       
E(C)               :       -3.501618748743 Eh       
E(XC)              :      -71.598403962003 Eh       

---------------
SCF CONVERGENCE
---------------

  Last Energy change         ...   -3.2310e-09  Tolerance :   1.0000e-08
  Last MAX-Density change    ...    1.3953e-05  Tolerance :   1.0000e-07
  Last RMS-Density change    ...    4.4632e-07  Tolerance :   5.0000e-09
  Last DIIS Error            ...    2.8839e-03  Tolerance :   5.0000e-07
  Last Orbital Gradient      ...    4.4420e-06  Tolerance :   1.0000e-05
  Last Orbital Rotation      ...    4.2685e-06  Tolerance :   1.0000e-05


----------------
ORBITAL ENERGIES
----------------

  NO   OCC          E(Eh)            E(eV) 
   0   2.0000     -18.810527      -511.8605 
   1   2.0000     -18.810191      -511.8513 
   2   2.0000     -18.751485      -510.2538 
   3   2.0000     -18.748895      -510.1834 
   4   2.0000     -13.986911      -380.6032 
   5   2.0000     -10.030613      -272.9469 
   6   2.0000     -10.026013      -272.8217 
   7   2.0000      -9.949224      -270.7321 
   8   2.0000      -9.919587      -269.9257 
   9   2.0000      -9.916222      -269.8341 
  10   2.0000      -1.021282       -27.7905 
  11   2.0000      -1.016313       -27.6553 
  12   2.0000      -0.930574       -25.3222 
  13   2.0000      -0.928746       -25.2725 
  14   2.0000      -0.816898       -22.2289 
  15   2.0000      -0.722834       -19.6693 
  16   2.0000      -0.657982       -17.9046 
  17   2.0000      -0.601162       -16.3584 
  18   2.0000      -0.552793       -15.0423 
  19   2.0000      -0.515513       -14.0278 
  20   2.0000      -0.471306       -12.8249 
  21   2.0000      -0.449977       -12.2445 
  22   2.0000      -0.430344       -11.7103 
  23   2.0000      -0.419827       -11.4241 
  24   2.0000      -0.415193       -11.2980 
  25   2.0000      -0.406157       -11.0521 
  26   2.0000      -0.384722       -10.4688 
  27   2.0000      -0.375690       -10.2230 
  28   2.0000      -0.360124        -9.7995 
  29   2.0000      -0.354311        -9.6413 
  30   2.0000      -0.334093        -9.0911 
  31   2.0000      -0.316843        -8.6217 
  32   2.0000      -0.309800        -8.4301 
  33   2.0000      -0.300920        -8.1884 
  34   2.0000      -0.271699        -7.3933 
  35   2.0000      -0.268148        -7.2967 
  36   2.0000      -0.222727        -6.0607 
  37   2.0000      -0.220667        -6.0046 
  38   2.0000      -0.196818        -5.3557 
  39   0.0000      -0.027494        -0.7481 
  40   0.0000      -0.003596        -0.0978 
  41   0.0000       0.054352         1.4790 
  42   0.0000       0.060773         1.6537 
  43   0.0000       0.070565         1.9202 
  44   0.0000       0.104919         2.8550 
  45   0.0000       0.116110         3.1595 
  46   0.0000       0.132198         3.5973 
  47   0.0000       0.152508         4.1500 
  48   0.0000       0.160070         4.3557 
  49   0.0000       0.172368         4.6904 
*Only the first 10 virtual orbitals were printed.

                    ********************************
                    * MULLIKEN POPULATION ANALYSIS *
                    ********************************

-----------------------
MULLIKEN ATOMIC CHARGES
-----------------------
   0 C :    0.507759
   1 C :   -0.269366
   2 H :    0.244888
   3 H :    0.253925
   4 O :   -0.449061
   5 C :   -0.185206
   6 H :    0.143693
   7 H :    0.139854
   8 C :   -0.063861
   9 H :    0.138683
  10 H :    0.122540
  11 C :    0.510670
  12 O :   -0.432750
  13 N :   -0.559328
  14 H :    0.321316
  15 O :   -0.446047
  16 H :    0.128398
  17 O :   -0.428732
  18 H :    0.322627
Sum of atomic charges:    0.0000000

--------------------------------
MULLIKEN REDUCED ORBITAL CHARGES
--------------------------------
  0 C s       :     2.989603  s :     2.989603
      pz      :     0.783081  p :     2.375299
      px      :     0.734498
      py      :     0.857721
      dz2     :     0.016970  d :     0.127339
      dxz     :     0.022692
      dyz     :     0.027838
      dx2y2   :     0.036337
      dxy     :     0.023503

  1 C s       :     3.243608  s :     3.243608
      pz      :     1.030134  p :     2.991424
      px      :     0.987106
      py      :     0.974185
      dz2     :     0.006464  d :     0.034334
      dxz     :     0.005164
      dyz     :     0.007539
      dx2y2   :     0.006615
      dxy     :     0.008553

  2 H s       :     0.731118  s :     0.731118
      pz      :     0.009720  p :     0.023993
      px      :     0.006035
      py      :     0.008238

  3 H s       :     0.721970  s :     0.721970
      pz      :     0.006879  p :     0.024105
      px      :     0.010154
      py      :     0.007072

  4 O s       :     3.823876  s :     3.823876
      pz      :     1.439318  p :     4.602379
      px      :     1.579636
      py      :     1.583425
      dz2     :     0.002482  d :     0.022806
      dxz     :     0.004113
      dyz     :     0.006370
      dx2y2   :     0.006369
      dxy     :     0.003472

  5 C s       :     3.228448  s :     3.228448
      pz      :     0.947860  p :     2.920719
      px      :     0.928726
      py      :     1.044134
      dz2     :     0.006742  d :     0.036039
      dxz     :     0.006250
      dyz     :     0.008684
      dx2y2   :     0.006521
      dxy     :     0.007843

  6 H s       :     0.844393  s :     0.844393
      pz      :     0.006157  p :     0.011915
      px      :     0.002950
      py      :     0.002808

  7 H s       :     0.848510  s :     0.848510
      pz      :     0.002911  p :     0.011635
      px      :     0.003844
      py      :     0.004880

  8 C s       :     3.205412  s :     3.205412
      pz      :     0.934782  p :     2.801539
      px      :     0.992371
      py      :     0.874386
      dz2     :     0.011543  d :     0.056910
      dxz     :     0.007372
      dyz     :     0.014810
      dx2y2   :     0.012264
      dxy     :     0.010921

  9 H s       :     0.849755  s :     0.849755
      pz      :     0.002833  p :     0.011562
      px      :     0.003698
      py      :     0.005030

 10 H s       :     0.865960  s :     0.865960
      pz      :     0.003817  p :     0.011500
      px      :     0.002482
      py      :     0.005201

 11 C s       :     2.983530  s :     2.983530
      pz      :     0.816587  p :     2.379908
      px      :     0.735443
      py      :     0.827878
      dz2     :     0.025964  d :     0.125892
      dxz     :     0.022434
      dyz     :     0.030287
      dx2y2   :     0.022820
      dxy     :     0.024386

 12 O s       :     3.864841  s :     3.864841
      pz      :     1.384423  p :     4.539871
      px      :     1.472889
      py      :     1.682559
      dz2     :     0.009389  d :     0.028038
      dxz     :     0.007257
      dyz     :     0.005126
      dx2y2   :     0.003015
      dxy     :     0.003251

 13 N s       :     3.587819  s :     3.587819
      pz      :     1.374424  p :     3.943222
      px      :     1.162411
      py      :     1.406388
      dz2     :     0.005305  d :     0.028287
      dxz     :     0.007173
      dyz     :     0.004838
      dx2y2   :     0.003461
      dxy     :     0.007510

 14 H s       :     0.640858  s :     0.640858
      pz      :     0.013252  p :     0.037827
      px      :     0.007979
      py      :     0.016596

 15 O s       :     3.826000  s :     3.826000
      pz      :     1.678255  p :     4.597071
      px      :     1.605393
      py      :     1.313423
      dz2     :     0.003067  d :     0.022976
      dxz     :     0.004367
      dyz     :     0.006415
      dx2y2   :     0.005531
      dxy     :     0.003597

 16 H s       :     0.860505  s :     0.860505
      pz      :     0.002494  p :     0.011097
      px      :     0.005973
      py      :     0.002630

 17 O s       :     3.865006  s :     3.865006
      pz      :     1.620594  p :     4.535674
      px      :     1.502461
      py      :     1.412619
      dz2     :     0.002609  d :     0.028051
      dxz     :     0.002443
      dyz     :     0.006520
      dx2y2   :     0.008726
      dxy     :     0.007754

 18 H s       :     0.639309  s :     0.639309
      pz      :     0.012047  p :     0.038064
      px      :     0.007952
      py      :     0.018065



                     *******************************
                     * LOEWDIN POPULATION ANALYSIS *
                     *******************************

----------------------
LOEWDIN ATOMIC CHARGES
----------------------
   0 C :    0.111913
   1 C :   -0.149210
   2 H :    0.128654
   3 H :    0.128269
   4 O :   -0.130185
   5 C :   -0.107802
   6 H :    0.097748
   7 H :    0.085679
   8 C :   -0.053076
   9 H :    0.083152
  10 H :    0.079897
  11 C :    0.095909
  12 O :   -0.227132
  13 N :   -0.249493
  14 H :    0.184100
  15 O :   -0.125741
  16 H :    0.087443
  17 O :   -0.225916
  18 H :    0.185790

-------------------------------
LOEWDIN REDUCED ORBITAL CHARGES
-------------------------------
  0 C s       :     2.848439  s :     2.848439
      pz      :     0.867665  p :     2.737625
      px      :     0.861675
      py      :     1.008286
      dz2     :     0.037624  d :     0.302022
      dxz     :     0.056153
      dyz     :     0.064855
      dx2y2   :     0.084960
      dxy     :     0.058429

  1 C s       :     2.905047  s :     2.905047
      pz      :     1.070495  p :     3.166620
      px      :     1.053238
      py      :     1.042887
      dz2     :     0.014324  d :     0.077544
      dxz     :     0.010118
      dyz     :     0.018093
      dx2y2   :     0.016751
      dxy     :     0.018257

  2 H s       :     0.792307  s :     0.792307
      pz      :     0.035542  p :     0.079039
      px      :     0.018747
      py      :     0.024750

  3 H s       :     0.791143  s :     0.791143
      pz      :     0.020777  p :     0.080588
      px      :     0.036866
      py      :     0.022944

  4 O s       :     3.468536  s :     3.468536
      pz      :     1.449142  p :     4.610647
      px      :     1.583410
      py      :     1.578095
      dz2     :     0.005678  d :     0.051002
      dxz     :     0.013523
      dyz     :     0.013810
      dx2y2   :     0.011702
      dxy     :     0.006289

  5 C s       :     2.903436  s :     2.903436
      pz      :     1.024667  p :     3.123931
      px      :     1.019519
      py      :     1.079745
      dz2     :     0.016731  d :     0.080434
      dxz     :     0.014085
      dyz     :     0.018058
      dx2y2   :     0.015183
      dxy     :     0.016378

  6 H s       :     0.861963  s :     0.861963
      pz      :     0.023394  p :     0.040288
      px      :     0.008772
      py      :     0.008123

  7 H s       :     0.872415  s :     0.872415
      pz      :     0.009054  p :     0.041906
      px      :     0.013931
      py      :     0.018920

  8 C s       :     2.882878  s :     2.882878
      pz      :     1.017406  p :     3.040479
      px      :     1.035374
      py      :     0.987699
      dz2     :     0.026545  d :     0.129718
      dxz     :     0.016225
      dyz     :     0.035918
      dx2y2   :     0.026678
      dxy     :     0.024353

  9 H s       :     0.875781  s :     0.875781
      pz      :     0.009398  p :     0.041067
      px      :     0.013147
      py      :     0.018522

 10 H s       :     0.880036  s :     0.880036
      pz      :     0.013819  p :     0.040067
      px      :     0.007110
      py      :     0.019138

 11 C s       :     2.857829  s :     2.857829
      pz      :     0.947146  p :     2.745169
      px      :     0.867783
      py      :     0.930240
      dz2     :     0.057338  d :     0.301093
      dxz     :     0.058174
      dyz     :     0.074170
      dx2y2   :     0.053226
      dxy     :     0.058185

 12 O s       :     3.553586  s :     3.553586
      pz      :     1.445400  p :     4.615664
      px      :     1.498551
      py      :     1.671713
      dz2     :     0.016274  d :     0.057881
      dxz     :     0.019388
      dyz     :     0.010384
      dx2y2   :     0.005863
      dxy     :     0.005971

 13 N s       :     3.193395  s :     3.193395
      pz      :     1.389430  p :     3.998779
      px      :     1.192587
      py      :     1.416763
      dz2     :     0.009069  d :     0.057319
      dxz     :     0.013745
      dyz     :     0.009880
      dx2y2   :     0.008149
      dxy     :     0.016476

 14 H s       :     0.700532  s :     0.700532
      pz      :     0.039426  p :     0.115367
      px      :     0.022499
      py      :     0.053443

 15 O s       :     3.463052  s :     3.463052
      pz      :     1.668451  p :     4.610991
      px      :     1.608303
      py      :     1.334237
      dz2     :     0.005728  d :     0.051698
      dxz     :     0.007688
      dyz     :     0.013364
      dx2y2   :     0.012641
      dxy     :     0.012277

 16 H s       :     0.873136  s :     0.873136
      pz      :     0.007787  p :     0.039421
      px      :     0.022787
      py      :     0.008846

 17 O s       :     3.552863  s :     3.552863
      pz      :     1.600662  p :     4.615168
      px      :     1.522566
      py      :     1.491940
      dz2     :     0.007290  d :     0.057885
      dxz     :     0.004190
      dyz     :     0.010600
      dx2y2   :     0.016190
      dxy     :     0.019614

 18 H s       :     0.698567  s :     0.698567
      pz      :     0.037344  p :     0.115642
      px      :     0.022395
      py      :     0.055903



                      *****************************
                      * MAYER POPULATION ANALYSIS *
                      *****************************

  NA   - Mulliken gross atomic population
  ZA   - Total nuclear charge
  QA   - Mulliken gross atomic charge
  VA   - Mayer's total valence
  BVA  - Mayer's bonded valence
  FA   - Mayer's free valence

  ATOM       NA         ZA         QA         VA         BVA        FA
  0 C      5.4922     6.0000     0.5078     3.9989     3.9989    -0.0000
  1 C      6.2694     6.0000    -0.2694     3.8319     3.8319     0.0000
  2 H      0.7551     1.0000     0.2449     0.9194     0.9194    -0.0000
  3 H      0.7461     1.0000     0.2539     0.9325     0.9325    -0.0000
  4 O      8.4491     8.0000    -0.4491     2.0655     2.0655     0.0000
  5 C      6.1852     6.0000    -0.1852     3.8707     3.8707     0.0000
  6 H      0.8563     1.0000     0.1437     0.9495     0.9495    -0.0000
  7 H      0.8601     1.0000     0.1399     0.9557     0.9557    -0.0000
  8 C      6.0639     6.0000    -0.0639     3.8846     3.8846     0.0000
  9 H      0.8613     1.0000     0.1387     0.9555     0.9555     0.0000
 10 H      0.8775     1.0000     0.1225     0.9528     0.9528     0.0000
 11 C      5.4893     6.0000     0.5107     3.9576     3.9576    -0.0000
 12 O      8.4328     8.0000    -0.4328     2.0941     2.0941     0.0000
 13 N      7.5593     7.0000    -0.5593     2.8968     2.8968    -0.0000
 14 H      0.6787     1.0000     0.3213     0.9159     0.9159    -0.0000
 15 O      8.4460     8.0000    -0.4460     2.0498     2.0498    -0.0000
 16 H      0.8716     1.0000     0.1284     0.9494     0.9494     0.0000
 17 O      8.4287     8.0000    -0.4287     2.0808     2.0808    -0.0000
 18 H      0.6774     1.0000     0.3226     0.9150     0.9150     0.0000

  Mayer bond orders larger than 0.100000
B(  0-C ,  1-C ) :   0.9546 B(  0-C ,  4-O ) :   1.1051 B(  0-C , 17-O ) :   1.8809 
B(  1-C ,  5-C ) :   0.9912 B(  1-C ,  6-H ) :   0.9328 B(  1-C ,  7-H ) :   0.9287 
B(  2-H , 13-N ) :   0.9084 B(  3-H , 13-N ) :   0.8886 B(  4-O , 14-H ) :   0.8515 
B(  5-C ,  8-C ) :   0.9778 B(  5-C ,  9-H ) :   0.9322 B(  5-C , 10-H ) :   0.9419 
B(  8-C , 11-C ) :   0.9014 B(  8-C , 13-N ) :   1.0555 B(  8-C , 16-H ) :   0.9252 
B( 11-C , 12-O ) :   1.8819 B( 11-C , 15-O ) :   1.0966 B( 15-O , 18-H ) :   0.8499 


-------
TIMINGS
-------

Total SCF time: 0 days 0 hours 0 min 8 sec 

Total time                  ....       8.262 sec
Sum of individual times     ....       7.795 sec  ( 94.4%)

SCF preparation             ....       0.028 sec  (  0.3%)
Fock matrix formation       ....       7.704 sec  ( 93.3%)
  Startup                   ....       0.001 sec  (  0.0% of F)
  Split-RI-J                ....       2.713 sec  ( 35.2% of F)
  XC integration            ....       5.382 sec  ( 69.9% of F)
    XC Preparation          ....       0.000 sec  (  0.0% of XC)
    Basis function eval.    ....       1.924 sec  ( 35.7% of XC)
    Density eval.           ....       1.195 sec  ( 22.2% of XC)
    XC-Functional eval.     ....       0.925 sec  ( 17.2% of XC)
    XC-Potential eval.      ....       1.200 sec  ( 22.3% of XC)
Diagonalization             ....       0.000 sec  (  0.0%)
Density matrix formation    ....       0.005 sec  (  0.1%)
Total Energy calculation    ....       0.001 sec  (  0.0%)
Population analysis         ....       0.003 sec  (  0.0%)
Orbital Transformation      ....       0.006 sec  (  0.1%)
Orbital Orthonormalization  ....       0.000 sec  (  0.0%)
DIIS solution               ....       0.025 sec  (  0.3%)
SOSCF solution              ....       0.024 sec  (  0.3%)
Finished LeanSCF after   8.3 sec

Maximum memory used throughout the entire LEANSCF-calculation: 21.0 MB



-------------------------------------------------------------------------------
                          DFT DISPERSION CORRECTION                            
-------------------------------------------------------------------------------
Active option DFTDOPT                   ...         2   
Final C6-coefficient scaling factor     ...     1.250
Final VDW-radii scaling factor          ...     1.100
Damping factor alpha                    ...    20.000
-------------------------   ----------------
Dispersion correction           -0.029793186
-------------------------   ----------------


-------------------------   --------------------
FINAL SINGLE POINT ENERGY      -551.282539811376
-------------------------   --------------------

------------------------------------------------------------------------------
                         ORCA SCF GRADIENT CALCULATION
------------------------------------------------------------------------------

Nuc. rep. gradient        (SHARK) ... done (  0.0 sec)
HCore & Overlap gradient  (SHARK) ... done (  0.1 sec)
Split-RIJ-J gradient      (SHARK) ... done (  0.7 sec)
XC gradient                       ... done (  2.6 sec)
Dispersion correction             ... done (  0.0 sec)

-------------------
DISPERSION GRADIENT
-------------------

   1   C   :   -0.000234282    0.000280627   -0.000234400
   2   C   :    0.000702424   -0.000061281   -0.000540488
   3   H   :   -0.000455149    0.000723248    0.000347490
   4   H   :    0.000468763    0.001220413    0.001354566
   5   O   :   -0.000905177   -0.000435027   -0.000383439
   6   C   :   -0.000445229    0.000147293   -0.000019164
   7   H   :   -0.000519477    0.000346413    0.000276586
   8   H   :   -0.000758409   -0.001190060   -0.001055554
   9   C   :   -0.000010633    0.000000076   -0.000259490
  10   H   :    0.000127448    0.001035414   -0.000856311
  11   H   :    0.000412782   -0.000488575   -0.000459409
  12   C   :   -0.000031458   -0.000043612   -0.000513603
  13   O   :    0.001048345   -0.000174489    0.000482723
  14   N   :    0.000881928   -0.000167919    0.000443025
  15   H   :   -0.000036288   -0.000374450   -0.000221630
  16   O   :    0.000757226   -0.000277093    0.000748943
  17   H   :    0.000148832    0.000083958    0.000178996
  18   O   :   -0.001212565   -0.000652804    0.000273275
  19   H   :    0.000060919    0.000027869    0.000437885

Difference to translation invariance:
           :    0.0000000000    0.0000000000   -0.0000000000

Difference to rotation invariance:
           :   -0.0000000000   -0.0000000000   -0.0000000000

Norm of the Dispersion gradient    ...    0.0043694089
RMS gradient                       ...    0.0005787423
MAX gradient                       ...    0.0013545656

------------------
CARTESIAN GRADIENT
------------------

   1   C   :    0.007418186   -0.005218771    0.006944329
   2   C   :    0.000203403   -0.001654926   -0.000853802
   3   H   :   -0.001255305    0.000655243   -0.003943072
   4   H   :    0.001333342    0.002091265   -0.002620299
   5   O   :    0.023875802   -0.015504954   -0.012778704
   6   C   :   -0.001907980    0.000074242    0.000226557
   7   H   :    0.002476992    0.000953415    0.004619873
   8   H   :    0.002726951   -0.005599577    0.000979285
   9   C   :   -0.000160988   -0.000987279    0.000738879
  10   H   :   -0.002180577    0.003440533    0.002941637
  11   H   :   -0.000760064   -0.004430423    0.003431345
  12   C   :   -0.007210987   -0.009490021    0.000553050
  13   O   :    0.017331893    0.004974526   -0.025944240
  14   N   :    0.002755415   -0.009909780    0.005911624
  15   H   :   -0.005275211    0.005143060    0.001015842
  16   O   :   -0.023717772    0.008864518    0.016003636
  17   H   :   -0.002969754   -0.001302895    0.000820078
  18   O   :   -0.017498908    0.027487359    0.006133496
  19   H   :    0.004815563    0.000414466   -0.004179513

Difference to translation invariance:
           :    0.0000000000   -0.0000000000    0.0000000000

Difference to rotation invariance:
           :    0.0001692310    0.0004741050    0.0002860807

Norm of the Cartesian gradient     ...    0.0682218896
RMS gradient                       ...    0.0090362100
MAX gradient                       ...    0.0274873590

-------
TIMINGS
-------

Total SCF gradient time     ....        3.386 sec

Densities                   ....       0.000 sec  (  0.0%)
One electron gradient       ....       0.123 sec  (  3.6%)
RI-J Coulomb gradient       ....       0.662 sec  ( 19.5%)
XC gradient                 ....       2.601 sec  ( 76.8%)

Maximum memory used throughout the entire SCFGRAD-calculation: 27.0 MB
------------------------------------------------------------------------------
                         ORCA GEOMETRY RELAXATION STEP
------------------------------------------------------------------------------

Reading the OPT-File                    .... done
Getting information on internals        .... done
Copying old internal coords+grads       .... done
Making the new internal coordinates     .... (2022 redundants) done
Validating the new internal coordinates .... (2022 redundants) done
Calculating the B-matrix                .... done
Calculating the G,G- and P matrices     .... done
Transforming gradient to internals      .... done
Projecting the internal gradient        .... done
Number of atoms                         ....  19
Number of internal coordinates          ....  78
Current Energy                          ....  -551.282539811 Eh
Current gradient norm                   ....     0.068221890 Eh/bohr
Maximum allowed component of the step   ....  0.300
Current trust radius                    ....  0.300
Evaluating the initial hessian          ....  (Almloef) done
Projecting the Hessian                  .... done
Forming the augmented Hessian           .... done
Diagonalizing the augmented Hessian     .... done
Last element of RFO vector              ....  0.926948500
Lowest eigenvalues of augmented Hessian:
 -0.017828727  0.010510208  0.010583841  0.011927767  0.013454279
Length of the computed step             ....  0.404756671
Warning: the length of the step is outside the trust region - taking restricted step instead
The input lambda is                     ....     0.009244
   iter:   5  x=    0.000790  g=  562.887659 f(x)=     1.862739
   iter:  10  x=   -0.033944  g=    3.293287 f(x)=     0.016215
The output lambda is                    ....    -0.034890 (14 iterations)
The final length of the internal step   ....  0.300000000
Converting the step to Cartesian space:
 Initial RMS(Int)=    0.0339683110
Transforming coordinates:
 Iter   0:  RMS(Cart)=    0.2248749826 RMS(Int)=    0.7008045439
 Iter   5:  RMS(Cart)=    0.0000021662 RMS(Int)=    0.0000011791
done
Storing new coordinates                 .... done

                                .--------------------.
          ----------------------|Geometry convergence|-------------------------
          Item                value                   Tolerance       Converged
          ---------------------------------------------------------------------
          RMS gradient        0.0091057481            0.0001000000      NO
          MAX gradient        0.0328502056            0.0003000000      NO
          RMS step            0.0339683110            0.0020000000      NO
          MAX step            0.1102672808            0.0040000000      NO
          -------------------------------------------------------------------------
          ........................................................
          Max(Bonds)      0.0212      Max(Angles)    4.01
          Max(Dihed)        6.32      Max(Improp)    0.00
          ---------------------------------------------------------------------

The optimization has not yet converged - more geometry cycles are needed


    ---------------------------------------------------------------------------
                         Redundant Internal Coordinates
                            (Angstroem and degrees)

        Definition                    Value    dE/dq     Step     New-Value
    ----------------------------------------------------------------------------
     1. B(C   1,C   0)                1.5098 -0.010040  0.0122    1.5220   
     2. B(O   4,C   0)                1.3339 -0.022988  0.0168    1.3508   
     3. B(C   5,C   1)                1.5309 -0.014932  0.0194    1.5503   
     4. B(H   6,C   1)                1.0921 -0.005193  0.0070    1.0991   
     5. B(H   7,C   1)                1.0887 -0.005468  0.0073    1.0960   
     6. B(C   8,C   5)                1.5423 -0.015713  0.0212    1.5635   
     7. B(H   9,C   5)                1.0907 -0.004830  0.0065    1.0972   
     8. B(H  10,C   5)                1.0896 -0.005653  0.0076    1.0972   
     9. B(C  11,C   8)                1.5280 -0.012169  0.0157    1.5437   
    10. B(O  12,C  11)                1.2045 -0.031559  0.0146    1.2192   
    11. B(N  13,C   8)                1.4497 -0.006938  0.0076    1.4572   
    12. B(N  13,H   3)                1.0163 -0.002936  0.0034    1.0197   
    13. B(N  13,H   2)                1.0140 -0.003398  0.0039    1.0179   
    14. B(H  14,O   4)                0.9706 -0.002929  0.0029    0.9735   
    15. B(O  15,C  11)                1.3293 -0.023077  0.0166    1.3460   
    16. B(H  16,C   8)                1.0955 -0.003312  0.0045    1.1000   
    17. B(O  17,C   0)                1.2030 -0.032850  0.0152    1.2182   
    18. B(H  18,O  15)                0.9707 -0.002578  0.0026    0.9732   
    19. A(O   4,C   0,O  17)          122.85 -0.005296    0.60    123.46   
    20. A(C   1,C   0,O  17)          125.29  0.003128   -0.35    124.94   
    21. A(C   1,C   0,O   4)          111.86  0.002171   -0.26    111.60   
    22. A(C   0,C   1,H   6)          107.65  0.009317   -1.73    105.92   
    23. A(C   0,C   1,H   7)          109.19  0.000635    0.71    109.90   
    24. A(C   5,C   1,H   7)          110.80  0.005932   -0.55    110.25   
    25. A(H   6,C   1,H   7)          108.93  0.000182   -0.98    107.95   
    26. A(C   0,C   1,C   5)          111.52 -0.019138    3.21    114.73   
    27. A(C   5,C   1,H   6)          108.66  0.003538   -0.79    107.87   
    28. A(C   0,O   4,H  14)          110.96  0.012511   -1.75    109.21   
    29. A(C   8,C   5,H  10)          108.02  0.005381   -1.56    106.47   
    30. A(C   1,C   5,H  10)          108.50  0.009523   -1.98    106.53   
    31. A(C   8,C   5,H   9)          108.36  0.003414    0.55    108.92   
    32. A(H   9,C   5,H  10)          109.17  0.000435   -1.12    108.05   
    33. A(C   1,C   5,H   9)          109.62  0.005822   -0.08    109.55   
    34. A(C   1,C   5,C   8)          113.09 -0.024068    4.01    117.10   
    35. A(C   5,C   8,C  11)          109.25 -0.014929    3.43    112.68   
    36. A(N  13,C   8,H  16)          109.07  0.000411   -0.97    108.10   
    37. A(C  11,C   8,H  16)          107.38  0.002830   -1.05    106.33   
    38. A(C   5,C   8,H  16)          107.50  0.002977   -1.17    106.34   
    39. A(C  11,C   8,N  13)          112.54  0.001994    0.29    112.83   
    40. A(C   5,C   8,N  13)          110.91  0.006749   -0.64    110.26   
    41. A(C   8,C  11,O  12)          123.93 -0.002255    0.30    124.22   
    42. A(O  12,C  11,O  15)          123.64 -0.002479    0.29    123.93   
    43. A(C   8,C  11,O  15)          112.43  0.004737   -0.60    111.83   
    44. A(H   3,N  13,C   8)          109.24  0.001410   -0.41    108.83   
    45. A(H   2,N  13,C   8)          110.27  0.001717   -0.45    109.82   
    46. A(H   2,N  13,H   3)          106.58  0.000485   -0.52    106.06   
    47. A(C  11,O  15,H  18)          110.91  0.010666   -1.49    109.42   
    48. D(C   5,C   1,C   0,O  17)    -51.44  0.001972   -1.81    -53.24   
    49. D(H   6,C   1,C   0,O  17)     67.67  0.000986   -1.99     65.68   
    50. D(H   6,C   1,C   0,O   4)   -112.27 -0.001861    0.09   -112.19   
    51. D(H   7,C   1,C   0,O   4)      5.84  0.003963   -1.67      4.17   
    52. D(C   5,C   1,C   0,O   4)    128.63 -0.000875    0.27    128.89   
    53. D(H  14,O   4,C   0,O  17)      3.56 -0.001897    1.42      4.98   
    54. D(H  14,O   4,C   0,C   1)   -176.50  0.000875   -0.59   -177.09   
    55. D(H   9,C   5,C   1,H   7)   -177.72 -0.005811   -0.23   -177.94   
    56. D(H   9,C   5,C   1,H   6)    -58.08  0.000226   -2.26    -60.34   
    57. D(H   9,C   5,C   1,C   0)     60.42  0.002473   -2.97     57.45   
    58. D(C   8,C   5,C   1,H   7)     61.24  0.001869   -3.58     57.67   
    59. D(C   8,C   5,C   1,H   6)   -179.12  0.007905   -5.61   -184.73   
    60. D(C   8,C   5,C   1,C   0)    -60.62  0.010153   -6.32    -66.94   
    61. D(C  11,C   8,C   5,H   9)    -51.68 -0.000174    2.44    -49.24   
    62. D(C  11,C   8,C   5,C   1)     70.07 -0.006119    5.36     75.43   
    63. D(N  13,C   8,C   5,H  10)     65.55 -0.002171    1.98     67.53   
    64. D(N  13,C   8,C   5,H   9)   -176.30  0.003175    0.10   -176.20   
    65. D(N  13,C   8,C   5,C   1)    -54.55 -0.002770    3.02    -51.53   
    66. D(C  11,C   8,C   5,H  10)   -169.83 -0.005520    4.33   -165.50   
    67. D(O  15,C  11,C   8,N  13)   -168.31 -0.001076    1.48   -166.83   
    68. D(O  15,C  11,C   8,C   5)     68.03 -0.000233   -0.40     67.63   
    69. D(O  12,C  11,C   8,H  16)    131.18  0.002786   -1.19    129.99   
    70. D(O  12,C  11,C   8,N  13)     11.14 -0.000791    0.53     11.67   
    71. D(O  12,C  11,C   8,C   5)   -112.52  0.000051   -1.35   -113.87   
    72. D(H   3,N  13,C   8,C  11)    -44.67  0.004869   -1.47    -46.14   
    73. D(H   3,N  13,C   8,C   5)     78.05 -0.008126    2.72     80.78   
    74. D(H   2,N  13,C   8,H  16)    -46.91  0.002220   -0.82    -47.74   
    75. D(H   2,N  13,C   8,C  11)     72.15  0.007282   -2.60     69.54   
    76. D(H   2,N  13,C   8,C   5)   -165.13 -0.005714    1.59   -163.54   
    77. D(H  18,O  15,C  11,O  12)      6.72 -0.000506    0.77      7.48   
    78. D(H  18,O  15,C  11,C   8)   -173.83 -0.000221   -0.18   -174.01   
    ----------------------------------------------------------------------------

Geometry step timings:
Preparation and reading OPT file:      0.000 s ( 0.778 %)
Internal coordinates            :      0.000 s ( 0.849 %)
B/P matrices and projection     :      0.000 s (29.441 %)
Hessian update/contruction      :      0.000 s ( 8.493 %)
Making the step                 :      0.001 s (43.241 %)
Converting the step to Cartesian:      0.000 s ( 3.326 %)
Storing new data                :      0.000 s ( 1.132 %)
Checking convergence            :      0.000 s ( 0.991 %)
Final printing                  :      0.000 s (11.677 %)
Total time                      :      0.001 s

Time for energy+gradient        :     12.485 s
Time for complete geometry iter :     12.499 s

         *************************************************************
         *                GEOMETRY OPTIMIZATION CYCLE   2            *
         *************************************************************
---------------------------------
CARTESIAN COORDINATES (ANGSTROEM)
---------------------------------
  C     -2.698593   -0.473740   -0.298410
  C     -2.353769    0.795837   -1.063662
  H     -0.576966    3.124748    1.692954
  H     -1.896285    2.218425    1.396485
  O     -3.724793   -0.275102    0.557158
  C     -0.853669    1.185671   -1.030202
  H     -2.628843    0.601583   -2.109905
  H     -2.968976    1.627569   -0.701819
  C     -0.262227    1.620175    0.350317
  H     -0.252193    0.359245   -1.429001
  H     -0.738756    2.045065   -1.702590
  C     -0.021876    0.425113    1.297394
  O     -0.627445    0.243900    2.339904
  N     -1.091852    2.657604    0.949476
  H     -3.885775   -1.093140    1.059745
  O      0.961258   -0.378094    0.850244
  H      0.727215    2.052677    0.140659
  O     -2.154769   -1.552402   -0.455724
  H      1.019338   -1.165814    1.418873

----------------------------
CARTESIAN COORDINATES (A.U.)
----------------------------
  NO LB      ZA    FRAG     MASS         X           Y           Z
   0 C     6.0000    0    12.011   -5.099601   -0.895238   -0.563913
   1 C     6.0000    0    12.011   -4.447979    1.503915   -2.010029
   2 H     1.0000    0     1.008   -1.090308    5.904918    3.199219
   3 H     1.0000    0     1.008   -3.583459    4.192215    2.638975
   4 O     8.0000    0    15.999   -7.038838   -0.519867    1.052875
   5 C     6.0000    0    12.011   -1.613201    2.240594   -1.946799
   6 H     1.0000    0     1.008   -4.967793    1.136828   -3.987143
   7 H     1.0000    0     1.008   -5.610551    3.075660   -1.326246
   8 C     6.0000    0    12.011   -0.495537    3.061687    0.662004
   9 H     1.0000    0     1.008   -0.476575    0.678875   -2.700420
  10 H     1.0000    0     1.008   -1.396047    3.864612   -3.217429
  11 C     6.0000    0    12.011   -0.041339    0.803348    2.451719
  12 O     8.0000    0    15.999   -1.185699    0.460904    4.421778
  13 N     7.0000    0    14.007   -2.063302    5.022144    1.794250
  14 H     1.0000    0     1.008   -7.343050   -2.065735    2.002628
  15 O     8.0000    0    15.999    1.816515   -0.714494    1.606729
  16 H     1.0000    0     1.008    1.374237    3.878998    0.265808
  17 O     8.0000    0    15.999   -4.071923   -2.933614   -0.861194
  18 H     1.0000    0     1.008    1.926270   -2.203069    2.681281

--------------------------------
INTERNAL COORDINATES (ANGSTROEM)
--------------------------------
 C      0   0   0     0.000000000000     0.00000000     0.00000000
 C      1   0   0     1.521952679333     0.00000000     0.00000000
 H      2   1   0     4.022409986169   103.79640932     0.00000000
[...]
      px      :     0.987070
      py      :     0.874293
      dz2     :     0.010754  d :     0.055202
      dxz     :     0.007476
      dyz     :     0.014412
      dx2y2   :     0.011277
      dxy     :     0.011283

  9 H s       :     0.847330  s :     0.847330
      pz      :     0.002716  p :     0.011372
      px      :     0.003459
      py      :     0.005197

 10 H s       :     0.865225  s :     0.865225
      pz      :     0.003905  p :     0.011321
      px      :     0.002449
      py      :     0.004967

 11 C s       :     3.005070  s :     3.005070
      pz      :     0.812070  p :     2.365936
      px      :     0.725731
      py      :     0.828134
      dz2     :     0.024652  d :     0.118048
      dxz     :     0.022857
      dyz     :     0.027786
      dx2y2   :     0.021479
      dxy     :     0.021274

 12 O s       :     3.876894  s :     3.876894
      pz      :     1.382240  p :     4.529745
      px      :     1.495019
      py      :     1.652487
      dz2     :     0.009124  d :     0.027333
      dxz     :     0.007138
      dyz     :     0.005220
      dx2y2   :     0.002700
      dxy     :     0.003150

 13 N s       :     3.613975  s :     3.613975
      pz      :     1.348835  p :     3.914154
      px      :     1.161708
      py      :     1.403610
      dz2     :     0.005765  d :     0.029267
      dxz     :     0.007484
      dyz     :     0.004790
      dx2y2   :     0.003267
      dxy     :     0.007962

 14 H s       :     0.640516  s :     0.640516
      pz      :     0.011698  p :     0.037314
      px      :     0.007968
      py      :     0.017649

 15 O s       :     3.842343  s :     3.842343
      pz      :     1.652036  p :     4.591860
      px      :     1.580908
      py      :     1.358916
      dz2     :     0.003191  d :     0.023207
      dxz     :     0.004549
      dyz     :     0.006788
      dx2y2   :     0.005100
      dxy     :     0.003578

 16 H s       :     0.856281  s :     0.856281
      pz      :     0.002484  p :     0.010967
      px      :     0.005791
      py      :     0.002692

 17 O s       :     3.877899  s :     3.877899
      pz      :     1.606591  p :     4.525704
      px      :     1.509599
      py      :     1.409514
      dz2     :     0.002610  d :     0.027337
      dxz     :     0.002045
      dyz     :     0.006725
      dx2y2   :     0.008156
      dxy     :     0.007802

 18 H s       :     0.638955  s :     0.638955
      pz      :     0.013053  p :     0.037559
      px      :     0.007881
      py      :     0.016625



                     *******************************
                     * LOEWDIN POPULATION ANALYSIS *
                     *******************************

----------------------
LOEWDIN ATOMIC CHARGES
----------------------
   0 C :    0.136950
   1 C :   -0.151881
   2 H :    0.130605
   3 H :    0.130494
   4 O :   -0.152322
   5 C :   -0.107157
   6 H :    0.099221
   7 H :    0.087578
   8 C :   -0.052022
   9 H :    0.085045
  10 H :    0.081390
  11 C :    0.120661
  12 O :   -0.232703
  13 N :   -0.254422
  14 H :    0.185671
  15 O :   -0.150322
  16 H :    0.088858
  17 O :   -0.232353
  18 H :    0.186708

-------------------------------
LOEWDIN REDUCED ORBITAL CHARGES
-------------------------------
  0 C s       :     2.863398  s :     2.863398
      pz      :     0.856655  p :     2.718900
      px      :     0.850041
      py      :     1.012204
      dz2     :     0.035505  d :     0.280751
      dxz     :     0.048955
      dyz     :     0.061376
      dx2y2   :     0.078370
      dxy     :     0.056545

  1 C s       :     2.913778  s :     2.913778
      pz      :     1.072574  p :     3.162949
      px      :     1.049172
      py      :     1.041203
      dz2     :     0.014429  d :     0.075154
      dxz     :     0.009882
      dyz     :     0.016054
      dx2y2   :     0.017283
      dxy     :     0.017507

  2 H s       :     0.792128  s :     0.792128
      pz      :     0.035725  p :     0.077267
      px      :     0.018590
      py      :     0.022952

  3 H s       :     0.790752  s :     0.790752
      pz      :     0.020218  p :     0.078754
      px      :     0.035048
      py      :     0.023488

  4 O s       :     3.497791  s :     3.497791
      pz      :     1.474142  p :     4.606038
      px      :     1.583581
      py      :     1.548316
      dz2     :     0.005340  d :     0.048492
      dxz     :     0.013049
      dyz     :     0.012091
      dx2y2   :     0.012212
      dxy     :     0.005802

  5 C s       :     2.912061  s :     2.912061
      pz      :     1.022274  p :     3.117667
      px      :     1.014310
      py      :     1.081083
      dz2     :     0.015887  d :     0.077429
      dxz     :     0.013561
      dyz     :     0.017540
      dx2y2   :     0.015331
      dxy     :     0.015110

  6 H s       :     0.861461  s :     0.861461
      pz      :     0.023374  p :     0.039318
      px      :     0.008517
      py      :     0.007427

  7 H s       :     0.871382  s :     0.871382
      pz      :     0.008810  p :     0.041040
      px      :     0.012639
      py      :     0.019591

  8 C s       :     2.892844  s :     2.892844
      pz      :     1.014567  p :     3.034865
      px      :     1.033323
      py      :     0.986974
      dz2     :     0.024021  d :     0.124313
      dxz     :     0.016532
      dyz     :     0.034843
      dx2y2   :     0.023896
      dxy     :     0.025022

  9 H s       :     0.874668  s :     0.874668
      pz      :     0.008856  p :     0.040287
      px      :     0.012106
      py      :     0.019325

 10 H s       :     0.879582  s :     0.879582
      pz      :     0.014011  p :     0.039028
      px      :     0.006947
      py      :     0.018070

 11 C s       :     2.874518  s :     2.874518
      pz      :     0.949320  p :     2.725531
      px      :     0.860163
      py      :     0.916049
      dz2     :     0.054302  d :     0.279290
      dxz     :     0.058101
      dyz     :     0.067257
      dx2y2   :     0.049647
      dxy     :     0.049982

 12 O s       :     3.568194  s :     3.568194
      pz      :     1.445429  p :     4.608924
      px      :     1.517495
      py      :     1.646001
      dz2     :     0.016065  d :     0.055585
      dxz     :     0.018461
      dyz     :     0.010404
      dx2y2   :     0.005164
      dxy     :     0.005491

 13 N s       :     3.218027  s :     3.218027
      pz      :     1.367968  p :     3.979241
      px      :     1.193930
      py      :     1.417343
      dz2     :     0.009603  d :     0.057153
      dxz     :     0.013995
      dyz     :     0.009471
      dx2y2   :     0.007311
      dxy     :     0.016773

 14 H s       :     0.700805  s :     0.700805
      pz      :     0.034459  p :     0.113524
      px      :     0.022047
      py      :     0.057018

 15 O s       :     3.492945  s :     3.492945
      pz      :     1.646736  p :     4.608495
      px      :     1.588533
      py      :     1.373226
      dz2     :     0.005355  d :     0.048882
      dxz     :     0.007788
      dyz     :     0.013436
      dx2y2   :     0.010841
      dxy     :     0.011461

 16 H s       :     0.872213  s :     0.872213
      pz      :     0.007797  p :     0.038929
      px      :     0.022059
      py      :     0.009073

 17 O s       :     3.568090  s :     3.568090
      pz      :     1.589896  p :     4.608714
      px      :     1.526378
      py      :     1.492440
      dz2     :     0.007088  d :     0.055549
      dxz     :     0.003432
      dyz     :     0.010730
      dx2y2   :     0.015777
      dxy     :     0.018521

 18 H s       :     0.699296  s :     0.699296
      pz      :     0.040610  p :     0.113996
      px      :     0.021755
      py      :     0.051631



                      *****************************
                      * MAYER POPULATION ANALYSIS *
                      *****************************

  NA   - Mulliken gross atomic population
  ZA   - Total nuclear charge
  QA   - Mulliken gross atomic charge
  VA   - Mayer's total valence
  BVA  - Mayer's bonded valence
  FA   - Mayer's free valence

  ATOM       NA         ZA         QA         VA         BVA        FA
  0 C      5.4814     6.0000     0.5186     3.9567     3.9567     0.0000
  1 C      6.2727     6.0000    -0.2727     3.8325     3.8325    -0.0000
  2 H      0.7552     1.0000     0.2448     0.9188     0.9188    -0.0000
  3 H      0.7460     1.0000     0.2540     0.9292     0.9292     0.0000
  4 O      8.4597     8.0000    -0.4597     2.0536     2.0536     0.0000
  5 C      6.1857     6.0000    -0.1857     3.8689     3.8689    -0.0000
  6 H      0.8549     1.0000     0.1451     0.9489     0.9489    -0.0000
  7 H      0.8574     1.0000     0.1426     0.9548     0.9548    -0.0000
  8 C      6.0613     6.0000    -0.0613     3.8733     3.8733    -0.0000
  9 H      0.8587     1.0000     0.1413     0.9558     0.9558    -0.0000
 10 H      0.8765     1.0000     0.1235     0.9514     0.9514     0.0000
 11 C      5.4891     6.0000     0.5109     3.9238     3.9238     0.0000
 12 O      8.4340     8.0000    -0.4340     2.0921     2.0921     0.0000
 13 N      7.5574     7.0000    -0.5574     2.8940     2.8940    -0.0000
 14 H      0.6778     1.0000     0.3222     0.9152     0.9152     0.0000
 15 O      8.4574     8.0000    -0.4574     2.0380     2.0380    -0.0000
 16 H      0.8672     1.0000     0.1328     0.9475     0.9475    -0.0000
 17 O      8.4309     8.0000    -0.4309     2.0789     2.0789     0.0000
 18 H      0.6765     1.0000     0.3235     0.9136     0.9136     0.0000

  Mayer bond orders larger than 0.100000
B(  0-C ,  1-C ) :   0.9528 B(  0-C ,  4-O ) :   1.0850 B(  0-C , 17-O ) :   1.8762 
B(  1-C ,  5-C ) :   0.9909 B(  1-C ,  6-H ) :   0.9318 B(  1-C ,  7-H ) :   0.9271 
B(  2-H , 13-N ) :   0.9066 B(  3-H , 13-N ) :   0.8884 B(  4-O , 14-H ) :   0.8521 
B(  5-C ,  8-C ) :   0.9746 B(  5-C ,  9-H ) :   0.9320 B(  5-C , 10-H ) :   0.9411 
B(  8-C , 11-C ) :   0.8995 B(  8-C , 13-N ) :   1.0495 B(  8-C , 16-H ) :   0.9238 
B( 11-C , 12-O ) :   1.8793 B( 11-C , 15-O ) :   1.0774 B( 15-O , 18-H ) :   0.8510 


-------
TIMINGS
-------

Total SCF time: 0 days 0 hours 0 min 3 sec 

Total time                  ....       3.341 sec
Sum of individual times     ....       2.873 sec  ( 86.0%)

SCF preparation             ....       0.031 sec  (  0.9%)
Fock matrix formation       ....       2.812 sec  ( 84.2%)
  Startup                   ....       0.001 sec  (  0.0% of F)
  Split-RI-J                ....       1.082 sec  ( 38.5% of F)
  XC integration            ....       2.133 sec  ( 75.8% of F)
    XC Preparation          ....       0.000 sec  (  0.0% of XC)
    Basis function eval.    ....       0.766 sec  ( 35.9% of XC)
    Density eval.           ....       0.476 sec  ( 22.3% of XC)
    XC-Functional eval.     ....       0.381 sec  ( 17.9% of XC)
    XC-Potential eval.      ....       0.455 sec  ( 21.3% of XC)
Diagonalization             ....       0.000 sec  (  0.0%)
Density matrix formation    ....       0.002 sec  (  0.1%)
Total Energy calculation    ....       0.000 sec  (  0.0%)
Population analysis         ....       0.010 sec  (  0.3%)
Orbital Transformation      ....       0.003 sec  (  0.1%)
Orbital Orthonormalization  ....       0.000 sec  (  0.0%)
DIIS solution               ....       0.003 sec  (  0.1%)
SOSCF solution              ....       0.013 sec  (  0.4%)
Finished LeanSCF after   3.4 sec

Maximum memory used throughout the entire LEANSCF-calculation: 21.3 MB



-------------------------------------------------------------------------------
                          DFT DISPERSION CORRECTION                            
-------------------------------------------------------------------------------
Active option DFTDOPT                   ...         2   
Final C6-coefficient scaling factor     ...     1.250
Final VDW-radii scaling factor          ...     1.100
Damping factor alpha                    ...    20.000
-------------------------   ----------------
Dispersion correction           -0.028315119
-------------------------   ----------------


-------------------------   --------------------
FINAL SINGLE POINT ENERGY      -551.289341609366
-------------------------   --------------------

                                *** OPTIMIZATION RUN DONE ***


------------------------------------------------------------------------------
                              ORCA PROPERTY CALCULATIONS
------------------------------------------------------------------------------

GBWName                                 ... 0.gbw
Number of atoms                         ...     19
Number of basis functions               ...    185
Max core memory                         ...   4096 MB

Electric properties:
Dipole moment                           ... YES
Quadrupole moment                       ...  NO
Static polarizability (Dipole/Dipole)   ...  NO
Static polarizability (Dipole/Quad.)    ...  NO
Static polarizability (Quad./Quad.)     ...  NO
Static polarizability (Velocity)        ...  NO
Static hyperpolarizability              ...  NO

Atomic electric properties:
Dipole moment                           ...  NO
Quadrupole moment                       ...  NO
Static polarizability                   ...  NO

Choice of electric origin               ... Center of mass
Position of electric origin             ...    -2.434422     0.761097     0.729808

General magnetic properties:
Magnetizability                         ...  NO

EPR properties:
g-Tensor (aka g-matrix)                 ...  NO
Zero-Field splitting spin-orbit         ...  NO
Zero-field splitting spin-spin          ...  NO
Hyperfine couplings                     ...  NO (   0 nuclei)
Quadrupole couplings                    ...  NO (   0 nuclei)
Contact density                         ...  NO (   0 nuclei)

NMR properties:
Chemical shifts                         ...  NO (   0 nuclei)
Spin-rotation constants                 ...  NO (   0 nuclei)
Spin-spin couplings                     ...  NO (   0 nuclei,    0 pairs)

Choice of magnetic origin               ... GIAO
Position of magnetic origin             ...     0.000000     0.000000     0.000000

Properties with geometric perturbations:
SCF Hessian                             ...  NO
IR spectrum                             ...  NO
VCD spectrum                            ...  NO
X-ray spectroscopy properties:
SCF XES/XAS/RIXS spectra                ...  NO

SCF SOC stabilization energy            ...  NO
Diagonal Born-Oppenheimer correction    ...  NO

-------------
DIPOLE MOMENT
-------------

Method             : SCF
Type of density    : Electron Density
Multiplicity       :   1
Irrep              :   0
Energy             :  -551.2610264905200665 Eh
Basis              : AO
                                X                 Y                 Z
Electronic contribution:     -0.205900075      -5.548546772       3.460977254
Nuclear contribution   :      0.359804069       5.656485530      -3.437925579
                        -----------------------------------------
Total Dipole Moment    :      0.153903994       0.107938757       0.023051675
                        -----------------------------------------
Magnitude (a.u.)       :      0.189390059
Magnitude (Debye)      :      0.481391273



--------------------
Rotational spectrum 
--------------------
 
Rotational constants in cm-1:             0.054533             0.038365             0.033450 
Rotational constants in MHz :          1634.865852          1150.159750          1002.810478 

Dipole components along the rotational axes: 
x,y,z [a.u.] :     0.180171    -0.052541    -0.025421 
x,y,z [Debye]:     0.457959    -0.133550    -0.064616 

 

Dipole moment calculation done in   0.0 sec 

Maximum memory used throughout the entire PROP-calculation: 12.2 MB

--------------------------------
SUGGESTED CITATIONS FOR THIS RUN
--------------------------------

Below you find a list of papers that are relevant to this ORCA run
We neither can nor want to force you to cite these papers, but we appreciate if you do
You receive ORCA, which is the product of decades of hard work by many enthusiastic individuals, for free
The only thing we kindly ask in return is that you cite our papers,
We deeply appreciate it, if you show your appreciation for ORCA by not just citing the generic ORCA reference.

Please note that relegating all ORCA citations to the supporting information does *not* help us.
SI sections are not indexed - citations you put there will not count into any citation statistics
But we need these citations in order to attract the funding resources that allow us to do what we are doing

Therefore, if you are a happy ORCA user, please consider citing a few of the papers listed below in the main body of your paper

In addition to the list printed below, the program has created the file 0.bibtex that contains the list in bibtex format
You can import this file easily into all common literature databanks and citation aid programs


List of essential papers. We consider these as the minimum necessary citations

  1. Neese, F.
     Software update: the ORCA program system, version 6.0
     WIRES Comput. Molec. Sci. 2025 15(1), e70019
     doi.org/10.1002/wcms.7019

List of papers to cite with high priority. The work reported in these papers was absolutely
necessary for this run to complete.
Our perspective: the developers of density functionals and basis sets usually get cited in chemistry papers
Good! But without the algorithms to do something with them, the functionals or basis sets would not do anything.
Hence, in our opinion, the algorithm design and method developments papers are equally worthy of getting cited

  1. Neese, F.
     An improvement of the resolution of the identity approximation for the formation of the Coulomb matrix
     J. Comp. Chem. 2003 24(14), 1740-1747
     doi.org/10.1002/jcc.10318
  2. Grimme, S.
     Semiempirical GGA-type density functional constructed with a long-range dispersion correction
     J.Comput.Chem. 2006 27(15), 1787-1799
     doi.org/10.1002/jcc.20495
  3. Neese, F.
     The SHARK Integral Generation and Digestion System
     J. Comp. Chem. 2022 44(3), 381
     doi.org/10.1002/jcc.26942

List of suggested additional citations. These are papers that are important in the 'surrounding' of 
of this run, or papers that preceded the highly important papers. If you like your results we are grateful for a citation.

  1. Neese, F.
     The ORCA program system
     WIRES Comput. Molec. Sci. 2012 2(1), 73-78
     doi.org/10.1002/wcms.81
  2. Neese, F.
     Software update: the ORCA program system, version 4.0
     WIRES Comput. Molec. Sci. 2018 8(1), 1-6
     doi.org/10.1002/wcms.1327
  3. Neese, F.; Wennmohs, F.; Becker, U.; Riplinger, C.
     The ORCA quantum chemistry program package
     J. Chem. Phys. 2020 152(22), 224108
     doi.org/10.1063/5.0004608
  4. Neese, F.
     Software update: The ORCA program system—Version 5.0
     WIRES Comput. Molec. Sci. 2022 12(1), e1606
     doi.org/10.1002/wcms.1606

List of optional additional citations

  1. Neese, F.
     Approximate second-order SCF convergence for spin unrestricted wavefunctions
     Chem. Phys. Lett. 2000 325(1-3), 93-98
     doi.org/10.1016/s0009-2614(00)00662-x

Timings for individual modules:

Sum of individual times          ...       96.013 sec (=   1.600 min)
Startup calculation              ...        4.993 sec (=   0.083 min)   5.2 %
SCF iterations                   ...       57.590 sec (=   0.960 min)  60.0 %
Property calculations            ...        0.036 sec (=   0.001 min)   0.0 %
SCF Gradient evaluation          ...       33.377 sec (=   0.556 min)  34.8 %
Geometry relaxation              ...        0.017 sec (=   0.000 min)   0.0 %
                             ****ORCA TERMINATED NORMALLY****
TOTAL RUN TIME: 0 days 0 hours 1 minutes 36 seconds 274 msec
