
                                 *****************
                                 * O   R   C   A *
                                 *****************

                                            #,                                       
                                            ###                                      
                                            ####                                     
                                            #####                                    
                                            ######                                   
                                           ########,                                 
                                     ,,################,,,,,                         
                               ,,#################################,,                 
                          ,,##########################################,,             
                       ,#########################################, ''#####,          
                    ,#############################################,,   '####,        
                  ,##################################################,,,,####,       
                ,###########''''           ''''###############################       
              ,#####''   ,,,,##########,,,,          '''####'''          '####       
            ,##' ,,,,###########################,,,                        '##       
           ' ,,###''''                  '''############,,,                           
         ,,##''                                '''############,,,,        ,,,,,,###''
      ,#''                                            '''#######################'''  
     '                                                          ''''####''''         
             ,#######,   #######,   ,#######,      ##                                
            ,#'     '#,  ##    ##  ,#'     '#,    #''#        ,####,    ,#,          
            ##       ##  ##   ,#'  ##            #'  '#       #'       ,# #          
            ##       ##  #######   ##           ,######,      #####,      #          
            '#,     ,#'  ##    ##  '#,     ,#' ,#      #,     #,   #      #          
             '#######'   ##     ##  '#######'  #'      '#     '####' #    #          



                #########################################################
                #                        -***-                          #
                #          Department of theory and spectroscopy        #
                #                                                       #
                #                      Frank Neese                      #
                #                                                       #
                #     Directorship, Architecture, Infrastructure        #
                #                    SHARK, DRIVERS                     #
                #        Core code/Algorithms in most modules           #
                #                                                       #
                #        Max Planck Institute fuer Kohlenforschung      #
                #                Kaiser Wilhelm Platz 1                 #
                #                 D-45470 Muelheim/Ruhr                 #
                #                      Germany                          #
                #                                                       #
                #                  All rights reserved                  #
                #                        -***-                          #
                #########################################################


                         Program Version 6.1.0  -  RELEASE   -
                                (GIT: $679e74b$)
                          ($2025-06-10 18:02:51 +0200$)


 With contributions from (in alphabetic order):
[Max-Planck-Institut fuer Kohlenforschung]                               
  Daniel Aravena         : Magnetic Suceptibility                        
  Michael Atanasov       : Ab Initio Ligand Field Theory (pilot matlab implementation)
  Alexander A. Auer      : GIAO ZORA, VPT2 properties, NMR spectrum      
  Ute Becker             : All parallelization in ORCA, NUMFREQ, NUMCALC 
  Giovanni Bistoni       : ED, misc. LED, open-shell LED, HFLD           
  Dmytro Bykov           : pre 5.0 version of the SCF Hessian            
  Marcos Casanova-Páez   : Triplet and SCS-CIS(D). UHF-(DLPNO)-IP/EA/STEOM-CCSD. UHF-CVS-IP/STEOM-CCSD   
  Vijay G. Chilkuri      : MRCI spin determinant printing, contributions to CSF-ICE 
  Pauline Colinet        : FMM embedding                                 
  Dipayan Datta          : RHF DLPNO-CCSD density                        
  Achintya Kumar Dutta   : EOM-CC, STEOM-CC                              
  Nicolas Foglia         : Exact transition moments, OPA infrastructure, MCD improvements    
  Dmitry Ganyushin       : Spin-Orbit,Spin-Spin,Magnetic field MRCI      
  Miquel Garcia-Rates    : C-PCM and meta-GGA Hessian, CCSD/C-PCM, Gaussian charge scheme 
  Tiago L. C. Gouveia    : GS-ROHF, GS-ROCIS                             
  Yang Guo               : DLPNO-NEVPT2, F12-NEVPT2, CIM, IAO-localization        
  Andreas Hansen         : Spin unrestricted coupled pair/coupled cluster methods 
  Ingolf Harden          : AUTO-CI MPn and infrastructure                
  Benjamin Helmich-Paris : MC-RPA, TRAH-(SCF,CASSCF), AVAS, COSX integrals, SCF dyn. polar., MC-PDFT, srDFT 
  Lee Huntington         : MR-EOM, pCC                                   
  Robert Izsak           : Overlap fitted RIJCOSX, COSX-SCS-MP3, EOM     
  Riya Kayal             : Wick's Theorem for AUTO-CI, AUTO-CI UHF-CCSDT 
  Emily Kempfer          : AUTO-CI RHF CISDT and CCSDT, approximate NEVPT4
  Christian Kollmar      : KDIIS, OOCD, Brueckner-CCSD(T), CCSD density, CASPT2, CASPT2-K, improved NEVPT2 
  Axel Koslowski         : Symmetry handling                             
  Simone Kossmann        : meta-GGA functionals, TD-DFT gradient, OOMP2, (MP2 Hessian; deprecated post 5.0) 
  Lucas Lang             : DCDCAS, Hyperfine gauge corrections, ICE-SOC+SSC
  Marvin Lechner         : AUTO-CI (C++ implementation), FIC-MRCC        
  Spencer Leger          : CASSCF response                               
  Dagmar Lenk            : GEPOL surface, SMD, ORCA-2-JSON               
  Dimitrios Liakos       : Extrapolation schemes; Compound Job, Property file
  Dimitrios Manganas     : Further ROCIS development; embedding schemes. LFT, Crystal Embedding 
  Dimitrios Pantazis     : SARC Basis sets                               
  Anastasios Papadopoulos: AUTO-CI, single reference methods and gradients 
  Taras Petrenko         : pre 6.0 DFT Hessian and TD-DFT gradient,  ECA, NRVS 
  Petra Pikulova         : Analytic Raman intensities                    
  Peter Pinski           : DLPNO-MP2, DLPNO-MP2 Gradient                 
  Shashank Vittal Rao    : ES-AILFT, MagRelax                            
  Christoph Reimann      : Effective Core Potentials                     
  Marius Retegan         : Local ZFS, SOC                                
  Christoph Riplinger    : Optimizer, TS searches, QM/MM, DLPNO-CCSD(T), (RO)-DLPNO pert. Triples 
  Michael Roemelt        : Original ROCIS implementation, recursive CI coupling coefficients
  Masaaki Saitow         : Open-shell DLPNO-CCSD energy and density      
  Barbara Sandhoefer     : DKH picture change effects                    
  Yorick L. A. Schmerwitz: GMF and freeze-and-release deltaSCF, NEB S-IDPP initial path                    
  Kantharuban Sivalingam : CASSCF convergence/infrastructure, NEVPT2, NEVPT3, NEVPT4(SD), FIC-MRCI and CEPA variants
  Bernardo de Souza      : ESD, SOC TD-DFT                               
  Georgi L. Stoychev     : AutoAux, RI-MP2 NMR, DLPNO-MP2 response, X2C  
  Van Anh Tran           : RI-MP2 g-tensors                              
  Willem Van den Heuvel  : Paramagnetic NMR                              
  Zikuan Wang            : NOTCH, Electric field optimization            
  Frank Wennmohs         : Technical directorship and infrastructure     
  Hang Xu                : AUTO-CI-Response properties                   
                                                                         
[FACCTs GmbH]                                                            
  Markus Bursch, Nicolas Foglia, Miquel Garcia-Rates, Ingolf Harden, Hagen Neugebauer, Anastasios Papadopoulos, 
  Christoph Riplinger, Bernardo de Souza, Georgi L. Stoychev                                                    
                                                                 
  APM, various basis sets, CI-OPT, improved COSX, DLPNO-Multilevel,           
  DOCKER, DRACO, updates on ESD, Fragmentator, GOAT, IRC, LR-CPCM, L-BFGS, MBIS, meta-GGA TD-DFT gradient, ML-optimized integration grids, 
  MM, NACMEs, nearIR, NEB, NEB-TS, NL-DFT gradient (VV10), 2- and 3-layer-ONIOM, interface openCOSMO-RS, QMMM,   
  Crystal-QMMM, RESP, rigid body optimization, SF, symmetry and pop. for TD-DFT, various functionals, SOLVATOR                                   
                                                                         
[Other institutions]                                                     
  V. Asgeirsson          : NEB                                           
  Christoph Bannwarth    : sTDA-DFT, sTD-DFT, PBEh-3c, B97-3c, D3        
  Giovanni Bistoni       : ETS/NOCV, ADLD/ADEX, COVALED                  
  Martin Brehm           : Molecular dynamics                            
  Ronald Cardenas        : ETS/NOCV                                      
  Martina Colucci        : COVALED                                       
  Sebastian Ehlert       : rSCAN, r2SCAN, r2SCAN-3c, D4, dhf basis sets  
  Marvin Friede          : D4 for Fr, Ra, Ac-Lr                          
  Lars Goerigk           : TD-DFT with DH, B97 family of functionals     
  Stefan Grimme          : VdW corrections, initial TS optimization, DFT functionals, gCP, sTDA/sTD-DF 
  Waldemar Hujo          : DFT-NL                                        
  H. Jonsson             : NEB                                           
  Holger Kruse           : gCP                                           
  Marcel Mueller         : wB97X-3c, vDZP basis set                      
  Hagen Neugebauer       : wr2SCAN, Native XTB                           
  Gianluca Regni         : ADLD/ADEX                                     
  Tobias Risthaus        : pre 6.0 range-separated hybrid DFT and stability analysis
  Lukas Wittmann         : regularized MP2, r2SCAN double-hybrids, wr2SCAN        
                                                                         
We gratefully acknowledge several colleagues who have allowed us to      
interface, adapt or use parts of their codes:                            
  Ed Valeev, F. Pavosevic, A. Kumar             : LibInt (2-el integral package), F12 methods 
  Garnet Chan, S. Sharma, J. Yang, R. Olivares  : DMRG                   
  Ulf Ekstrom                                   : XCFun DFT Library      
  Mihaly Kallay                                 : mrcc  (arbitrary order and MRCC methods)
  Frank Weinhold                                : gennbo (NPA and NBO analysis)           
  Simon Mueller                                 : openCOSMO-RS                            
  Christopher J. Cramer and Donald G. Truhlar   : smd solvation model                     
  S Lehtola, MJT Oliveira, MAL Marques          : LibXC Library                           
  Liviu Ungur et al                             : ANISO software                          


 Your calculation uses the libint2 library for the computation of 2-el integrals
 For citations please refer to: http://libint.valeyev.net

 Your ORCA version has been built with support for libXC version: 7.0.0
 For citations please refer to: https://libxc.gitlab.io

 This ORCA versions uses:
   CBLAS   interface :  Fast vector & matrix operations
   LAPACKE interface :  Fast linear algebra routines
   SCALAPACK package :  Parallel linear algebra routines
   Shared memory     :  Shared parallel matrices
   BLAS/LAPACK       :  OpenBLAS 0.3.29  USE64BITINT DYNAMIC_ARCH NO_AFFINITY Haswell SINGLE_THREADED
        Core in use  :  Haswell
   Copyright (c) 2011-2014, The OpenBLAS Project


  ***********************************
  * Starting time: Wed Sep  3 08:03:13 2025
  * Host name:     chemlab03
  * Process ID:    120478
  * Working dir.:  /home/vivek/mm-project/vivek/xtb-goat/MP2-opt/k/5
  ***********************************



***************************************
The coordinates will be read from file: /home/vivek/mm-project/vivek/xtb-goat/xtb-goat/k/K_CONF/5.xyz
***************************************


================================================================================

----- Orbital basis set information -----
Your calculation utilizes the basis: 6-31G**
   H-He, Li-Ne : W. J. Hehre, R. Ditchfield and J.A. Pople, J. Chem. Phys. 56, 2257 (1972).
                 Note: He and Ne are unpublished basis sets taken from the Gaussian program.
                 Note: Li and B from J. D. Dill and J. A. Pople, J. Chem. Phys. 62, 2921 (1975).
   Na - Ar     : M. M. Francl, W. J. Pietro, W. J. Hehre, J. S. Binkley, M. S. Gordon, 
                 D. J. DeFrees and J. A. Pople, J. Chem. Phys. 77, 3654 (1982).
   K - Zn      : V. A. Rassolov, J. A. Pople, M. A. Ratner, and T. L. Windus, J. Chem. Phys. 109, 1223 (1998).

================================================================================
                                        WARNINGS
                       Please study these warnings very carefully!
================================================================================


WARNING: The frozen-core approximation for MP2-gradient calculations is turned on by default.

WARNING: Geometry Optimization
  ===> : Switching off AutoStart
         For restart on a previous wavefunction, please use MOREAD

WARNING: Post HF methods need fully converged wavefunctions
  ===> : Setting SCFConvForced true
         You can overwrite this default with %scf ConvForced false 


================================================================================
                                       INPUT FILE
================================================================================
NAME = 5.inp
|  1> ! MP2 6-31G** opt
|  2> 
|  3> * xyzfile 0 1 /home/vivek/mm-project/vivek/xtb-goat/xtb-goat/k/K_CONF/5.xyz
|  4> 
|  5>                          ****END OF INPUT****
================================================================================

                       *****************************
                       * Geometry Optimization Run *
                       *****************************

Geometry optimization settings:
Update method            Update   .... BFGS
Choice of coordinates    CoordSys .... (2022) Redundant Internals
Initial Hessian          InHess   .... Almloef's Model
Max. no of cycles        MaxIter  .... 72

Convergence Tolerances:
Energy Change            TolE     ....  5.0000e-06 Eh
Max. Gradient            TolMAXG  ....  3.0000e-04 Eh/bohr
RMS Gradient             TolRMSG  ....  1.0000e-04 Eh/bohr
Max. Displacement        TolMAXD  ....  4.0000e-03 bohr
RMS Displacement         TolRMSD  ....  2.0000e-03 bohr
Strict Convergence                .... False

------------------------------------------------------------------------------
                        ORCA OPTIMIZATION COORDINATE SETUP
------------------------------------------------------------------------------

The optimization will be done in redundant internal coordinates (2022)
Making redundant internal coordinates   ...  (2022 redundants) done
Evaluating the initial hessian          ...  (Almloef) done
Evaluating the coordinates              ...  done
Calculating the B-matrix                .... done
Calculating the G-matrix                .... done
The number of degrees of freedom        ....  104

    -----------------------------------------------------------------
                    Redundant Internal Coordinates


    -----------------------------------------------------------------
         Definition                    Initial Value    Approx d2E/dq
    -----------------------------------------------------------------
      1. B(C   1,C   0)                  1.5356         0.366034   
      2. B(N   4,H   2)                  1.0150         0.424887   
      3. B(N   4,C   0)                  1.4512         0.446850   
      4. B(N   4,H   3)                  1.0150         0.424815   
      5. B(C   5,C   1)                  1.5259         0.379227   
      6. B(H   6,C   1)                  1.0937         0.355193   
      7. B(H   7,C   1)                  1.0941         0.354687   
      8. B(C   8,C   5)                  1.5278         0.376602   
      9. B(H   9,C   5)                  1.0929         0.356330   
     10. B(H  10,C   5)                  1.0911         0.358704   
     11. B(C  11,C   8)                  1.5392         0.361111   
     12. B(H  12,C   8)                  1.0906         0.359342   
     13. B(H  13,C   8)                  1.0914         0.358250   
     14. B(C  14,C  11)                  1.5246         0.381122   
     15. B(N  16,C  11)                  1.4485         0.451323   
     16. B(O  17,H  15)                  0.9709         0.499582   
     17. B(O  17,C  14)                  1.3376         0.678289   
     18. B(H  18,C   0)                  1.0935         0.355459   
     19. B(H  19,C   0)                  1.0937         0.355217   
     20. B(H  20,N  16)                  1.0152         0.424504   
     21. B(O  21,C  14)                  1.2029         1.112701   
     22. B(H  22,C  11)                  1.0969         0.351038   
     23. B(H  23,N  16)                  1.0145         0.425640   
     24. A(C   1,C   0,H  19)          109.4824         0.322513   
     25. A(C   1,C   0,N   4)          114.8193         0.371046   
     26. A(N   4,C   0,H  18)          107.4703         0.331325   
     27. A(C   1,C   0,H  18)          109.4718         0.322548   
     28. A(H  18,C   0,H  19)          107.8950         0.289627   
     29. A(N   4,C   0,H  19)          107.4699         0.331288   
     30. A(C   5,C   1,H   6)          109.3092         0.324388   
     31. A(C   5,C   1,H   7)          109.4936         0.324312   
     32. A(C   0,C   1,H   6)          109.1569         0.322509   
     33. A(C   0,C   1,C   5)          111.9720         0.363018   
     34. A(H   6,C   1,H   7)          107.6955         0.289525   
     35. A(C   0,C   1,H   7)          109.1162         0.322434   
     36. A(C   0,N   4,H   3)          110.1907         0.338361   
     37. A(C   0,N   4,H   2)          110.1570         0.338371   
     38. A(H   2,N   4,H   3)          107.5018         0.301487   
     39. A(C   8,C   5,H  10)          109.6299         0.324542   
     40. A(C   1,C   5,H  10)          108.8965         0.324913   
     41. A(C   8,C   5,H   9)          109.8702         0.324188   
     42. A(C   1,C   5,H   9)          109.1554         0.324558   
     43. A(C   1,C   5,C   8)          111.3584         0.364789   
     44. A(H   9,C   5,H  10)          107.8552         0.290182   
     45. A(H  12,C   8,H  13)          108.6160         0.290508   
     46. A(C  11,C   8,H  12)          107.5936         0.322407   
     47. A(C  11,C   8,H  13)          108.1277         0.322246   
     48. A(C   5,C   8,H  13)          109.5484         0.324474   
     49. A(C   5,C   8,H  12)          109.4367         0.324637   
     50. A(C   5,C   8,C  11)          113.3988         0.361750   
     51. A(C  14,C  11,N  16)          112.6236         0.374279   
     52. A(C   8,C  11,N  16)          111.0732         0.370818   
     53. A(C   8,C  11,C  14)          109.6768         0.362488   
     54. A(N  16,C  11,H  22)          108.1917         0.331185   
     55. A(C  14,C  11,H  22)          107.2079         0.324027   
     56. A(C   8,C  11,H  22)          107.8694         0.321175   
     57. A(C  11,C  14,O  17)          112.6265         0.401835   
     58. A(O  17,C  14,O  21)          122.7998         0.484407   
     59. A(C  11,C  14,O  21)          124.5716         0.438920   
     60. A(H  20,N  16,H  23)          106.5898         0.301537   
     61. A(C  11,N  16,H  23)          110.1402         0.339034   
     62. A(C  11,N  16,H  20)          109.5358         0.338883   
     63. A(C  14,O  17,H  15)          110.4741         0.373308   
     64. D(H   6,C   1,C   0,H  19)   -179.6668         0.010725   
     65. D(H   6,C   1,C   0,N   4)    -58.7059         0.010725   
     66. D(H   6,C   1,C   0,H  18)     62.2476         0.010725   
     67. D(C   5,C   1,C   0,N   4)   -179.8791         0.010725   
     68. D(C   5,C   1,C   0,H  18)    -58.9256         0.010725   
     69. D(C   5,C   1,C   0,H  19)     59.1600         0.010725   
     70. D(H   2,N   4,C   0,C   1)     59.4052         0.017031   
     71. D(H   3,N   4,C   0,H  18)    178.9151         0.017031   
     72. D(H   3,N   4,C   0,C   1)    -59.0403         0.017031   
     73. D(H   2,N   4,C   0,H  19)   -178.5369         0.017031   
     74. D(H   2,N   4,C   0,H  18)    -62.6394         0.017031   
     75. D(H   9,C   5,C   1,C   0)    -59.0261         0.011464   
     76. D(C   8,C   5,C   1,H   6)     58.4096         0.011464   
     77. D(C   8,C   5,C   1,C   0)    179.4948         0.011464   
     78. D(C   8,C   5,C   1,H   7)    -59.3453         0.011464   
     79. D(H   9,C   5,C   1,H   7)     62.1338         0.011464   
     80. D(H   9,C   5,C   1,H   6)    179.8887         0.011464   
     81. D(H  12,C   8,C   5,H   9)    175.5455         0.011315   
     82. D(H  12,C   8,C   5,C   1)    -63.3925         0.011315   
     83. D(C  11,C   8,C   5,H  10)    -62.9455         0.011315   
     84. D(C  11,C   8,C   5,H   9)     55.4166         0.011315   
     85. D(H  12,C   8,C   5,H  10)     57.1833         0.011315   
     86. D(C  11,C   8,C   5,C   1)    176.4786         0.011315   
     87. D(N  16,C  11,C   8,H  13)   -172.6687         0.010457   
     88. D(N  16,C  11,C   8,H  12)    -55.5271         0.010457   
     89. D(N  16,C  11,C   8,C   5)     65.6434         0.010457   
     90. D(C  14,C  11,C   8,H  13)     62.1893         0.010457   
     91. D(C  14,C  11,C   8,H  12)    179.3309         0.010457   
     92. D(C  14,C  11,C   8,C   5)    -59.4985         0.010457   
     93. D(O  17,C  14,C  11,N  16)    171.5556         0.010835   
     94. D(O  17,C  14,C  11,C   8)    -64.2005         0.010835   
     95. D(O  21,C  14,C  11,N  16)     -7.9152         0.010835   
     96. D(O  21,C  14,C  11,C   8)    116.3288         0.010835   
     97. D(O  17,C  14,C  11,H  22)     52.6649         0.010835   
     98. D(H  23,N  16,C  11,C  14)    -63.4620         0.017378   
     99. D(H  23,N  16,C  11,C   8)    173.0671         0.017378   
    100. D(H  20,N  16,C  11,H  22)    171.7775         0.017378   
    101. D(H  20,N  16,C  11,C  14)     53.4626         0.017378   
    102. D(H  20,N  16,C  11,C   8)    -70.0083         0.017378   
    103. D(H  15,O  17,C  14,O  21)     -0.7324         0.034252   
    104. D(H  15,O  17,C  14,C  11)    179.7860         0.034252   
    -----------------------------------------------------------------

Number of atoms                         .... 24
Number of degrees of freedom            .... 104


         *************************************************************
         *                GEOMETRY OPTIMIZATION CYCLE   1            *
         *************************************************************
---------------------------------
CARTESIAN COORDINATES (ANGSTROEM)
---------------------------------
  C    -13.881015    6.031952    1.432524
  C    -12.678707    6.794550    0.857356
  H    -15.347432    7.376572    0.993166
  H    -14.729288    7.546970    2.499453
  N    -15.010428    6.864886    1.802338
  C    -11.531885    5.857951    0.488592
  H    -12.995712    7.345947   -0.032433
  H    -12.331312    7.524448    1.594696
  C    -10.348568    6.629473   -0.093384
  H    -11.215852    5.309834    1.379683
  H    -11.890315    5.130949   -0.241753
  C     -9.131187    5.739683   -0.402424
  H    -10.651018    7.109408   -1.024800
  H    -10.034523    7.402039    0.610659
  C     -8.657318    5.056216    0.875305
  H     -7.920812    5.458291    2.588869
  N     -9.430397    4.796861   -1.460636
  O     -8.210777    5.925466    1.788695
  H    -14.236468    5.304206    0.697779
  H    -13.571173    5.483135    2.326398
  H    -10.084802    4.099815   -1.119265
  O     -8.666622    3.867176    1.057153
  H     -8.316657    6.390348   -0.743669
  H     -8.589985    4.297202   -1.731235

----------------------------
CARTESIAN COORDINATES (A.U.)
----------------------------
  NO LB      ZA    FRAG     MASS         X           Y           Z
   0 C     6.0000    0    12.011  -26.231317   11.398738    2.707077
   1 C     6.0000    0    12.011  -23.959285   12.839839    1.620168
   2 H     1.0000    0     1.008  -29.002444   13.939702    1.876812
   3 H     1.0000    0     1.008  -27.834320   14.261706    4.723282
   4 N     7.0000    0    14.007  -28.365598   12.972754    3.405925
   5 C     6.0000    0    12.011  -21.792105   11.069922    0.923305
   6 H     1.0000    0     1.008  -24.558337   13.881827   -0.061290
   7 H     1.0000    0     1.008  -23.302802   14.219146    3.013539
   8 C     6.0000    0    12.011  -19.555960   12.527889   -0.176469
   9 H     1.0000    0     1.008  -21.194888   10.034131    2.607224
  10 H     1.0000    0     1.008  -22.469438    9.696089   -0.456847
  11 C     6.0000    0    12.011  -17.255443   10.846428   -0.760471
  12 H     1.0000    0     1.008  -20.127508   13.434835   -1.936591
  13 H     1.0000    0     1.008  -18.962500   13.987827    1.153978
  14 C     6.0000    0    12.011  -16.359961    9.554864    1.654086
  15 H     1.0000    0     1.008  -14.968165   10.314675    4.892253
  16 N     7.0000    0    14.007  -17.820868    9.064754   -2.760202
  17 O     8.0000    0    15.999  -15.516120   11.197508    3.380144
  18 H     1.0000    0     1.008  -26.903026   10.023496    1.318612
  19 H     1.0000    0     1.008  -25.645800   10.361623    4.396256
  20 H     1.0000    0     1.008  -19.057514    7.747528   -2.115104
  21 O     8.0000    0    15.999  -16.377543    7.307903    1.997730
  22 H     1.0000    0     1.008  -15.716205   12.076008   -1.405331
  23 H     1.0000    0     1.008  -16.232720    8.120535   -3.271559

--------------------------------
INTERNAL COORDINATES (ANGSTROEM)
--------------------------------
 C      0   0   0     0.000000000000     0.00000000     0.00000000
 C      1   0   0     1.535551106835     0.00000000     0.00000000
 H      1   2   0     2.037502579069    98.91733533     0.00000000
 H      3   1   2     1.637082404988    66.32970938   266.22720879
 N      3   1   2     1.014965291820    41.96232562   232.26420625
 C      2   1   3     1.525911987221   111.97203251   204.16610606
 H      2   1   3     1.093734737545   109.15693557   325.33931148
 H      2   1   3     1.094123141298   109.11619121    82.78853578
 C      6   2   1     1.527802660425   111.35840281   179.49479025
 H      6   2   1     1.092864822397   109.15542385   300.97388859
 H      6   2   1     1.091057309185   108.89645762    58.48881372
 C      9   6   2     1.539236631576   113.39881075   176.47862476
 H      9   6   2     1.090573283068   109.43674332   296.60746138
 H      9   6   2     1.091402241796   109.54836725    55.58833605
 C     12   9   6     1.524555095384   109.67683064   300.50145127
 H     15  12   9     1.907985455863   141.09675496   295.96196993
 N     12   9   6     1.448534242824   111.07324647    65.64344147
 O     16  15  12     0.970881249872    41.05529407   359.68550980
 H      1   2   3     1.093531379722   109.47181341    96.90830718
 H      1   2   3     1.093716147055   109.48241195   214.99390535
 H     17  12   9     1.015210888514   109.53580828   289.99174970
 O     15  12   9     1.202902045425   124.57155242   116.32876619
 H     12   9   6     1.096937745554   107.86935617   184.05247156
 H     17  12   9     1.014482781429   110.14019845   173.06710978

---------------------------
INTERNAL COORDINATES (A.U.)
---------------------------
 C      0   0   0     0.000000000000     0.00000000     0.00000000
 C      1   0   0     2.901771056558     0.00000000     0.00000000
 H      1   2   0     3.850321871599    98.91733533     0.00000000
 H      3   1   2     3.093637404089    66.32970938   266.22720879
 N      3   1   2     1.918006436976    41.96232562   232.26420625
 C      2   1   3     2.883555760315   111.97203251   204.16610606
 H      2   1   3     2.066859117117   109.15693557   325.33931148
 H      2   1   3     2.067593093839   109.11619121    82.78853578
 C      6   2   1     2.887128614880   111.35840281   179.49479025
 H      6   2   1     2.065215215726   109.15542385   300.97388859
 H      6   2   1     2.061799510773   108.89645762    58.48881372
 C      9   6   2     2.908735688978   113.39881075   176.47862476
 H      9   6   2     2.060884833969   109.43674332   296.60746138
 H      9   6   2     2.062451338942   109.54836725    55.58833605
 C     12   9   6     2.880991606350   109.67683064   300.50145127
 H     15  12   9     3.605569979086   141.09675496   295.96196993
 N     12   9   6     2.737333014544   111.07324647    65.64344147
 O     16  15  12     1.834699670817    41.05529407   359.68550980
 H      1   2   3     2.066474826525   109.47181341    96.90830718
 H      1   2   3     2.066823986181   109.48241195   214.99390535
 H     17  12   9     1.918470547466   109.53580828   289.99174970
 O     15  12   9     2.273155431787   124.57155242   116.32876619
 H     12   9   6     2.072911925057   107.86935617   184.05247156
 H     17  12   9     1.917094624479   110.14019845   173.06710978

---------------------
BASIS SET INFORMATION
---------------------
There are 4 groups of distinct atoms

 Group   1 Type C   : 10s4p1d contracted to 3s2p1d pattern {631/31/1}
 Group   2 Type H   : 4s1p contracted to 2s1p pattern {31/1}
 Group   3 Type N   : 10s4p1d contracted to 3s2p1d pattern {631/31/1}
 Group   4 Type O   : 10s4p1d contracted to 3s2p1d pattern {631/31/1}

Atom   0C    basis set group =>   1
Atom   1C    basis set group =>   1
Atom   2H    basis set group =>   2
Atom   3H    basis set group =>   2
Atom   4N    basis set group =>   3
Atom   5C    basis set group =>   1
Atom   6H    basis set group =>   2
Atom   7H    basis set group =>   2
Atom   8C    basis set group =>   1
Atom   9H    basis set group =>   2
Atom  10H    basis set group =>   2
Atom  11C    basis set group =>   1
Atom  12H    basis set group =>   2
Atom  13H    basis set group =>   2
Atom  14C    basis set group =>   1
Atom  15H    basis set group =>   2
Atom  16N    basis set group =>   3
Atom  17O    basis set group =>   4
Atom  18H    basis set group =>   2
Atom  19H    basis set group =>   2
Atom  20H    basis set group =>   2
Atom  21O    basis set group =>   4
Atom  22H    basis set group =>   2
Atom  23H    basis set group =>   2
------------------------------------------------------------------------------
                             ORCA STARTUP CALCULATIONS
------------------------------------------------------------------------------
------------------------------------------------------------------------------
                   ___                                                        
                  /   \      - P O W E R E D   B Y -                         
                 /     \                                                     
                 |  |  |   _    _      __       _____    __    __             
                 |  |  |  | |  | |    /  \     |  _  \  |  |  /  |          
                  \  \/   | |  | |   /    \    | | | |  |  | /  /          
                 / \  \   | |__| |  /  /\  \   | |_| |  |  |/  /          
                |  |  |   |  __  | /  /__\  \  |    /   |      \           
                |  |  |   | |  | | |   __   |  |    \   |  |\   \          
                \     /   | |  | | |  |  |  |  | |\  \  |  | \   \       
                 \___/    |_|  |_| |__|  |__|  |_| \__\ |__|  \__/        
                                                                              
                      - O R C A' S   B I G   F R I E N D -                    
                                      &                                       
                       - I N T E G R A L  F E E D E R -                       
                                                                              
 v1 FN, 2020, v2 2021, v3 2022-2024                                           
------------------------------------------------------------------------------


----------------------
SHARK INTEGRAL PACKAGE
----------------------

Number of atoms                             ...     24
Number of basis functions                   ...    210
Number of shells                            ...    102
Maximum angular momentum                    ...      2
Integral batch strategy                     ... SHARK/LIBINT Hybrid
RI-J (if used) integral strategy            ... SPLIT-RIJ (Revised 2003 algorithm where possible)
Printlevel                                  ...      1
Contraction scheme used                     ... SEGMENTED contraction
Prescreening option                         ... SCHWARTZ
   Thresh                                   ... 2.500e-11
   Tcut                                     ... 2.500e-12
   Tpresel                                  ... 2.500e-12 
Coulomb Range Separation                    ... NOT USED
Exchange Range Separation                   ... NOT USED
Multipole approximations                    ... NOT USED
Finite Nucleus Model                        ... NOT USED
CABS basis                                  ... NOT available
Auxiliary Coulomb fitting basis             ... NOT available
Auxiliary J/K fitting basis                 ... NOT available
Auxiliary Correlation fitting basis         ... NOT available
Auxiliary 'external' fitting basis          ... NOT available

Checking pre-screening integrals            ... done (  0.0 sec) Dimension = 102
   => SHARK Basis and OBASIS are compatible. Storing Pre-screening
Shell pair information
Shell pair cut-off parameter TPreSel        ...   2.5e-12
Total number of shell pairs                 ...      5253
Shell pairs after pre-screening             ...      4372
Total number of primitive shell pairs       ...     24562
Primitive shell pairs kept                  ...     13327
          la=0 lb=0:   1450 shell pairs
          la=1 lb=0:   1644 shell pairs
          la=1 lb=1:    488 shell pairs
          la=2 lb=0:    473 shell pairs
          la=2 lb=1:    274 shell pairs
          la=2 lb=2:     43 shell pairs

Checking whether 4 symmetric matrices of dimension 210 fit in memory
:Max Core in MB      =   4096.00
 MB in use           =      7.00
 MB left             =   4089.00
 MB needed           =      0.68
 Data fit in memory  = YES
Calculating Nuclear repulsion               ... done (  0.0 sec) ENN=    556.215653338976 Eh

Diagonalization of the overlap matrix:
Smallest eigenvalue                        ... 2.689e-03
Time for diagonalization                   ...    0.002 sec
Threshold for overlap eigenvalues          ... 1.000e-07
Number of eigenvalues below threshold      ... 0
Time for construction of square roots      ...    0.001 sec
Total time needed                          ...    0.003 sec

-------------------
DFT GRID GENERATION
-------------------

General Integration Accuracy     IntAcc      ... 4.388
Radial Grid Type                 RadialGrid  ... OptM3 with GC (2021)
Angular Grid (max. ang.)         AngularGrid ... 4 (Lebedev-302)
Angular grid pruning method      GridPruning ... 4 (adaptive)
Weight generation scheme         WeightScheme... mBecke (2022)
Basis function cutoff            BFCut       ... 1.0000e-11
Integration weight cutoff        WCut        ... 1.0000e-14
Partially contracted basis set               ... off
Rotationally invariant grid construction     ... off
Angular grids for H and He will be reduced by one unit

Total number of grid points                  ...   104959
Total number of batches                      ...     1653
Average number of points per batch           ...       63
Average number of grid points per atom       ...     4373
Grids setup in   0.4 sec
Initializing property integral containers    ... done (  0.0 sec)

SHARK setup successfully completed in   0.5 seconds

Maximum memory used throughout the entire STARTUP-calculation: 41.8 MB
-------------------------------------------------------------------------------
                                 ORCA GUESS
                   Start orbitals & Density for SCF / CASSCF
-------------------------------------------------------------------------------

------------
SCF SETTINGS
------------
Hamiltonian:
 Ab initio Hamiltonian  Method          .... Hartree-Fock(GTOs)


General Settings:
 Integral files         IntName         .... 5
 Hartree-Fock type      HFTyp           .... RHF
 Total Charge           Charge          ....    0
 Multiplicity           Mult            ....    1
 Number of Electrons    NEL             ....   80
 Basis Dimension        Dim             ....  210
 Nuclear Repulsion      ENuc            ....    556.2156533390 Eh

Convergence Acceleration:
 AO-DIIS                CNVDIIS         .... on
   Start iteration      DIISMaxIt       ....    12
   Startup error        DIISStart       ....  0.200000
   # of expansion vecs  DIISMaxEq       ....     5
   Bias factor          DIISBfac        ....   1.050
   Max. coefficient     DIISMaxC        ....  10.000
 MO-DIIS                CNVKDIIS        .... off
 Trust-Rad. Augm. Hess. CNVTRAH         .... auto
   Auto Start mean grad. ratio tolernc. ....  1.125000
   Auto Start start iteration           ....    50
   Auto Start num. interpolation iter.  ....    10
   Max. Number of Micro iterations      ....    24
   Max. Number of Macro iterations      .... Maxiter - #DIIS iter
   Number of Davidson start vectors     ....     2
   Converg. threshold    (grad. norm)   ....   1.000e-05
   Grad. Scal. Fac. for Micro threshold ....   0.100
   Minimum threshold for Micro iter.    ....   1.000e-02
   NR start threshold (gradient norm)   ....   1.000e-04
   Initial trust radius                 ....   0.400
   Minimum AH scaling param. (alpha)    ....   1.000
   Maximum AH scaling param. (alpha)    .... 1000.000
   Quad. conv. algorithm                .... NR
   White noise on init. David. guess    .... on
   Maximum white noise                  ....   0.010
   Pseudo random numbers                .... off
   Inactive MOs                         .... canonical
   Orbital update algorithm             .... Taylor
   Preconditioner                       .... Diag
   Full preconditioner red. dimension   ....   250
 SOSCF                 CNVSOSCF           .... on
   Start iteration     SOSCFMaxIt         ....   150
   Startup grad/error  SOSCFStart         ....  0.003300
   Hessian update      SOSCFHessUp        .... L-BFGS
   Autom. constraints  SOSCFAutoConstrain .... off
 Level Shifting         CNVShift        .... on
   Level shift para.    LevelShift      ....    0.2500
   Turn off err/grad.   ShiftErr        ....    0.0010
 Zerner damping         CNVZerner       .... off
 Static damping         CNVDamp         .... on
   Fraction old density DampFac         ....    0.7000
   Max. Damping (<1)    DampMax         ....    0.9800
   Min. Damping (>=0)   DampMin         ....    0.0000
   Turn off err/grad.   DampErr         ....    0.1000

SCF Procedure:
 Maximum # iterations   MaxIter         ....   125
 SCF integral mode      SCFMode         .... Direct
   Integral package                     .... SHARK and LIBINT hybrid scheme
 Reset frequency        DirectResetFreq ....    20
 Integral Threshold     Thresh          ....  2.500e-11 Eh
 Primitive CutOff       TCut            ....  2.500e-12 Eh

Convergence Tolerance:
 Convergence Check Mode ConvCheckMode   .... Total+1el-Energy
 Convergence forced     ConvForced      .... 1
 Energy Change          TolE            ....  1.000e-08 Eh
 1-El. energy change                    ....  1.000e-05 Eh
 Orbital Gradient       TolG            ....  1.000e-05
 Orbital Rotation angle TolX            ....  1.000e-05
 DIIS Error             TolErr          ....  5.000e-07

------------------------------
INITIAL GUESS: MODEL POTENTIAL
------------------------------
Loading Hartree-Fock densities                     ... done
Calculating cut-offs                               ... done
Initializing the effective Hamiltonian             ... done
Setting up the integral package (SHARK)            ... done
Starting the Coulomb interaction                   ... done (   0.1 sec)
Making the grid                                    ... done (   0.1 sec)
Mapping shells                                     ... done
Starting the XC term evaluation                    ... done (   0.1 sec)
Transforming the Hamiltonian                       ... done (   0.0 sec)
Diagonalizing the Hamiltonian                      ... done (   0.0 sec)
Back transforming the eigenvectors                 ... done (   0.0 sec)
Now organizing SCF variables                       ... done
                      ------------------
                      INITIAL GUESS DONE (   0.3 sec)
                      ------------------
             **** ENERGY FILE WAS UPDATED (5.en.tmp) ****
Finished Guess after   0.3 sec
Maximum memory used throughout the entire GUESS-calculation: 12.5 MB

-------------------------------------------------------------------------------------------
                                      ORCA LEAN-SCF
                              memory conserving SCF solver
-------------------------------------------------------------------------------------------

----------------------------------------D-I-I-S--------------------------------------------
Iteration    Energy (Eh)           Delta-E    RMSDP     MaxDP     DIISErr   Damp  Time(sec)
-------------------------------------------------------------------------------------------
               ***  Starting incremental Fock matrix formation  ***
    1    -493.5168115711672954     0.00e+00  2.41e-03  6.35e-02  2.64e-01  0.700   2.3
    2    -493.6986589627650801    -1.82e-01  1.82e-03  4.61e-02  1.66e-01  0.700   2.2
                               ***Turning on AO-DIIS***
    3    -493.8049951315427961    -1.06e-01  9.66e-04  2.21e-02  9.48e-02  0.700   2.1
    4    -493.8716957811374186    -6.67e-02  2.16e-03  4.70e-02  6.42e-02  0.000   2.1
    5    -494.0190163672649533    -1.47e-01  2.46e-04  6.45e-03  6.09e-03  0.000   2.2
    6    -494.0195504330519043    -5.34e-04  1.23e-04  3.18e-03  3.39e-03  0.000   2.0
                              *** Initializing SOSCF ***
---------------------------------------S-O-S-C-F--------------------------------------
Iteration    Energy (Eh)           Delta-E    RMSDP     MaxDP     MaxGrad    Time(sec)
--------------------------------------------------------------------------------------
    7    -494.0196629559551411    -1.13e-04  6.69e-05  2.29e-03  2.38e-03     1.9
               *** Restarting incremental Fock matrix formation ***
    8    -494.0196950759956280    -3.21e-05  3.42e-05  8.12e-04  5.10e-04     2.3
    9    -494.0197023111353474    -7.24e-06  3.53e-05  1.25e-03  3.09e-04     1.7
   10    -494.0197049083257070    -2.60e-06  6.55e-06  2.62e-04  9.49e-05     1.7
   11    -494.0197051191886430    -2.11e-07  2.38e-06  8.07e-05  3.26e-05     1.6
   12    -494.0197051564520052    -3.73e-08  7.35e-07  3.20e-05  8.57e-06     1.5
   13    -494.0197051586998214    -2.25e-09  3.36e-07  1.14e-05  2.41e-06     1.3
                 **** Energy Check signals convergence ****

               *****************************************************
               *                     SUCCESS                       *
               *           SCF CONVERGED AFTER  13 CYCLES          *
               *****************************************************

             **** ENERGY FILE WAS UPDATED (5.en.tmp) ****

----------------
TOTAL SCF ENERGY
----------------

Total Energy       :       -494.01970515906226 Eh          -13442.95960 eV

Components:
Nuclear Repulsion  :        556.21565333897649 Eh           15135.39740 eV
Electronic Energy  :      -1050.23535849803875 Eh          -28578.35700 eV
One Electron Energy:      -1777.34422988641131 Eh          -48363.99527 eV
Two Electron Energy:        727.10887138837256 Eh           19785.63827 eV

Virial components:
Potential Energy   :       -987.54453317195737 Eh          -26872.45292 eV
Kinetic Energy     :        493.52482801289511 Eh           13429.49331 eV
Virial Ratio       :          2.00100274012183

---------------
SCF CONVERGENCE
---------------

  Last Energy change         ...    2.2478e-09  Tolerance :   1.0000e-08
  Last MAX-Density change    ...    1.1449e-05  Tolerance :   1.0000e-07
  Last RMS-Density change    ...    3.3588e-07  Tolerance :   5.0000e-09
  Last DIIS Error            ...    2.3835e-03  Tolerance :   5.0000e-07
  Last Orbital Gradient      ...    2.4142e-06  Tolerance :   1.0000e-05
  Last Orbital Rotation      ...    6.0003e-06  Tolerance :   1.0000e-05


----------------
ORBITAL ENERGIES
----------------

  NO   OCC          E(Eh)            E(eV) 
   0   2.0000     -20.619866      -561.0951 
   1   2.0000     -20.555321      -559.3387 
   2   2.0000     -15.546743      -423.0484 
   3   2.0000     -15.536593      -422.7722 
   4   2.0000     -11.383173      -309.7519 
   5   2.0000     -11.273812      -306.7760 
   6   2.0000     -11.244238      -305.9713 
   7   2.0000     -11.229087      -305.5590 
   8   2.0000     -11.224638      -305.4379 
   9   2.0000     -11.219824      -305.3069 
  10   2.0000      -1.470415       -40.0120 
  11   2.0000      -1.363979       -37.1158 
  12   2.0000      -1.197670       -32.5903 
  13   2.0000      -1.177952       -32.0537 
  14   2.0000      -1.076032       -29.2803 
  15   2.0000      -1.001569       -27.2541 
  16   2.0000      -0.927150       -25.2290 
  17   2.0000      -0.854737       -23.2586 
  18   2.0000      -0.810599       -22.0575 
  19   2.0000      -0.785215       -21.3668 
  20   2.0000      -0.703052       -19.1310 
  21   2.0000      -0.702357       -19.1121 
  22   2.0000      -0.681879       -18.5549 
  23   2.0000      -0.673722       -18.3329 
  24   2.0000      -0.644724       -17.5438 
  25   2.0000      -0.615683       -16.7536 
  26   2.0000      -0.600081       -16.3290 
  27   2.0000      -0.594371       -16.1736 
  28   2.0000      -0.572822       -15.5873 
  29   2.0000      -0.562825       -15.3152 
  30   2.0000      -0.548724       -14.9315 
  31   2.0000      -0.521857       -14.2004 
  32   2.0000      -0.499076       -13.5806 
  33   2.0000      -0.486502       -13.2384 
  34   2.0000      -0.480677       -13.0799 
  35   2.0000      -0.475987       -12.9523 
  36   2.0000      -0.472290       -12.8517 
  37   2.0000      -0.449568       -12.2334 
  38   2.0000      -0.401945       -10.9375 
  39   2.0000      -0.376487       -10.2447 
  40   0.0000       0.183217         4.9856 
  41   0.0000       0.214742         5.8434 
  42   0.0000       0.221806         6.0357 
  43   0.0000       0.229608         6.2479 
  44   0.0000       0.252453         6.8696 
  45   0.0000       0.259875         7.0715 
  46   0.0000       0.267458         7.2779 
  47   0.0000       0.290303         7.8996 
  48   0.0000       0.310506         8.4493 
  49   0.0000       0.320491         8.7210 
  50   0.0000       0.337986         9.1971 
*Only the first 10 virtual orbitals were printed.

                    ********************************
                    * MULLIKEN POPULATION ANALYSIS *
                    ********************************

-----------------------
MULLIKEN ATOMIC CHARGES
-----------------------
   0 C :   -0.022452
   1 C :   -0.223365
   2 H :    0.258908
   3 H :    0.258294
   4 N :   -0.698601
   5 C :   -0.243585
   6 H :    0.104852
   7 H :    0.102478
   8 C :   -0.207885
   9 H :    0.118302
  10 H :    0.120520
  11 C :   -0.047278
  12 H :    0.140877
  13 H :    0.133842
  14 C :    0.787448
  15 H :    0.372213
  16 N :   -0.677413
  17 O :   -0.637323
  18 H :    0.115947
  19 H :    0.115417
  20 H :    0.282688
  21 O :   -0.589055
  22 H :    0.158204
  23 H :    0.276968
Sum of atomic charges:   -0.0000000

--------------------------------
MULLIKEN REDUCED ORBITAL CHARGES
--------------------------------
  0 C s       :     3.190765  s :     3.190765
      pz      :     1.034933  p :     2.765854
      px      :     0.821037
      py      :     0.909883
      dz2     :     0.007628  d :     0.065833
      dxz     :     0.011969
      dyz     :     0.016084
      dx2y2   :     0.011518
      dxy     :     0.018633

  1 C s       :     3.239652  s :     3.239652
      pz      :     1.025462  p :     2.935314
      px      :     0.928331
      py      :     0.981521
      dz2     :     0.006080  d :     0.048399
      dxz     :     0.008319
      dyz     :     0.015036
      dx2y2   :     0.005424
      dxy     :     0.013540

  2 H s       :     0.714966  s :     0.714966
      pz      :     0.011107  p :     0.026127
      px      :     0.007717
      py      :     0.007303

  3 H s       :     0.715583  s :     0.715583
      pz      :     0.010784  p :     0.026123
      px      :     0.005892
      py      :     0.009448

  4 N s       :     3.606172  s :     3.606172
      pz      :     1.248831  p :     4.057678
      px      :     1.482045
      py      :     1.326802
      dz2     :     0.003523  d :     0.034752
      dxz     :     0.004928
      dyz     :     0.013638
      dx2y2   :     0.005372
      dxy     :     0.007291

  5 C s       :     3.235862  s :     3.235862
      pz      :     1.033532  p :     2.958673
      px      :     0.935289
      py      :     0.989853
      dz2     :     0.006128  d :     0.049049
      dxz     :     0.008618
      dyz     :     0.015036
      dx2y2   :     0.005655
      dxy     :     0.013612

  6 H s       :     0.882799  s :     0.882799
      pz      :     0.006500  p :     0.012349
      px      :     0.002281
      py      :     0.003567

  7 H s       :     0.885193  s :     0.885193
      pz      :     0.004928  p :     0.012329
      px      :     0.002444
      py      :     0.004957

  8 C s       :     3.234884  s :     3.234884
      pz      :     1.062273  p :     2.924694
      px      :     0.898029
      py      :     0.964392
      dz2     :     0.007403  d :     0.048307
      dxz     :     0.007853
      dyz     :     0.013387
      dx2y2   :     0.005812
      dxy     :     0.013852

  9 H s       :     0.869309  s :     0.869309
      pz      :     0.006539  p :     0.012389
      px      :     0.002220
      py      :     0.003630

 10 H s       :     0.867058  s :     0.867058
      pz      :     0.005022  p :     0.012422
      px      :     0.002515
      py      :     0.004885

 11 C s       :     3.213109  s :     3.213109
      pz      :     0.804208  p :     2.763662
      px      :     1.044024
      py      :     0.915429
      dz2     :     0.016811  d :     0.070507
      dxz     :     0.011148
      dyz     :     0.019631
      dx2y2   :     0.007233
      dxy     :     0.015683

 12 H s       :     0.846642  s :     0.846642
      pz      :     0.007285  p :     0.012481
      px      :     0.002196
      py      :     0.003000

 13 H s       :     0.853656  s :     0.853656
      pz      :     0.004855  p :     0.012502
      px      :     0.002280
      py      :     0.005367

 14 C s       :     2.952028  s :     2.952028
      pz      :     0.762450  p :     2.114713
      px      :     0.635727
      py      :     0.716536
      dz2     :     0.021107  d :     0.145811
      dxz     :     0.010118
      dyz     :     0.057205
      dx2y2   :     0.021759
      dxy     :     0.035622

 15 H s       :     0.586282  s :     0.586282
      pz      :     0.020559  p :     0.041505
      px      :     0.010276
      py      :     0.010670

 16 N s       :     3.600677  s :     3.600677
      pz      :     1.498964  p :     4.042135
      px      :     1.273045
      py      :     1.270126
      dz2     :     0.006424  d :     0.034601
      dxz     :     0.004068
      dyz     :     0.009026
      dx2y2   :     0.002427
      dxy     :     0.012655

 17 O s       :     3.836790  s :     3.836790
      pz      :     1.357773  p :     4.775221
      px      :     1.764280
      py      :     1.653168
      dz2     :     0.002016  d :     0.025312
      dxz     :     0.001666
      dyz     :     0.012405
      dx2y2   :     0.003737
      dxy     :     0.005489

 18 H s       :     0.872029  s :     0.872029
      pz      :     0.004940  p :     0.012024
      px      :     0.002137
      py      :     0.004947

 19 H s       :     0.872567  s :     0.872567
      pz      :     0.006547  p :     0.012016
      px      :     0.001963
      py      :     0.003505

 20 H s       :     0.691157  s :     0.691157
      pz      :     0.006427  p :     0.026154
      px      :     0.010041
      py      :     0.009686

 21 O s       :     3.874914  s :     3.874914
      pz      :     1.774796  p :     4.681392
      px      :     1.529139
      py      :     1.377457
      dz2     :     0.003619  d :     0.032749
      dxz     :     0.000337
      dyz     :     0.007830
      dx2y2   :     0.008772
      dxy     :     0.012191

 22 H s       :     0.829604  s :     0.829604
      pz      :     0.002080  p :     0.012192
      px      :     0.005780
      py      :     0.004333

 23 H s       :     0.696959  s :     0.696959
      pz      :     0.007306  p :     0.026073
      px      :     0.011749
      py      :     0.007018



                     *******************************
                     * LOEWDIN POPULATION ANALYSIS *
                     *******************************

----------------------
LOEWDIN ATOMIC CHARGES
----------------------
   0 C :   -0.043322
   1 C :   -0.128114
   2 H :    0.122657
   3 H :    0.122343
   4 N :   -0.298419
   5 C :   -0.119741
   6 H :    0.056549
   7 H :    0.055381
   8 C :   -0.103730
   9 H :    0.061099
  10 H :    0.062795
  11 C :   -0.027797
  12 H :    0.073897
  13 H :    0.069276
  14 C :    0.225423
  15 H :    0.201158
  16 N :   -0.276000
  17 O :   -0.210994
  18 H :    0.060375
  19 H :    0.060047
  20 H :    0.132486
  21 O :   -0.310490
  22 H :    0.082868
  23 H :    0.132251

-------------------------------
LOEWDIN REDUCED ORBITAL CHARGES
-------------------------------
  0 C s       :     2.879536  s :     2.879536
      pz      :     1.065699  p :     3.036182
      px      :     0.964630
      py      :     1.005853
      dz2     :     0.013794  d :     0.127604
      dxz     :     0.023427
      dyz     :     0.028459
      dx2y2   :     0.024560
      dxy     :     0.037364

  1 C s       :     2.899833  s :     2.899833
      pz      :     1.062385  p :     3.136386
      px      :     1.023977
      py      :     1.050024
      dz2     :     0.011183  d :     0.091894
      dxz     :     0.016072
      dyz     :     0.026368
      dx2y2   :     0.011472
      dxy     :     0.026799

  2 H s       :     0.796307  s :     0.796307
      pz      :     0.033856  p :     0.081036
      px      :     0.024048
      py      :     0.023132

  3 H s       :     0.796651  s :     0.796651
      pz      :     0.031091  p :     0.081006
      px      :     0.020233
      py      :     0.029682

  4 N s       :     3.190604  s :     3.190604
      pz      :     1.243072  p :     4.046485
      px      :     1.471394
      py      :     1.332019
      dz2     :     0.006734  d :     0.061330
      dxz     :     0.009749
      dyz     :     0.022560
      dx2y2   :     0.009358
      dxy     :     0.012928

  5 C s       :     2.886798  s :     2.886798
      pz      :     1.063467  p :     3.140306
      px      :     1.022595
      py      :     1.054244
      dz2     :     0.011246  d :     0.092637
      dxz     :     0.016602
      dyz     :     0.026102
      dx2y2   :     0.011987
      dxy     :     0.026701

  6 H s       :     0.904447  s :     0.904447
      pz      :     0.019188  p :     0.039004
      px      :     0.008166
      py      :     0.011650

  7 H s       :     0.905725  s :     0.905725
      pz      :     0.015040  p :     0.038893
      px      :     0.008506
      py      :     0.015347

  8 C s       :     2.891431  s :     2.891431
      pz      :     1.076332  p :     3.120696
      px      :     1.003588
      py      :     1.040776
      dz2     :     0.013392  d :     0.091603
      dxz     :     0.015254
      dyz     :     0.022816
      dx2y2   :     0.012568
      dxy     :     0.027573

  9 H s       :     0.899235  s :     0.899235
      pz      :     0.019664  p :     0.039666
      px      :     0.008223
      py      :     0.011780

 10 H s       :     0.897328  s :     0.897328
      pz      :     0.015458  p :     0.039877
      px      :     0.009082
      py      :     0.015337

 11 C s       :     2.869810  s :     2.869810
      pz      :     0.959523  p :     3.016739
      px      :     1.058246
      py      :     0.998970
      dz2     :     0.034914  d :     0.141248
      dxz     :     0.022165
      dyz     :     0.040176
      dx2y2   :     0.013989
      dxy     :     0.030005

 12 H s       :     0.885883  s :     0.885883
      pz      :     0.021700  p :     0.040220
      px      :     0.008016
      py      :     0.010503

 13 H s       :     0.890506  s :     0.890506
      pz      :     0.015096  p :     0.040217
      px      :     0.008038
      py      :     0.017083

 14 C s       :     2.850877  s :     2.850877
      pz      :     0.912199  p :     2.606712
      px      :     0.697243
      py      :     0.997269
      dz2     :     0.045327  d :     0.316988
      dxz     :     0.020495
      dyz     :     0.127447
      dx2y2   :     0.051533
      dxy     :     0.072186

 15 H s       :     0.678481  s :     0.678481
      pz      :     0.056140  p :     0.120360
      px      :     0.030754
      py      :     0.033466

 16 N s       :     3.185321  s :     3.185321
      pz      :     1.496501  p :     4.029492
      px      :     1.255478
      py      :     1.277513
      dz2     :     0.010881  d :     0.061186
      dxz     :     0.007850
      dyz     :     0.015779
      dx2y2   :     0.005178
      dxy     :     0.021499

 17 O s       :     3.457572  s :     3.457572
      pz      :     1.343531  p :     4.705444
      px      :     1.719105
      py      :     1.642808
      dz2     :     0.008459  d :     0.047978
      dxz     :     0.006006
      dyz     :     0.020809
      dx2y2   :     0.005384
      dxy     :     0.007321

 18 H s       :     0.901749  s :     0.901749
      pz      :     0.014921  p :     0.037875
      px      :     0.007486
      py      :     0.015468

 19 H s       :     0.902113  s :     0.902113
      pz      :     0.019723  p :     0.037840
      px      :     0.006572
      py      :     0.011545

 20 H s       :     0.785202  s :     0.785202
      pz      :     0.021941  p :     0.082312
      px      :     0.030116
      py      :     0.030255

 21 O s       :     3.547567  s :     3.547567
      pz      :     1.740603  p :     4.705681
      px      :     1.496573
      py      :     1.468505
      dz2     :     0.007544  d :     0.057242
      dxz     :     0.000428
      dyz     :     0.014485
      dx2y2   :     0.020699
      dxy     :     0.014087

 22 H s       :     0.877740  s :     0.877740
      pz      :     0.007463  p :     0.039392
      px      :     0.017631
      py      :     0.014298

 23 H s       :     0.786188  s :     0.786188
      pz      :     0.023111  p :     0.081560
      px      :     0.036261
      py      :     0.022188



                      *****************************
                      * MAYER POPULATION ANALYSIS *
                      *****************************

  NA   - Mulliken gross atomic population
  ZA   - Total nuclear charge
  QA   - Mulliken gross atomic charge
  VA   - Mayer's total valence
  BVA  - Mayer's bonded valence
  FA   - Mayer's free valence

  ATOM       NA         ZA         QA         VA         BVA        FA
  0 C      6.0225     6.0000    -0.0225     3.8004     3.8004     0.0000
  1 C      6.2234     6.0000    -0.2234     3.7991     3.7991     0.0000
  2 H      0.7411     1.0000     0.2589     0.9097     0.9097    -0.0000
  3 H      0.7417     1.0000     0.2583     0.9100     0.9100    -0.0000
  4 N      7.6986     7.0000    -0.6986     2.7569     2.7569    -0.0000
  5 C      6.2436     6.0000    -0.2436     3.8004     3.8004    -0.0000
  6 H      0.8951     1.0000     0.1049     0.9524     0.9524     0.0000
  7 H      0.8975     1.0000     0.1025     0.9528     0.9528     0.0000
  8 C      6.2079     6.0000    -0.2079     3.7754     3.7754     0.0000
  9 H      0.8817     1.0000     0.1183     0.9516     0.9516    -0.0000
 10 H      0.8795     1.0000     0.1205     0.9477     0.9477    -0.0000
 11 C      6.0473     6.0000    -0.0473     3.7646     3.7646     0.0000
 12 H      0.8591     1.0000     0.1409     0.9492     0.9492     0.0000
 13 H      0.8662     1.0000     0.1338     0.9479     0.9479    -0.0000
 14 C      5.2126     6.0000     0.7874     3.6801     3.6801     0.0000
 15 H      0.6278     1.0000     0.3722     0.8719     0.8719    -0.0000
 16 N      7.6774     7.0000    -0.6774     2.7672     2.7672     0.0000
 17 O      8.6373     8.0000    -0.6373     1.8172     1.8172    -0.0000
 18 H      0.8841     1.0000     0.1159     0.9477     0.9477    -0.0000
 19 H      0.8846     1.0000     0.1154     0.9476     0.9476     0.0000
 20 H      0.7173     1.0000     0.2827     0.9043     0.9043    -0.0000
 21 O      8.5891     8.0000    -0.5891     1.8945     1.8945    -0.0000
 22 H      0.8418     1.0000     0.1582     0.9407     0.9407    -0.0000
 23 H      0.7230     1.0000     0.2770     0.9045     0.9045    -0.0000

  Mayer bond orders larger than 0.100000
B(  0-C ,  1-C ) :   0.9614 B(  0-C ,  4-N ) :   0.9462 B(  0-C , 18-H ) :   0.9733 
B(  0-C , 19-H ) :   0.9733 B(  1-C ,  5-C ) :   0.9694 B(  1-C ,  6-H ) :   0.9726 
B(  1-C ,  7-H ) :   0.9728 B(  2-H ,  4-N ) :   0.9151 B(  3-H ,  4-N ) :   0.9154 
B(  5-C ,  8-C ) :   0.9645 B(  5-C ,  9-H ) :   0.9678 B(  5-C , 10-H ) :   0.9698 
B(  8-C , 11-C ) :   0.9619 B(  8-C , 12-H ) :   0.9670 B(  8-C , 13-H ) :   0.9660 
B( 11-C , 14-C ) :   0.9157 B( 11-C , 16-N ) :   0.9905 B( 11-C , 22-H ) :   0.9602 
B( 14-C , 17-O ) :   0.9644 B( 14-C , 21-O ) :   1.8246 B( 15-H , 17-O ) :   0.8399 
B( 16-N , 20-H ) :   0.8982 B( 16-N , 23-H ) :   0.9083 

-------
TIMINGS
-------

Total SCF time: 0 days 0 hours 0 min 26 sec 

Total time                  ....      26.106 sec
Sum of individual times     ....      24.911 sec  ( 95.4%)

SCF preparation             ....       0.018 sec  (  0.1%)
Fock matrix formation       ....      24.784 sec  ( 94.9%)
  Startup                   ....       0.001 sec  (  0.0% of F)
  Coulomb+Exchange Fock     ....      25.980 sec  (104.8% of F)
Diagonalization             ....       0.000 sec  (  0.0%)
Density matrix formation    ....       0.006 sec  (  0.0%)
Total Energy calculation    ....       0.001 sec  (  0.0%)
Population analysis         ....       0.003 sec  (  0.0%)
Orbital Transformation      ....       0.025 sec  (  0.1%)
Orbital Orthonormalization  ....       0.000 sec  (  0.0%)
DIIS solution               ....       0.055 sec  (  0.2%)
SOSCF solution              ....       0.018 sec  (  0.1%)
Finished LeanSCF after  26.1 sec

Maximum memory used throughout the entire LEANSCF-calculation: 16.1 MB

------------------------------------------------------------------------------
                                ORCA  MP2 
------------------------------------------------------------------------------

Freezing NCore=20 chemical core electrons
MP2 will be done in the AO integral direct mode
The Q1-step will be done using symmetric double matrices
Dimension of the basis                    ...  210
Memory devoted for MP2                    ... 4096 MB   
Memory needed for all in one shot         ... 1066 MB
Number of MOs that can be treated together...  114      
MP2 density construction                  ... relaxed
The MP2 gradient is requested => amplitudes will be stored on disk
Total number of MOs              ...   30
Number of MOs treated per batch  ...   30 
Number of batches necessary      ...    1 
OPERATORS   0/  0 PASS   0
-----------------------------------------------
 MP2 CORRELATION ENERGY   :     -1.531744093 Eh
-----------------------------------------------


---------------------
MP2 DENSITY FORMATION
---------------------

Completing the external part of the density      ... done
Storing the unrelaxed density                    ... done

Calculating G(D)                                 ... done
Completing the Lagrangian                        ... done
Solving the Z-vector equations                   ... 
-------------------
SHARK CP-SCF DRIVER
-------------------

Dimension of the orbital basis          ...    210
Dimension of the CPSCF-problem          ...   6800
Number of operators                     ...      1
Max. number of iterations               ...    128
Convergence Tolerance                   ... 1.0e-04
Number of perturbations                 ...      1
Perturbation type                       ... REAL

----------------------------
POPLE LINEAR EQUATION SOLVER
----------------------------

  ITERATION   0:   ||err||_max =   1.2758e-01 (   2.9 sec)
  ITERATION   1:   ||err||_max =   3.3458e-02 (   3.0 sec)
  ITERATION   2:   ||err||_max =   1.4413e-02 (   3.1 sec)
  ITERATION   3:   ||err||_max =   3.4153e-03 (   3.0 sec)
  ITERATION   4:   ||err||_max =   1.2958e-03 (   3.0 sec)
  ITERATION   5:   ||err||_max =   3.1227e-04 (   3.0 sec)
  ITERATION   6:   ||err||_max =   9.5066e-05 (   3.1 sec)
                                                 ... done
Finalizing the relaxed density                   ... done
Transforming P to the AO basis                   ... done
Storing the relaxed density                      ... done

------------------------------------
ENERGY WEIGHTED DENSITY FINALIZATION
------------------------------------

Gathering the parts of the W-matrix              ...                                                      done
Forming the Z-density                            ... done
Transforming Z to the AO basis                   ... done
Calculating G(Z)                                 ... done
Finalizing the W-matrix                          ...                                                      done
Transforming W to the AO basis and storing       ... done

                *********************************************
                * UNRELAXED MP2 DENSITY POPULATION ANALYSIS *
                *********************************************

------------------------------------------------------------------------------
                           ORCA POPULATION ANALYSIS
------------------------------------------------------------------------------
Input electron density              ... 5.pmp2ur
BaseName (.gbw .S,...)              ... 5

                    ********************************
                    * MULLIKEN POPULATION ANALYSIS *
                    ********************************

-----------------------
MULLIKEN ATOMIC CHARGES
-----------------------
   0 C :   -0.028917
   1 C :   -0.225637
   2 H :    0.257765
   3 H :    0.257152
   4 N :   -0.691575
   5 C :   -0.244966
   6 H :    0.105777
   7 H :    0.103417
   8 C :   -0.209916
   9 H :    0.119131
  10 H :    0.121342
  11 C :   -0.052346
  12 H :    0.141563
  13 H :    0.134539
  14 C :    0.754005
  15 H :    0.368982
  16 N :   -0.669688
  17 O :   -0.623680
  18 H :    0.116945
  19 H :    0.116423
  20 H :    0.281062
  21 O :   -0.566002
  22 H :    0.158894
  23 H :    0.275730
Sum of atomic charges:   -0.0000000

--------------------------------
MULLIKEN REDUCED ORBITAL CHARGES
--------------------------------
  0 C s       :     3.188195  s :     3.188195
      pz      :     1.031534  p :     2.760359
      px      :     0.820317
      py      :     0.908509
      dz2     :     0.010706  d :     0.080363
      dxz     :     0.015001
      dyz     :     0.018822
      dx2y2   :     0.014756
      dxy     :     0.021079
  1 C s       :     3.236122  s :     3.236122
      pz      :     1.021845  p :     2.924965
      px      :     0.924928
      py      :     0.978191
      dz2     :     0.009355  d :     0.064550
      dxz     :     0.011659
      dyz     :     0.018001
      dx2y2   :     0.009086
      dxy     :     0.016448
  2 H s       :     0.714035  s :     0.714035
      pz      :     0.011615  p :     0.028200
      px      :     0.008509
      py      :     0.008076
  3 H s       :     0.714649  s :     0.714649
      pz      :     0.011321  p :     0.028199
      px      :     0.006757
      py      :     0.010121
  4 N s       :     3.601478  s :     3.601478
      pz      :     1.242804  p :     4.033670
      px      :     1.471941
      py      :     1.318925
      dz2     :     0.007774  d :     0.056427
      dxz     :     0.009332
      dyz     :     0.017704
      dx2y2   :     0.010009
      dxy     :     0.011607
  5 C s       :     3.232416  s :     3.232416
      pz      :     1.029577  p :     2.947181
      px      :     0.931469
      py      :     0.986135
      dz2     :     0.009432  d :     0.065369
      dxz     :     0.011972
      dyz     :     0.018035
      dx2y2   :     0.009368
      dxy     :     0.016561
  6 H s       :     0.879026  s :     0.879026
      pz      :     0.007314  p :     0.015197
      px      :     0.003332
      py      :     0.004551
  7 H s       :     0.881401  s :     0.881401
      pz      :     0.005818  p :     0.015182
      px      :     0.003487
      py      :     0.005877
  8 C s       :     3.231623  s :     3.231623
      pz      :     1.057784  p :     2.913753
      px      :     0.894794
      py      :     0.961174
      dz2     :     0.010674  d :     0.064540
      dxz     :     0.011242
      dyz     :     0.016481
      dx2y2   :     0.009403
      dxy     :     0.016740
  9 H s       :     0.865599  s :     0.865599
      pz      :     0.007347  p :     0.015270
      px      :     0.003304
      py      :     0.004619
 10 H s       :     0.863384  s :     0.863384
      pz      :     0.005902  p :     0.015274
      px      :     0.003565
      py      :     0.005807
 11 C s       :     3.209897  s :     3.209897
      pz      :     0.804470  p :     2.756427
      px      :     1.038772
      py      :     0.913185
      dz2     :     0.019914  d :     0.086022
      dxz     :     0.014483
      dyz     :     0.022210
      dx2y2   :     0.010724
      dxy     :     0.018690
 12 H s       :     0.843205  s :     0.843205
      pz      :     0.008022  p :     0.015232
      px      :     0.003223
      py      :     0.003986
 13 H s       :     0.850167  s :     0.850167
      pz      :     0.005728  p :     0.015294
      px      :     0.003326
      py      :     0.006240
 14 C s       :     2.953765  s :     2.953765
      pz      :     0.766634  p :     2.135847
      px      :     0.650626
      py      :     0.718587
      dz2     :     0.023530  d :     0.156384
      dxz     :     0.012406
      dyz     :     0.059281
      dx2y2   :     0.023738
      dxy     :     0.037429
 15 H s       :     0.588362  s :     0.588362
      pz      :     0.020628  p :     0.042656
      px      :     0.010837
      py      :     0.011191
 16 N s       :     3.596100  s :     3.596100
      pz      :     1.488327  p :     4.017023
      px      :     1.266260
      py      :     1.262436
      dz2     :     0.011037  d :     0.056566
      dxz     :     0.008562
      dyz     :     0.013299
      dx2y2   :     0.006825
      dxy     :     0.016843
 17 O s       :     3.832600  s :     3.832600
      pz      :     1.349322  p :     4.742748
      px      :     1.751345
      py      :     1.642081
      dz2     :     0.006837  d :     0.048332
      dxz     :     0.006441
      dyz     :     0.016717
      dx2y2   :     0.008313
      dxy     :     0.010025
 18 H s       :     0.868236  s :     0.868236
      pz      :     0.005815  p :     0.014819
      px      :     0.003164
      py      :     0.005839
 19 H s       :     0.868765  s :     0.868765
      pz      :     0.007334  p :     0.014812
      px      :     0.003009
      py      :     0.004469
 20 H s       :     0.690741  s :     0.690741
      pz      :     0.007279  p :     0.028197
      px      :     0.010615
      py      :     0.010303
 21 O s       :     3.870269  s :     3.870269
      pz      :     1.759693  p :     4.641356
      px      :     1.512917
      py      :     1.368746
      dz2     :     0.008004  d :     0.054377
      dxz     :     0.004744
      dyz     :     0.012490
      dx2y2   :     0.012707
      dxy     :     0.016431
 22 H s       :     0.826210  s :     0.826210
      pz      :     0.003075  p :     0.014896
      px      :     0.006612
      py      :     0.005209
 23 H s       :     0.696176  s :     0.696176
      pz      :     0.008113  p :     0.028094
      px      :     0.012213
      py      :     0.007768


                     *******************************
                     * LOEWDIN POPULATION ANALYSIS *
                     *******************************

----------------------
LOEWDIN ATOMIC CHARGES
----------------------
   0 C :   -0.046343
   1 C :   -0.128895
   2 H :    0.121990
   3 H :    0.121675
   4 N :   -0.294405
   5 C :   -0.120041
   6 H :    0.056801
   7 H :    0.055638
   8 C :   -0.104393
   9 H :    0.061348
  10 H :    0.063039
  11 C :   -0.031215
  12 H :    0.074084
  13 H :    0.069434
  14 C :    0.201213
  15 H :    0.198773
  16 N :   -0.271461
  17 O :   -0.202423
  18 H :    0.060718
  19 H :    0.060392
  20 H :    0.131547
  21 O :   -0.292006
  22 H :    0.082983
  23 H :    0.131547

-------------------------------
LOEWDIN REDUCED ORBITAL CHARGES
-------------------------------
  0 C s       :     2.879415  s :     2.879415
      pz      :     1.060448  p :     3.022882
      px      :     0.960642
      py      :     1.001792
      dz2     :     0.017234  d :     0.144046
      dxz     :     0.026814
      dyz     :     0.031774
      dx2y2   :     0.027842
      dxy     :     0.040382
  1 C s       :     2.899461  s :     2.899461
      pz      :     1.056848  p :     3.119003
      px      :     1.017841
      py      :     1.044315
      dz2     :     0.014822  d :     0.110431
      dxz     :     0.019855
      dyz     :     0.029986
      dx2y2   :     0.015333
      dxy     :     0.030435
  2 H s       :     0.793206  s :     0.793206
      pz      :     0.035394  p :     0.084804
      px      :     0.025005
      py      :     0.024404
  3 H s       :     0.793548  s :     0.793548
      pz      :     0.032345  p :     0.084778
      px      :     0.021288
      py      :     0.031145
  4 N s       :     3.188658  s :     3.188658
      pz      :     1.236303  p :     4.020961
      px      :     1.461091
      py      :     1.323567
      dz2     :     0.011130  d :     0.084786
      dxz     :     0.014378
      dyz     :     0.027300
      dx2y2   :     0.014138
      dxy     :     0.017840
  5 C s       :     2.886479  s :     2.886479
      pz      :     1.057659  p :     3.122131
      px      :     1.016187
      py      :     1.048285
      dz2     :     0.014926  d :     0.111431
      dxz     :     0.020405
      dyz     :     0.029785
      dx2y2   :     0.015880
      dxy     :     0.030436
  6 H s       :     0.899347  s :     0.899347
      pz      :     0.021062  p :     0.043852
      px      :     0.009573
      py      :     0.013217
  7 H s       :     0.900611  s :     0.900611
      pz      :     0.016733  p :     0.043751
      px      :     0.009923
      py      :     0.017096
  8 C s       :     2.891122  s :     2.891122
      pz      :     1.070230  p :     3.102913
      px      :     0.997609
      py      :     1.035074
      dz2     :     0.017094  d :     0.110358
      dxz     :     0.019078
      dyz     :     0.026570
      dx2y2   :     0.016457
      dxy     :     0.031159
  9 H s       :     0.894066  s :     0.894066
      pz      :     0.021547  p :     0.044586
      px      :     0.009685
      py      :     0.013353
 10 H s       :     0.892195  s :     0.892195
      pz      :     0.017138  p :     0.044766
      px      :     0.010535
      py      :     0.017093
 11 C s       :     2.870092  s :     2.870092
      pz      :     0.956054  p :     3.001922
      px      :     1.051544
      py      :     0.994325
      dz2     :     0.038327  d :     0.159201
      dxz     :     0.025839
      dyz     :     0.043481
      dx2y2   :     0.017779
      dxy     :     0.033775
 12 H s       :     0.880935  s :     0.880935
      pz      :     0.023559  p :     0.044980
      px      :     0.009416
      py      :     0.012005
 13 H s       :     0.885528  s :     0.885528
      pz      :     0.016732  p :     0.045038
      px      :     0.009458
      py      :     0.018848
 14 C s       :     2.851598  s :     2.851598
      pz      :     0.913005  p :     2.618694
      px      :     0.709921
      py      :     0.995768
      dz2     :     0.048036  d :     0.328495
      dxz     :     0.023260
      dyz     :     0.128947
      dx2y2   :     0.054760
      dxy     :     0.073491
 15 H s       :     0.678400  s :     0.678400
      pz      :     0.057008  p :     0.122827
      px      :     0.031407
      py      :     0.034412
 16 N s       :     3.183453  s :     3.183453
      pz      :     1.485521  p :     4.002865
      px      :     1.248132
      py      :     1.269212
      dz2     :     0.015814  d :     0.085142
      dxz     :     0.012563
      dyz     :     0.020779
      dx2y2   :     0.009647
      dxy     :     0.026340
 17 O s       :     3.455664  s :     3.455664
      pz      :     1.335258  p :     4.674255
      px      :     1.706657
      py      :     1.632340
      dz2     :     0.013371  d :     0.072504
      dxz     :     0.010987
      dyz     :     0.025956
      dx2y2   :     0.010105
      dxy     :     0.012086
 18 H s       :     0.896684  s :     0.896684
      pz      :     0.016563  p :     0.042598
      px      :     0.008882
      py      :     0.017152
 19 H s       :     0.897044  s :     0.897044
      pz      :     0.021539  p :     0.042565
      px      :     0.007962
      py      :     0.013064
 20 H s       :     0.782416  s :     0.782416
      pz      :     0.023037  p :     0.086037
      px      :     0.031306
      py      :     0.031694
 21 O s       :     3.544577  s :     3.544577
      pz      :     1.726103  p :     4.666008
      px      :     1.481190
      py      :     1.458715
      dz2     :     0.012347  d :     0.081421
      dxz     :     0.004867
      dyz     :     0.019463
      dx2y2   :     0.025904
      dxy     :     0.018840
 22 H s       :     0.872831  s :     0.872831
      pz      :     0.008898  p :     0.044185
      px      :     0.019406
[...]
  1 C s       :     2.900722  s :     2.900722
      pz      :     1.064408  p :     3.134267
      px      :     1.020600
      py      :     1.049259
      dz2     :     0.014193  d :     0.105089
      dxz     :     0.018321
      dyz     :     0.028806
      dx2y2   :     0.016194
      dxy     :     0.027576
  2 H s       :     0.794924  s :     0.794924
      pz      :     0.034739  p :     0.083497
      px      :     0.023889
      py      :     0.024869
  3 H s       :     0.795306  s :     0.795306
      pz      :     0.030947  p :     0.083484
      px      :     0.021650
      py      :     0.030887
  4 N s       :     3.201830  s :     3.201830
      pz      :     1.229054  p :     3.998173
      px      :     1.456651
      py      :     1.312468
      dz2     :     0.010703  d :     0.082180
      dxz     :     0.013253
      dyz     :     0.026941
      dx2y2   :     0.014474
      dxy     :     0.016809
  5 C s       :     2.887793  s :     2.887793
      pz      :     1.066765  p :     3.136195
      px      :     1.016308
      py      :     1.053122
      dz2     :     0.014216  d :     0.105089
      dxz     :     0.018407
      dyz     :     0.028452
      dx2y2   :     0.016509
      dxy     :     0.027505
  6 H s       :     0.895678  s :     0.895678
      pz      :     0.020599  p :     0.043623
      px      :     0.009448
      py      :     0.013576
  7 H s       :     0.897488  s :     0.897488
      pz      :     0.016672  p :     0.043543
      px      :     0.009809
      py      :     0.017062
  8 C s       :     2.893755  s :     2.893755
      pz      :     1.073952  p :     3.115244
      px      :     1.003010
      py      :     1.038282
      dz2     :     0.015267  d :     0.104631
      dxz     :     0.018565
      dyz     :     0.026149
      dx2y2   :     0.016117
      dxy     :     0.028532
  9 H s       :     0.890915  s :     0.890915
      pz      :     0.020939  p :     0.044262
      px      :     0.009537
      py      :     0.013786
 10 H s       :     0.886205  s :     0.886205
      pz      :     0.017460  p :     0.044581
      px      :     0.010216
      py      :     0.016905
 11 C s       :     2.873517  s :     2.873517
      pz      :     0.974374  p :     3.024665
      px      :     1.049172
      py      :     1.001119
      dz2     :     0.032557  d :     0.151462
      dxz     :     0.028876
      dyz     :     0.039922
      dx2y2   :     0.017489
      dxy     :     0.032617
 12 H s       :     0.879354  s :     0.879354
      pz      :     0.022261  p :     0.044561
      px      :     0.009518
      py      :     0.012782
 13 H s       :     0.883804  s :     0.883804
      pz      :     0.017127  p :     0.044673
      px      :     0.009741
      py      :     0.017806
 14 C s       :     2.863569  s :     2.863569
      pz      :     0.923029  p :     2.688722
      px      :     0.792119
      py      :     0.973574
      dz2     :     0.044431  d :     0.305084
      dxz     :     0.022716
      dyz     :     0.112043
      dx2y2   :     0.054634
      dxy     :     0.071260
 15 H s       :     0.691512  s :     0.691512
      pz      :     0.053708  p :     0.120470
      px      :     0.029701
      py      :     0.037061
 16 N s       :     3.198583  s :     3.198583
      pz      :     1.420670  p :     3.979583
      px      :     1.316745
      py      :     1.242167
      dz2     :     0.013464  d :     0.082993
      dxz     :     0.014027
      dyz     :     0.022331
      dx2y2   :     0.011993
      dxy     :     0.021179
 17 O s       :     3.481770  s :     3.481770
      pz      :     1.358588  p :     4.624473
      px      :     1.656355
      py      :     1.609530
      dz2     :     0.012109  d :     0.072072
      dxz     :     0.011260
      dyz     :     0.024128
      dx2y2   :     0.010747
      dxy     :     0.013829
 18 H s       :     0.892892  s :     0.892892
      pz      :     0.016668  p :     0.042605
      px      :     0.008682
      py      :     0.017254
 19 H s       :     0.893553  s :     0.893553
      pz      :     0.020966  p :     0.042569
      px      :     0.008021
      py      :     0.013582
 20 H s       :     0.785184  s :     0.785184
      pz      :     0.024420  p :     0.085056
      px      :     0.026402
      py      :     0.034233
 21 O s       :     3.561156  s :     3.561156
      pz      :     1.670111  p :     4.588955
      px      :     1.462503
      py      :     1.456341
      dz2     :     0.011581  d :     0.078766
      dxz     :     0.005402
      dyz     :     0.019790
      dx2y2   :     0.023734
      dxy     :     0.018260
 22 H s       :     0.870764  s :     0.870764
      pz      :     0.009816  p :     0.044611
      px      :     0.019080
      py      :     0.015715
 23 H s       :     0.786465  s :     0.786465
      pz      :     0.025028  p :     0.083801
      px      :     0.038114
      py      :     0.020659


                      *****************************
                      * MAYER POPULATION ANALYSIS *
                      *****************************

  NA   - Mulliken gross atomic population
  ZA   - Total nuclear charge
  QA   - Mulliken gross atomic charge
  VA   - Mayer's total valence
  BVA  - Mayer's bonded valence
  FA   - Mayer's free valence

  ATOM       NA         ZA         QA         VA         BVA        FA
  0 C      6.0643     6.0000    -0.0643     3.9388     3.6833     0.2555
  1 C      6.2138     6.0000    -0.2138     3.9298     3.6638     0.2660
  2 H      0.7554     1.0000     0.2446     0.9231     0.8766     0.0465
  3 H      0.7561     1.0000     0.2439     0.9234     0.8769     0.0465
  4 N      7.6249     7.0000    -0.6249     3.0195     2.6996     0.3198
  5 C      6.2289     6.0000    -0.2289     3.9354     3.6676     0.2678
  6 H      0.9003     1.0000     0.0997     0.9649     0.9152     0.0497
  7 H      0.9039     1.0000     0.0961     0.9653     0.9154     0.0499
  8 C      6.1921     6.0000    -0.1921     3.9085     3.6412     0.2673
  9 H      0.8893     1.0000     0.1107     0.9649     0.9152     0.0497
 10 H      0.8808     1.0000     0.1192     0.9613     0.9122     0.0490
 11 C      6.0699     6.0000    -0.0699     3.9039     3.6293     0.2747
 12 H      0.8705     1.0000     0.1295     0.9613     0.9129     0.0484
 13 H      0.8769     1.0000     0.1231     0.9618     0.9128     0.0490
 14 C      5.4335     6.0000     0.5665     3.9442     3.6651     0.2791
 15 H      0.6577     1.0000     0.3423     0.9020     0.8582     0.0438
 16 N      7.6057     7.0000    -0.6057     3.0303     2.7078     0.3225
 17 O      8.5254     8.0000    -0.5254     2.1965     1.8444     0.3521
 18 H      0.8874     1.0000     0.1126     0.9590     0.9116     0.0474
 19 H      0.8886     1.0000     0.1114     0.9590     0.9116     0.0475
 20 H      0.7351     1.0000     0.2649     0.9252     0.8795     0.0457
 21 O      8.4425     8.0000    -0.4425     2.3158     1.9262     0.3896
 22 H      0.8550     1.0000     0.1450     0.9535     0.9054     0.0480
 23 H      0.7420     1.0000     0.2580     0.9175     0.8714     0.0462

  Mayer bond orders larger than 0.100000
B(  0-C ,  1-C ) :   0.9219 B(  0-C ,  4-N ) :   0.9368 B(  0-C , 18-H ) :   0.9294 
B(  0-C , 19-H ) :   0.9295 B(  1-C ,  5-C ) :   0.9290 B(  1-C ,  6-H ) :   0.9263 
B(  1-C ,  7-H ) :   0.9265 B(  2-H ,  4-N ) :   0.8796 B(  3-H ,  4-N ) :   0.8799 
B(  5-C ,  8-C ) :   0.9323 B(  5-C ,  9-H ) :   0.9208 B(  5-C , 10-H ) :   0.9214 
B(  8-C , 11-C ) :   0.9105 B(  8-C , 12-H ) :   0.9202 B(  8-C , 13-H ) :   0.9186 
B( 11-C , 14-C ) :   0.8695 B( 11-C , 16-N ) :   0.9711 B( 11-C , 22-H ) :   0.9107 
B( 14-C , 17-O ) :   0.9850 B( 14-C , 21-O ) :   1.8008 B( 15-H , 17-O ) :   0.8125 
B( 16-N , 20-H ) :   0.8604 B( 16-N , 23-H ) :   0.8735 


----------------------------------
MP2 DERIVATIVE INTEGRAL GENERATION
----------------------------------

Input SCF Electron Density              ... 5.scfp
Input Correlated Electron Density       ... 5.pmp2re
Input Energy Weighted Density           ... 5.wmp2.tmp
Input Wavefunction Amplitudes           ... 5.mp2tsaa.tmp

Nuclear repulsion gradient              ... done (  0.0 sec)
HCore & Overlap gradient  (SHARK)       ... done (  0.2 sec)
Analytic two-electron gradient terms    ... 
  Batch handling in the gradient evaluation:
  General contraction                   ... not used
  Memory available                      ... 4080.1 MB
  Memory per occupied orbital in Q2     ...   10.1 MB
  Memory per occupied orbital in Q3     ...    0.0 MB
  Total memory requirement per |i>      ...   10.1 MB
  Number of orbitals treated per batch  ...     30
  Number of batches to be done          ...      1
done ( 29.7 sec)

---------------------------------------
MP2 TOTAL ENERGY:     -495.553964848 Eh
---------------------------------------

The final MP2 gradient
  0:   0.00007004  -0.00007582  -0.00002286
  1:  -0.00001967   0.00005052   0.00001383
  2:   0.00000854  -0.00000278  -0.00000095
  3:   0.00000522  -0.00001542   0.00000668
  4:  -0.00006167   0.00003970   0.00000844
  5:   0.00000463  -0.00005919  -0.00001610
  6:  -0.00000292  -0.00002054  -0.00000825
  7:   0.00000151  -0.00001263   0.00000440
  8:   0.00000524   0.00001388  -0.00001395
  9:   0.00000602   0.00001763   0.00000456
 10:  -0.00000563   0.00001213  -0.00000435
 11:   0.00002184   0.00004657   0.00004149
 12:  -0.00000242  -0.00000047   0.00000376
 13:   0.00000763  -0.00000845   0.00000601
 14:  -0.00003318   0.00007983  -0.00003675
 15:  -0.00000123  -0.00000324  -0.00000386
 16:   0.00000022  -0.00004677  -0.00001473
 17:   0.00001565   0.00001632   0.00002375
 18:  -0.00001443   0.00001863  -0.00000112
 19:  -0.00000526   0.00003453   0.00001355
 20:  -0.00000254   0.00001008  -0.00000116
 21:   0.00000220  -0.00009335   0.00001782
 22:   0.00000180  -0.00001857  -0.00001695
 23:  -0.00000159   0.00001743  -0.00000326

-----------------------------------
NORM OF THE MP2 GRADIENT:  0.000234
-----------------------------------

Maximum memory used throughout the entire MP2-calculation: 1139.6 MB

-------------------------   --------------------
FINAL SINGLE POINT ENERGY      -495.553964847858
-------------------------   --------------------

                                *** OPTIMIZATION RUN DONE ***


------------------------------------------------------------------------------
                              ORCA PROPERTY CALCULATIONS
------------------------------------------------------------------------------

GBWName                                 ... 5.gbw
Number of atoms                         ...     24
Number of basis functions               ...    210
Max core memory                         ...   4096 MB

Electric properties:
Dipole moment                           ... YES
Quadrupole moment                       ...  NO
Static polarizability (Dipole/Dipole)   ...  NO
Static polarizability (Dipole/Quad.)    ...  NO
Static polarizability (Quad./Quad.)     ...  NO
Static polarizability (Velocity)        ...  NO
Static hyperpolarizability              ...  NO

Atomic electric properties:
Dipole moment                           ...  NO
Quadrupole moment                       ...  NO
Static polarizability                   ...  NO

Choice of electric origin               ... Center of mass
Position of electric origin             ...   -20.308984    10.865580     1.245475

General magnetic properties:
Magnetizability                         ...  NO

EPR properties:
g-Tensor (aka g-matrix)                 ...  NO
Zero-Field splitting spin-orbit         ...  NO
Zero-field splitting spin-spin          ...  NO
Hyperfine couplings                     ...  NO (   0 nuclei)
Quadrupole couplings                    ...  NO (   0 nuclei)
Contact density                         ...  NO (   0 nuclei)

NMR properties:
Chemical shifts                         ...  NO (   0 nuclei)
Spin-rotation constants                 ...  NO (   0 nuclei)
Spin-spin couplings                     ...  NO (   0 nuclei,    0 pairs)

Choice of magnetic origin               ... GIAO
Position of magnetic origin             ...     0.000000     0.000000     0.000000

Properties with geometric perturbations:
SCF Hessian                             ...  NO
IR spectrum                             ...  NO
VCD spectrum                            ...  NO
X-ray spectroscopy properties:
SCF XES/XAS/RIXS spectra                ...  NO

SCF SOC stabilization energy            ...  NO
Diagonal Born-Oppenheimer correction    ...  NO

-------------
DIPOLE MOMENT
-------------

Method             : SCF
Type of density    : Electron Density
Multiplicity       :   1
Irrep              :   0
Energy             :  -494.0174800320935447 Eh
Basis              : AO
                                X                 Y                 Z
Electronic contribution:     11.423623534      -4.146821093       1.407570424
Nuclear contribution   :    -10.672952877       4.907152065      -1.351693427
                        -----------------------------------------
Total Dipole Moment    :      0.750670656       0.760330973       0.055876997
                        -----------------------------------------
Magnitude (a.u.)       :      1.069921428
Magnitude (Debye)      :      2.719524145



--------------------
Rotational spectrum 
--------------------
 
Rotational constants in cm-1:             0.078230             0.017329             0.016420 
Rotational constants in MHz :          2345.288419           519.519756           492.254742 

Dipole components along the rotational axes: 
x,y,z [a.u.] :     0.501524     0.243678     0.913141 
x,y,z [Debye]:     1.274773     0.619380     2.321020 

 

-------------
DIPOLE MOMENT
-------------

Method             : MP2
Type of density    : Electron Density
Multiplicity       :   1
Level              : Unrelaxed density
Irrep              :   0
Energy             :     0.0000000000000000 Eh
Basis              : AO
                                X                 Y                 Z
Electronic contribution:     11.414041980      -4.180766149       1.420308512
Nuclear contribution   :    -10.672952877       4.907152065      -1.351693427
                        -----------------------------------------
Total Dipole Moment    :      0.741089102       0.726385916       0.068615085
                        -----------------------------------------
Magnitude (a.u.)       :      1.039979609
Magnitude (Debye)      :      2.643418090



--------------------
Rotational spectrum 
--------------------
 
Rotational constants in cm-1:             0.078230             0.017329             0.016420 
Rotational constants in MHz :          2345.288419           519.519756           492.254742 

Dipole components along the rotational axes: 
x,y,z [a.u.] :     0.499522     0.252056     0.876643 
x,y,z [Debye]:     1.269685     0.640676     2.228249 

 

-------------
DIPOLE MOMENT
-------------

Method             : MP2
Type of density    : Electron Density
Multiplicity       :   1
Level              : Relaxed density
Irrep              :   0
Energy             :     0.0000000000000000 Eh
Basis              : AO
                                X                 Y                 Z
Electronic contribution:     11.401397523      -4.306239836       1.486239938
Nuclear contribution   :    -10.672952877       4.907152065      -1.351693427
                        -----------------------------------------
Total Dipole Moment    :      0.728444645       0.600912229       0.134546511
                        -----------------------------------------
Magnitude (a.u.)       :      0.953850026
Magnitude (Debye)      :      2.424494088



--------------------
Rotational spectrum 
--------------------
 
Rotational constants in cm-1:             0.078230             0.017329             0.016420 
Rotational constants in MHz :          2345.288419           519.519756           492.254742 

Dipole components along the rotational axes: 
x,y,z [a.u.] :     0.510849     0.305620     0.745292 
x,y,z [Debye]:     1.298475     0.776825     1.894381 

 

Dipole moment calculation done in   0.0 sec 

Maximum memory used throughout the entire PROP-calculation: 11.3 MB

--------------------------------
SUGGESTED CITATIONS FOR THIS RUN
--------------------------------

Below you find a list of papers that are relevant to this ORCA run
We neither can nor want to force you to cite these papers, but we appreciate if you do
You receive ORCA, which is the product of decades of hard work by many enthusiastic individuals, for free
The only thing we kindly ask in return is that you cite our papers,
We deeply appreciate it, if you show your appreciation for ORCA by not just citing the generic ORCA reference.

Please note that relegating all ORCA citations to the supporting information does *not* help us.
SI sections are not indexed - citations you put there will not count into any citation statistics
But we need these citations in order to attract the funding resources that allow us to do what we are doing

Therefore, if you are a happy ORCA user, please consider citing a few of the papers listed below in the main body of your paper

In addition to the list printed below, the program has created the file 5.bibtex that contains the list in bibtex format
You can import this file easily into all common literature databanks and citation aid programs


List of essential papers. We consider these as the minimum necessary citations

  1. Neese, F.
     Software update: the ORCA program system, version 6.0
     WIRES Comput. Molec. Sci. 2025 15(1), e70019
     doi.org/10.1002/wcms.7019

List of papers to cite with high priority. The work reported in these papers was absolutely
necessary for this run to complete.
Our perspective: the developers of density functionals and basis sets usually get cited in chemistry papers
Good! But without the algorithms to do something with them, the functionals or basis sets would not do anything.
Hence, in our opinion, the algorithm design and method developments papers are equally worthy of getting cited

  1. Neese, F.
     The SHARK Integral Generation and Digestion System
     J. Comp. Chem. 2022 44(3), 381
     doi.org/10.1002/jcc.26942

List of suggested additional citations. These are papers that are important in the 'surrounding' of 
of this run, or papers that preceded the highly important papers. If you like your results we are grateful for a citation.

  1. Neese, F.
     The ORCA program system
     WIRES Comput. Molec. Sci. 2012 2(1), 73-78
     doi.org/10.1002/wcms.81
  2. Neese, F.
     Software update: the ORCA program system, version 4.0
     WIRES Comput. Molec. Sci. 2018 8(1), 1-6
     doi.org/10.1002/wcms.1327
  3. Neese, F.; Wennmohs, F.; Becker, U.; Riplinger, C.
     The ORCA quantum chemistry program package
     J. Chem. Phys. 2020 152(22), 224108
     doi.org/10.1063/5.0004608
  4. Neese, F.
     Software update: The ORCA program system—Version 5.0
     WIRES Comput. Molec. Sci. 2022 12(1), e1606
     doi.org/10.1002/wcms.1606

List of optional additional citations

  1. Neese, F.
     Approximate second-order SCF convergence for spin unrestricted wavefunctions
     Chem. Phys. Lett. 2000 325(1-3), 93-98
     doi.org/10.1016/s0009-2614(00)00662-x

Timings for individual modules:

Sum of individual times          ...     1011.657 sec (=  16.861 min)
Startup calculation              ...        5.017 sec (=   0.084 min)   0.5 %
SCF iterations                   ...      183.242 sec (=   3.054 min)  18.1 %
Property calculations            ...        0.047 sec (=   0.001 min)   0.0 %
MP2 module                       ...      823.332 sec (=  13.722 min)  81.4 %
Geometry relaxation              ...        0.019 sec (=   0.000 min)   0.0 %
                             ****ORCA TERMINATED NORMALLY****
TOTAL RUN TIME: 0 days 0 hours 16 minutes 51 seconds 880 msec
