
                                 *****************
                                 * O   R   C   A *
                                 *****************

                                            #,                                       
                                            ###                                      
                                            ####                                     
                                            #####                                    
                                            ######                                   
                                           ########,                                 
                                     ,,################,,,,,                         
                               ,,#################################,,                 
                          ,,##########################################,,             
                       ,#########################################, ''#####,          
                    ,#############################################,,   '####,        
                  ,##################################################,,,,####,       
                ,###########''''           ''''###############################       
              ,#####''   ,,,,##########,,,,          '''####'''          '####       
            ,##' ,,,,###########################,,,                        '##       
           ' ,,###''''                  '''############,,,                           
         ,,##''                                '''############,,,,        ,,,,,,###''
      ,#''                                            '''#######################'''  
     '                                                          ''''####''''         
             ,#######,   #######,   ,#######,      ##                                
            ,#'     '#,  ##    ##  ,#'     '#,    #''#        ,####,    ,#,          
            ##       ##  ##   ,#'  ##            #'  '#       #'       ,# #          
            ##       ##  #######   ##           ,######,      #####,      #          
            '#,     ,#'  ##    ##  '#,     ,#' ,#      #,     #,   #      #          
             '#######'   ##     ##  '#######'  #'      '#     '####' #    #          



                #########################################################
                #                        -***-                          #
                #          Department of theory and spectroscopy        #
                #                                                       #
                #                      Frank Neese                      #
                #                                                       #
                #     Directorship, Architecture, Infrastructure        #
                #                    SHARK, DRIVERS                     #
                #        Core code/Algorithms in most modules           #
                #                                                       #
                #        Max Planck Institute fuer Kohlenforschung      #
                #                Kaiser Wilhelm Platz 1                 #
                #                 D-45470 Muelheim/Ruhr                 #
                #                      Germany                          #
                #                                                       #
                #                  All rights reserved                  #
                #                        -***-                          #
                #########################################################


                         Program Version 6.1.0  -  RELEASE   -
                                (GIT: $679e74b$)
                          ($2025-06-10 18:02:51 +0200$)


 With contributions from (in alphabetic order):
[Max-Planck-Institut fuer Kohlenforschung]                               
  Daniel Aravena         : Magnetic Suceptibility                        
  Michael Atanasov       : Ab Initio Ligand Field Theory (pilot matlab implementation)
  Alexander A. Auer      : GIAO ZORA, VPT2 properties, NMR spectrum      
  Ute Becker             : All parallelization in ORCA, NUMFREQ, NUMCALC 
  Giovanni Bistoni       : ED, misc. LED, open-shell LED, HFLD           
  Dmytro Bykov           : pre 5.0 version of the SCF Hessian            
  Marcos Casanova-Páez   : Triplet and SCS-CIS(D). UHF-(DLPNO)-IP/EA/STEOM-CCSD. UHF-CVS-IP/STEOM-CCSD   
  Vijay G. Chilkuri      : MRCI spin determinant printing, contributions to CSF-ICE 
  Pauline Colinet        : FMM embedding                                 
  Dipayan Datta          : RHF DLPNO-CCSD density                        
  Achintya Kumar Dutta   : EOM-CC, STEOM-CC                              
  Nicolas Foglia         : Exact transition moments, OPA infrastructure, MCD improvements    
  Dmitry Ganyushin       : Spin-Orbit,Spin-Spin,Magnetic field MRCI      
  Miquel Garcia-Rates    : C-PCM and meta-GGA Hessian, CCSD/C-PCM, Gaussian charge scheme 
  Tiago L. C. Gouveia    : GS-ROHF, GS-ROCIS                             
  Yang Guo               : DLPNO-NEVPT2, F12-NEVPT2, CIM, IAO-localization        
  Andreas Hansen         : Spin unrestricted coupled pair/coupled cluster methods 
  Ingolf Harden          : AUTO-CI MPn and infrastructure                
  Benjamin Helmich-Paris : MC-RPA, TRAH-(SCF,CASSCF), AVAS, COSX integrals, SCF dyn. polar., MC-PDFT, srDFT 
  Lee Huntington         : MR-EOM, pCC                                   
  Robert Izsak           : Overlap fitted RIJCOSX, COSX-SCS-MP3, EOM     
  Riya Kayal             : Wick's Theorem for AUTO-CI, AUTO-CI UHF-CCSDT 
  Emily Kempfer          : AUTO-CI RHF CISDT and CCSDT, approximate NEVPT4
  Christian Kollmar      : KDIIS, OOCD, Brueckner-CCSD(T), CCSD density, CASPT2, CASPT2-K, improved NEVPT2 
  Axel Koslowski         : Symmetry handling                             
  Simone Kossmann        : meta-GGA functionals, TD-DFT gradient, OOMP2, (MP2 Hessian; deprecated post 5.0) 
  Lucas Lang             : DCDCAS, Hyperfine gauge corrections, ICE-SOC+SSC
  Marvin Lechner         : AUTO-CI (C++ implementation), FIC-MRCC        
  Spencer Leger          : CASSCF response                               
  Dagmar Lenk            : GEPOL surface, SMD, ORCA-2-JSON               
  Dimitrios Liakos       : Extrapolation schemes; Compound Job, Property file
  Dimitrios Manganas     : Further ROCIS development; embedding schemes. LFT, Crystal Embedding 
  Dimitrios Pantazis     : SARC Basis sets                               
  Anastasios Papadopoulos: AUTO-CI, single reference methods and gradients 
  Taras Petrenko         : pre 6.0 DFT Hessian and TD-DFT gradient,  ECA, NRVS 
  Petra Pikulova         : Analytic Raman intensities                    
  Peter Pinski           : DLPNO-MP2, DLPNO-MP2 Gradient                 
  Shashank Vittal Rao    : ES-AILFT, MagRelax                            
  Christoph Reimann      : Effective Core Potentials                     
  Marius Retegan         : Local ZFS, SOC                                
  Christoph Riplinger    : Optimizer, TS searches, QM/MM, DLPNO-CCSD(T), (RO)-DLPNO pert. Triples 
  Michael Roemelt        : Original ROCIS implementation, recursive CI coupling coefficients
  Masaaki Saitow         : Open-shell DLPNO-CCSD energy and density      
  Barbara Sandhoefer     : DKH picture change effects                    
  Yorick L. A. Schmerwitz: GMF and freeze-and-release deltaSCF, NEB S-IDPP initial path                    
  Kantharuban Sivalingam : CASSCF convergence/infrastructure, NEVPT2, NEVPT3, NEVPT4(SD), FIC-MRCI and CEPA variants
  Bernardo de Souza      : ESD, SOC TD-DFT                               
  Georgi L. Stoychev     : AutoAux, RI-MP2 NMR, DLPNO-MP2 response, X2C  
  Van Anh Tran           : RI-MP2 g-tensors                              
  Willem Van den Heuvel  : Paramagnetic NMR                              
  Zikuan Wang            : NOTCH, Electric field optimization            
  Frank Wennmohs         : Technical directorship and infrastructure     
  Hang Xu                : AUTO-CI-Response properties                   
                                                                         
[FACCTs GmbH]                                                            
  Markus Bursch, Nicolas Foglia, Miquel Garcia-Rates, Ingolf Harden, Hagen Neugebauer, Anastasios Papadopoulos, 
  Christoph Riplinger, Bernardo de Souza, Georgi L. Stoychev                                                    
                                                                 
  APM, various basis sets, CI-OPT, improved COSX, DLPNO-Multilevel,           
  DOCKER, DRACO, updates on ESD, Fragmentator, GOAT, IRC, LR-CPCM, L-BFGS, MBIS, meta-GGA TD-DFT gradient, ML-optimized integration grids, 
  MM, NACMEs, nearIR, NEB, NEB-TS, NL-DFT gradient (VV10), 2- and 3-layer-ONIOM, interface openCOSMO-RS, QMMM,   
  Crystal-QMMM, RESP, rigid body optimization, SF, symmetry and pop. for TD-DFT, various functionals, SOLVATOR                                   
                                                                         
[Other institutions]                                                     
  V. Asgeirsson          : NEB                                           
  Christoph Bannwarth    : sTDA-DFT, sTD-DFT, PBEh-3c, B97-3c, D3        
  Giovanni Bistoni       : ETS/NOCV, ADLD/ADEX, COVALED                  
  Martin Brehm           : Molecular dynamics                            
  Ronald Cardenas        : ETS/NOCV                                      
  Martina Colucci        : COVALED                                       
  Sebastian Ehlert       : rSCAN, r2SCAN, r2SCAN-3c, D4, dhf basis sets  
  Marvin Friede          : D4 for Fr, Ra, Ac-Lr                          
  Lars Goerigk           : TD-DFT with DH, B97 family of functionals     
  Stefan Grimme          : VdW corrections, initial TS optimization, DFT functionals, gCP, sTDA/sTD-DF 
  Waldemar Hujo          : DFT-NL                                        
  H. Jonsson             : NEB                                           
  Holger Kruse           : gCP                                           
  Marcel Mueller         : wB97X-3c, vDZP basis set                      
  Hagen Neugebauer       : wr2SCAN, Native XTB                           
  Gianluca Regni         : ADLD/ADEX                                     
  Tobias Risthaus        : pre 6.0 range-separated hybrid DFT and stability analysis
  Lukas Wittmann         : regularized MP2, r2SCAN double-hybrids, wr2SCAN        
                                                                         
We gratefully acknowledge several colleagues who have allowed us to      
interface, adapt or use parts of their codes:                            
  Ed Valeev, F. Pavosevic, A. Kumar             : LibInt (2-el integral package), F12 methods 
  Garnet Chan, S. Sharma, J. Yang, R. Olivares  : DMRG                   
  Ulf Ekstrom                                   : XCFun DFT Library      
  Mihaly Kallay                                 : mrcc  (arbitrary order and MRCC methods)
  Frank Weinhold                                : gennbo (NPA and NBO analysis)           
  Simon Mueller                                 : openCOSMO-RS                            
  Christopher J. Cramer and Donald G. Truhlar   : smd solvation model                     
  S Lehtola, MJT Oliveira, MAL Marques          : LibXC Library                           
  Liviu Ungur et al                             : ANISO software                          


 Your calculation uses the libint2 library for the computation of 2-el integrals
 For citations please refer to: http://libint.valeyev.net

 Your ORCA version has been built with support for libXC version: 7.0.0
 For citations please refer to: https://libxc.gitlab.io

 This ORCA versions uses:
   CBLAS   interface :  Fast vector & matrix operations
   LAPACKE interface :  Fast linear algebra routines
   SCALAPACK package :  Parallel linear algebra routines
   Shared memory     :  Shared parallel matrices
   BLAS/LAPACK       :  OpenBLAS 0.3.29  USE64BITINT DYNAMIC_ARCH NO_AFFINITY Haswell SINGLE_THREADED
        Core in use  :  Haswell
   Copyright (c) 2011-2014, The OpenBLAS Project


  ***********************************
  * Starting time: Sat Aug 30 16:28:02 2025
  * Host name:     chemlab03
  * Process ID:    82935
  * Working dir.:  /home/vivek/mm-project/vivek/xtb-goat/B97-D-opt/l/0
  ***********************************



***************************************
The coordinates will be read from file: /home/vivek/mm-project/vivek/xtb-goat/xtb-goat/l/L_CONF/0.xyz
***************************************


Your calculation utilizes empirical dispersion correction


Warning: RI is on but no J-basis has been assigned. Assigning Def2/J (nothing to worry about!)
================================================================================

----- Orbital basis set information -----
Your calculation utilizes the basis: 6-31G**
   H-He, Li-Ne : W. J. Hehre, R. Ditchfield and J.A. Pople, J. Chem. Phys. 56, 2257 (1972).
                 Note: He and Ne are unpublished basis sets taken from the Gaussian program.
                 Note: Li and B from J. D. Dill and J. A. Pople, J. Chem. Phys. 62, 2921 (1975).
   Na - Ar     : M. M. Francl, W. J. Pietro, W. J. Hehre, J. S. Binkley, M. S. Gordon, 
                 D. J. DeFrees and J. A. Pople, J. Chem. Phys. 77, 3654 (1982).
   K - Zn      : V. A. Rassolov, J. A. Pople, M. A. Ratner, and T. L. Windus, J. Chem. Phys. 109, 1223 (1998).

----- AuxJ basis set information -----
Your calculation utilizes the auxiliary basis: def2/J
   H-Rn: F. Weigend, Phys. Chem. Chem. Phys. 8, 1057 (2006).
   Fr-Lr: K. Eichkorn, F. Weigend, O. Treutler, R. Ahlrichs; Theor. Chem. Acc. 97, 119 (1997).

================================================================================
                                        WARNINGS
                       Please study these warnings very carefully!
================================================================================


WARNING: Geometry Optimization
  ===> : Switching off AutoStart
         For restart on a previous wavefunction, please use MOREAD

INFO   : The exchange functional is Grimme's B97(-D)
         As described in S. Grimme, J. Comput. Chem. 27, 1787 (2006).
         Note that this functional defaults to a pure GGA. 

INFO   : The correlation functional is Grimme's B97(-D)
         As described in S. Grimme, J. Comput. Chem. 27, 1787 (2006).

================================================================================
                                       INPUT FILE
================================================================================
NAME = 0.inp
|  1> ! B97-D 6-31G** opt
|  2> 
|  3> * xyzfile 0 1 /home/vivek/mm-project/vivek/xtb-goat/xtb-goat/l/L_CONF/0.xyz
|  4> 
|  5>                          ****END OF INPUT****
================================================================================

                       *****************************
                       * Geometry Optimization Run *
                       *****************************

Geometry optimization settings:
Update method            Update   .... BFGS
Choice of coordinates    CoordSys .... (2022) Redundant Internals
Initial Hessian          InHess   .... Almloef's Model
Max. no of cycles        MaxIter  .... 66

Convergence Tolerances:
Energy Change            TolE     ....  5.0000e-06 Eh
Max. Gradient            TolMAXG  ....  3.0000e-04 Eh/bohr
RMS Gradient             TolRMSG  ....  1.0000e-04 Eh/bohr
Max. Displacement        TolMAXD  ....  4.0000e-03 bohr
RMS Displacement         TolRMSD  ....  2.0000e-03 bohr
Strict Convergence                .... False

------------------------------------------------------------------------------
                        ORCA OPTIMIZATION COORDINATE SETUP
------------------------------------------------------------------------------

The optimization will be done in redundant internal coordinates (2022)
Making redundant internal coordinates   ...  (2022 redundants) done
Evaluating the initial hessian          ...  (Almloef) done
Evaluating the coordinates              ...  done
Calculating the B-matrix                .... done
Calculating the G-matrix                .... done
The number of degrees of freedom        ....   94

    -----------------------------------------------------------------
                    Redundant Internal Coordinates


    -----------------------------------------------------------------
         Definition                    Initial Value    Approx d2E/dq
    -----------------------------------------------------------------
      1. B(C   1,C   0)                  1.5230         0.383282   
      2. B(C   4,C   0)                  1.5382         0.362438   
      3. B(H   5,C   0)                  1.0946         0.354085   
      4. B(N   7,H   3)                  1.0159         0.423401   
      5. B(N   7,C   0)                  1.4486         0.451200   
      6. B(N   7,H   2)                  1.0145         0.425580   
      7. B(C   8,C   4)                  1.5322         0.370612   
      8. B(H   9,C   4)                  1.0930         0.356112   
      9. B(H  10,C   4)                  1.0914         0.358225   
     10. B(C  11,C   8)                  1.5272         0.377398   
     11. B(H  12,C  11)                  1.0875         0.363387   
     12. B(C  13,C   8)                  1.5260         0.379052   
     13. B(C  13,H   6)                  1.0884         0.362237   
     14. B(H  14,C  11)                  1.0883         0.362357   
     15. B(H  15,C  11)                  1.0874         0.363600   
     16. B(H  16,C   8)                  1.0936         0.355394   
     17. B(H  17,C  13)                  1.0862         0.365147   
     18. B(H  18,C  13)                  1.0874         0.363520   
     19. B(O  19,C   1)                  1.3380         0.677316   
     20. B(H  20,O  19)                  0.9708         0.499647   
     21. B(O  21,C   1)                  1.2033         1.111205   
     22. A(C   4,C   0,N   7)          110.2044         0.371034   
     23. A(C   1,C   0,H   5)          107.8404         0.324788   
     24. A(H   5,C   0,N   7)          108.8078         0.331644   
     25. A(C   4,C   0,H   5)          109.4817         0.321823   
     26. A(C   1,C   0,N   7)          112.4585         0.374626   
     27. A(C   1,C   0,C   4)          107.9882         0.363065   
     28. A(C   0,C   1,O  21)          124.5132         0.439262   
     29. A(C   0,C   1,O  19)          112.7263         0.402133   
     30. A(O  19,C   1,O  21)          122.7595         0.484158   
     31. A(H   9,C   4,H  10)          108.2486         0.290094   
     32. A(C   0,C   4,H  10)          108.8751         0.322436   
     33. A(C   8,C   4,H   9)          109.0280         0.323304   
     34. A(C   0,C   4,H   9)          107.9402         0.322124   
     35. A(C   0,C   4,C   8)          112.6931         0.360988   
     36. A(C   8,C   4,H  10)          109.9420         0.323618   
     37. A(C   0,N   7,H   2)          110.3188         0.339010   
     38. A(H   2,N   7,H   3)          106.9400         0.301405   
     39. A(C   0,N   7,H   3)          109.3103         0.338720   
     40. A(C  13,C   8,H  16)          108.8392         0.324393   
     41. A(C   4,C   8,H  16)          107.7218         0.323197   
     42. A(C  11,C   8,H  16)          109.1065         0.324160   
     43. A(C  11,C   8,C  13)          109.9740         0.364892   
     44. A(C   4,C   8,C  13)          111.4870         0.363761   
     45. A(C   4,C   8,C  11)          109.6520         0.363489   
     46. A(H  14,C  11,H  15)          108.3339         0.291568   
     47. A(H  12,C  11,H  15)          108.2459         0.291698   
     48. A(C   8,C  11,H  15)          110.4206         0.325379   
     49. A(H  12,C  11,H  14)          108.4141         0.291541   
     50. A(C   8,C  11,H  14)          110.4441         0.325196   
     51. A(C   8,C  11,H  12)          110.9000         0.325347   
     52. A(H   6,C  13,H  18)          108.3438         0.291543   
     53. A(C   8,C  13,H  17)          111.1229         0.325840   
     54. A(H   6,C  13,H  17)          108.6509         0.291748   
     55. A(H   6,C  13,C   8)          110.4941         0.325412   
     56. A(H  17,C  13,H  18)          107.9738         0.291910   
     57. A(C   8,C  13,H  18)          110.1691         0.325601   
     58. A(C   1,O  19,H  20)          110.4637         0.373224   
     59. D(O  19,C   1,C   0,H   5)     46.7738         0.010951   
     60. D(O  21,C   1,C   0,H   5)   -133.5864         0.010951   
     61. D(O  21,C   1,C   0,C   4)    108.1936         0.010951   
     62. D(O  19,C   1,C   0,N   7)    166.7417         0.010951   
     63. D(O  19,C   1,C   0,C   4)    -71.4462         0.010951   
     64. D(C   8,C   4,C   0,C   1)    177.9872         0.010529   
     65. D(C   8,C   4,C   0,H   5)     60.8234         0.010529   
     66. D(H   9,C   4,C   0,H   5)   -178.7233         0.010529   
     67. D(H   9,C   4,C   0,N   7)     61.6343         0.010529   
     68. D(C   8,C   4,C   0,N   7)    -58.8190         0.010529   
     69. D(H   9,C   4,C   0,C   1)    -61.5594         0.010529   
     70. D(H   2,N   7,C   0,H   5)     58.5673         0.017368   
     71. D(H   2,N   7,C   0,C   4)    178.6175         0.017368   
     72. D(H   3,N   7,C   0,C   1)     56.4822         0.017368   
     73. D(H   2,N   7,C   0,C   1)    -60.8386         0.017368   
     74. D(H   3,N   7,C   0,C   4)    -64.0618         0.017368   
     75. D(C  13,C   8,C   4,H  10)     49.5891         0.010978   
     76. D(C  13,C   8,C   4,H   9)    168.1111         0.010978   
     77. D(C  13,C   8,C   4,C   0)    -72.0618         0.010978   
     78. D(C  11,C   8,C   4,H  10)    -72.4425         0.010978   
     79. D(C  11,C   8,C   4,H   9)     46.0795         0.010978   
     80. D(C  11,C   8,C   4,C   0)    165.9066         0.010978   
     81. D(H  14,C  11,C   8,H  16)    178.5249         0.011360   
     82. D(H  14,C  11,C   8,C  13)    -62.1664         0.011360   
     83. D(H  14,C  11,C   8,C   4)     60.7648         0.011360   
     84. D(H  12,C  11,C   8,H  16)     58.3125         0.011360   
     85. D(H  12,C  11,C   8,C  13)    177.6211         0.011360   
     86. D(H  12,C  11,C   8,C   4)    -59.4477         0.011360   
     87. D(H   6,C  13,C   8,H  16)   -177.1731         0.011454   
     88. D(H   6,C  13,C   8,C  11)     63.3551         0.011454   
     89. D(H   6,C  13,C   8,C   4)    -58.4905         0.011454   
     90. D(H  17,C  13,C   8,H  16)    -56.4827         0.011454   
     91. D(H  17,C  13,C   8,C  11)   -175.9546         0.011454   
     92. D(H  17,C  13,C   8,C   4)     62.1999         0.011454   
     93. D(H  20,O  19,C   1,O  21)     -0.8730         0.034145   
     94. D(H  20,O  19,C   1,C   0)    178.7741         0.034145   
    -----------------------------------------------------------------

Number of atoms                         .... 22
Number of degrees of freedom            .... 94


         *************************************************************
         *                GEOMETRY OPTIMIZATION CYCLE   1            *
         *************************************************************
---------------------------------
CARTESIAN COORDINATES (ANGSTROEM)
---------------------------------
  C     -9.435995    6.473816   -1.709453
  C     -8.241711    7.283351   -1.221681
  H    -10.273873    7.921700   -2.871332
  H     -9.216082    6.964191   -3.662667
  C     -8.990379    5.008430   -1.851740
  H    -10.221515    6.544445   -0.950449
  H    -10.650048    3.436747   -0.295931
  N     -9.958435    6.962435   -2.969125
  C    -10.130071    4.084177   -2.292643
  H     -8.191910    4.970203   -2.597196
  H     -8.583663    4.668825   -0.897565
  C     -9.557303    2.743575   -2.747780
  H     -8.867063    2.878144   -3.577343
  C    -11.138934    3.865432   -1.168749
  H     -9.023471    2.261352   -1.931153
  H    -10.355553    2.080786   -3.073164
  H    -10.638218    4.560999   -3.135464
  H    -11.610590    4.799935   -0.878749
  H    -11.919908    3.182069   -1.493701
  O     -7.931601    7.029202    0.054862
  H     -7.156117    7.546909    0.325315
  O     -7.626752    8.066085   -1.897704

----------------------------
CARTESIAN COORDINATES (A.U.)
----------------------------
  NO LB      ZA    FRAG     MASS         X           Y           Z
   0 C     6.0000    0    12.011  -17.831446   12.233740   -3.230398
   1 C     6.0000    0    12.011  -15.574577   13.763539   -2.308643
   2 H     1.0000    0     1.008  -19.414807   14.969843   -5.426031
   3 H     1.0000    0     1.008  -17.415872   13.160413   -6.921438
   4 C     6.0000    0    12.011  -16.989354    9.464561   -3.499281
   5 H     1.0000    0     1.008  -19.315863   12.367208   -1.796088
   6 H     1.0000    0     1.008  -20.125673    6.494511   -0.559229
   7 N     7.0000    0    14.007  -18.818715   13.157096   -5.610834
   8 C     6.0000    0    12.011  -19.143060    7.717976   -4.332468
   9 H     1.0000    0     1.008  -15.480466    9.392323   -4.907989
  10 H     1.0000    0     1.008  -16.220771    8.822801   -1.696152
  11 C     6.0000    0    12.011  -18.060685    5.184605   -5.192551
  12 H     1.0000    0     1.008  -16.756321    5.438904   -6.760198
  13 C     6.0000    0    12.011  -21.049535    7.304608   -2.208616
  14 H     1.0000    0     1.008  -17.051889    4.273336   -3.649350
  15 H     1.0000    0     1.008  -19.569159    3.932115   -5.807439
  16 H     1.0000    0     1.008  -20.103319    8.619039   -5.925168
  17 H     1.0000    0     1.008  -21.940836    9.070563   -1.660595
  18 H     1.0000    0     1.008  -22.525361    6.013239   -2.822686
  19 O     8.0000    0    15.999  -14.988554   13.283268    0.103674
  20 H     1.0000    0     1.008  -13.523101   14.261591    0.614757
  21 O     8.0000    0    15.999  -14.412473   15.242692   -3.586140

--------------------------------
INTERNAL COORDINATES (ANGSTROEM)
--------------------------------
 C      0   0   0     0.000000000000     0.00000000     0.00000000
 C      1   0   0     1.523016873848     0.00000000     0.00000000
 H      1   2   0     2.036754816907    97.32099958     0.00000000
 H      3   1   2     1.631550532359    65.96955064    90.68140819
 C      1   2   3     1.538238085031   107.98817785   146.09598467
 H      1   2   3     1.094585286420   107.84043952   264.31598453
 H      5   1   2     2.765000172975   108.39500920   123.27358922
 N      3   1   2     1.014521200342    41.83418307   125.54560963
 C      5   1   2     1.532167452827   112.69313854   177.98720298
 H      5   1   2     1.093031747646   107.94024177   298.44055387
 H      5   1   2     1.091420965329   108.87513422    55.73364595
 C      9   5   1     1.527228413061   109.65201468   165.90660466
 H     12   9   5     1.087526577466   110.90003422   300.55231839
 C      7   5   1     1.088389558515    66.07767278    69.53982080
 H     12   9   5     1.088298969028   110.44410027    60.76476294
 H     12   9   5     1.087366959775   110.42060089   180.56614342
 H      9   5   1     1.093581110629   107.72180212    47.28631839
 H     14   7   5     1.086211601348   108.65091504   266.59024268
 H     14   7   5     1.087427249762   108.34384297   149.52308628
 O      2   1   3     1.338029490537   112.72631601   142.45781584
 H     20   2   1     0.970845461950   110.46374028   178.77407788
 O      2   1   3     1.203268100049   124.51316886   322.09758824

---------------------------
INTERNAL COORDINATES (A.U.)
---------------------------
 C      0   0   0     0.000000000000     0.00000000     0.00000000
 C      1   0   0     2.878084788913     0.00000000     0.00000000
 H      1   2   0     3.848908805899    97.32099958     0.00000000
 H      3   1   2     3.083183679813    65.96955064    90.68140819
 C      1   2   3     2.906848709477   107.98817785   146.09598467
 H      1   2   3     2.068466421553   107.84043952   264.31598453
 H      5   1   2     5.225093087169   108.39500920   123.27358922
 N      3   1   2     1.917167225703    41.83418307   125.54560963
 C      5   1   2     2.895376877152   112.69313854   177.98720298
 H      5   1   2     2.065530658732   107.94024177   298.44055387
 H      5   1   2     2.062486721291   108.87513422    55.73364595
 C      9   5   1     2.886043444628   109.65201468   165.90660466
 H     12   9   5     2.055127394772   110.90003422   300.55231839
 C      7   5   1     2.056758192612    66.07767278    69.53982080
 H     12   9   5     2.056587003292   110.44410027    60.76476294
 H     12   9   5     2.054825761049   110.42060089   180.56614342
 H      9   5   1     2.066568804318   107.72180212    47.28631839
 H     14   7   5     2.052642450035   108.65091504   266.59024268
 H     14   7   5     2.054939692614   108.34384297   149.52308628
 O      2   1   3     2.528509296225   112.72631601   142.45781584
 H     20   2   1     1.834632041446   110.46374028   178.77407788
 O      2   1   3     2.273847174777   124.51316886   322.09758824

---------------------
BASIS SET INFORMATION
---------------------
There are 4 groups of distinct atoms

 Group   1 Type C   : 10s4p1d contracted to 3s2p1d pattern {631/31/1}
 Group   2 Type H   : 4s1p contracted to 2s1p pattern {31/1}
 Group   3 Type N   : 10s4p1d contracted to 3s2p1d pattern {631/31/1}
 Group   4 Type O   : 10s4p1d contracted to 3s2p1d pattern {631/31/1}

Atom   0C    basis set group =>   1
Atom   1C    basis set group =>   1
Atom   2H    basis set group =>   2
Atom   3H    basis set group =>   2
Atom   4C    basis set group =>   1
Atom   5H    basis set group =>   2
Atom   6H    basis set group =>   2
Atom   7N    basis set group =>   3
Atom   8C    basis set group =>   1
Atom   9H    basis set group =>   2
Atom  10H    basis set group =>   2
Atom  11C    basis set group =>   1
Atom  12H    basis set group =>   2
Atom  13C    basis set group =>   1
Atom  14H    basis set group =>   2
Atom  15H    basis set group =>   2
Atom  16H    basis set group =>   2
Atom  17H    basis set group =>   2
Atom  18H    basis set group =>   2
Atom  19O    basis set group =>   4
Atom  20H    basis set group =>   2
Atom  21O    basis set group =>   4
---------------------------------
AUXILIARY/J BASIS SET INFORMATION
---------------------------------
There are 4 groups of distinct atoms

 Group   1 Type C   : 12s5p4d2f1g contracted to 6s4p3d1f1g pattern {711111/2111/211/2/1}
 Group   2 Type H   : 5s2p1d contracted to 3s1p1d pattern {311/2/1}
 Group   3 Type N   : 12s5p4d2f1g contracted to 6s4p3d1f1g pattern {711111/2111/211/2/1}
 Group   4 Type O   : 12s5p4d2f1g contracted to 6s4p3d1f1g pattern {711111/2111/211/2/1}

Atom   0C    basis set group =>   1
Atom   1C    basis set group =>   1
Atom   2H    basis set group =>   2
Atom   3H    basis set group =>   2
Atom   4C    basis set group =>   1
Atom   5H    basis set group =>   2
Atom   6H    basis set group =>   2
Atom   7N    basis set group =>   3
Atom   8C    basis set group =>   1
Atom   9H    basis set group =>   2
Atom  10H    basis set group =>   2
Atom  11C    basis set group =>   1
Atom  12H    basis set group =>   2
Atom  13C    basis set group =>   1
Atom  14H    basis set group =>   2
Atom  15H    basis set group =>   2
Atom  16H    basis set group =>   2
Atom  17H    basis set group =>   2
Atom  18H    basis set group =>   2
Atom  19O    basis set group =>   4
Atom  20H    basis set group =>   2
Atom  21O    basis set group =>   4
------------------------------------------------------------------------------
                             ORCA STARTUP CALCULATIONS
                           -- RI-GTO INTEGRALS CHOSEN --
------------------------------------------------------------------------------
------------------------------------------------------------------------------
                   ___                                                        
                  /   \      - P O W E R E D   B Y -                         
                 /     \                                                     
                 |  |  |   _    _      __       _____    __    __             
                 |  |  |  | |  | |    /  \     |  _  \  |  |  /  |          
                  \  \/   | |  | |   /    \    | | | |  |  | /  /          
                 / \  \   | |__| |  /  /\  \   | |_| |  |  |/  /          
                |  |  |   |  __  | /  /__\  \  |    /   |      \           
                |  |  |   | |  | | |   __   |  |    \   |  |\   \          
                \     /   | |  | | |  |  |  |  | |\  \  |  | \   \       
                 \___/    |_|  |_| |__|  |__|  |_| \__\ |__|  \__/        
                                                                              
                      - O R C A' S   B I G   F R I E N D -                    
                                      &                                       
                       - I N T E G R A L  F E E D E R -                       
                                                                              
 v1 FN, 2020, v2 2021, v3 2022-2024                                           
------------------------------------------------------------------------------


----------------------
SHARK INTEGRAL PACKAGE
----------------------

Number of atoms                             ...     22
Number of basis functions                   ...    191
Number of shells                            ...     93
Maximum angular momentum                    ...      2
Integral batch strategy                     ... SHARK/LIBINT Hybrid
RI-J (if used) integral strategy            ... SPLIT-RIJ (Revised 2003 algorithm where possible)
Printlevel                                  ...      1
Contraction scheme used                     ... SEGMENTED contraction
Prescreening option                         ... SCHWARTZ
   Thresh                                   ... 2.500e-11
   Tcut                                     ... 2.500e-12
   Tpresel                                  ... 2.500e-12 
Coulomb Range Separation                    ... NOT USED
Exchange Range Separation                   ... NOT USED
Multipole approximations                    ... NOT USED
Finite Nucleus Model                        ... NOT USED
CABS basis                                  ... NOT available
Auxiliary Coulomb fitting basis             ... AVAILABLE
   # of basis functions in Aux-J            ...    584
   # of shells in Aux-J                     ...    200
   Maximum angular momentum in Aux-J        ...      4
Auxiliary J/K fitting basis                 ... NOT available
Auxiliary Correlation fitting basis         ... NOT available
Auxiliary 'external' fitting basis          ... NOT available

Checking pre-screening integrals            ... done (  0.0 sec) Dimension = 93
   => SHARK Basis and OBASIS are compatible. Storing Pre-screening
Shell pair information
Shell pair cut-off parameter TPreSel        ...   2.5e-12
Total number of shell pairs                 ...      4371
Shell pairs after pre-screening             ...      3879
Total number of primitive shell pairs       ...     20328
Primitive shell pairs kept                  ...     12054
          la=0 lb=0:   1284 shell pairs
          la=1 lb=0:   1457 shell pairs
          la=1 lb=1:    435 shell pairs
          la=2 lb=0:    421 shell pairs
          la=2 lb=1:    241 shell pairs
          la=2 lb=2:     41 shell pairs

Checking whether 4 symmetric matrices of dimension 191 fit in memory
:Max Core in MB      =   4096.00
 MB in use           =      8.58
 MB left             =   4087.42
 MB needed           =      0.56
 Data fit in memory  = YES
Calculating RI/J V-Matrix + Cholesky decomp.... done (  0.0 sec)
Calculating Nuclear repulsion               ... done (  0.0 sec) ENN=    482.464794012770 Eh

Diagonalization of the overlap matrix:
Smallest eigenvalue                        ... 2.701e-03
Time for diagonalization                   ...    0.002 sec
Threshold for overlap eigenvalues          ... 1.000e-07
Number of eigenvalues below threshold      ... 0
Time for construction of square roots      ...    0.001 sec
Total time needed                          ...    0.003 sec

-------------------
DFT GRID GENERATION
-------------------

General Integration Accuracy     IntAcc      ... 4.388
Radial Grid Type                 RadialGrid  ... OptM3 with GC (2021)
Angular Grid (max. ang.)         AngularGrid ... 4 (Lebedev-302)
Angular grid pruning method      GridPruning ... 4 (adaptive)
Weight generation scheme         WeightScheme... mBecke (2022)
Basis function cutoff            BFCut       ... 1.0000e-11
Integration weight cutoff        WCut        ... 1.0000e-14
Partially contracted basis set               ... off
Rotationally invariant grid construction     ... off
Angular grids for H and He will be reduced by one unit

Total number of grid points                  ...    95690
Total number of batches                      ...     1504
Average number of points per batch           ...       63
Average number of grid points per atom       ...     4350
Grids setup in   0.4 sec
Initializing property integral containers    ... done (  0.0 sec)

SHARK setup successfully completed in   0.5 seconds

Maximum memory used throughout the entire STARTUP-calculation: 40.5 MB
-------------------------------------------------------------------------------
                                 ORCA GUESS
                   Start orbitals & Density for SCF / CASSCF
-------------------------------------------------------------------------------

------------
SCF SETTINGS
------------
Hamiltonian:
 Density Functional     Method          .... DFT(GTOs)
 Exchange Functional    Exchange        .... B97(D)
 Correlation Functional Correlation     .... B97(D)
 Gradients option       PostSCFGGA      .... off
 RI-approximation to the Coulomb term is turned on
   Number of AuxJ basis functions       .... 584


General Settings:
 Integral files         IntName         .... 0
 Hartree-Fock type      HFTyp           .... RHF
 Total Charge           Charge          ....    0
 Multiplicity           Mult            ....    1
 Number of Electrons    NEL             ....   72
 Basis Dimension        Dim             ....  191
 Nuclear Repulsion      ENuc            ....    482.4647940128 Eh

Convergence Acceleration:
 AO-DIIS                CNVDIIS         .... on
   Start iteration      DIISMaxIt       ....    12
   Startup error        DIISStart       ....  0.200000
   # of expansion vecs  DIISMaxEq       ....     5
   Bias factor          DIISBfac        ....   1.050
   Max. coefficient     DIISMaxC        ....  10.000
 MO-DIIS                CNVKDIIS        .... off
 Trust-Rad. Augm. Hess. CNVTRAH         .... auto
   Auto Start mean grad. ratio tolernc. ....  1.125000
   Auto Start start iteration           ....    50
   Auto Start num. interpolation iter.  ....    10
   Max. Number of Micro iterations      ....    24
   Max. Number of Macro iterations      .... Maxiter - #DIIS iter
   Number of Davidson start vectors     ....     2
   Converg. threshold    (grad. norm)   ....   1.000e-05
   Grad. Scal. Fac. for Micro threshold ....   0.100
   Minimum threshold for Micro iter.    ....   1.000e-02
   NR start threshold (gradient norm)   ....   1.000e-04
   Initial trust radius                 ....   0.400
   Minimum AH scaling param. (alpha)    ....   1.000
   Maximum AH scaling param. (alpha)    .... 1000.000
   Quad. conv. algorithm                .... NR
   White noise on init. David. guess    .... on
   Maximum white noise                  ....   0.010
   Pseudo random numbers                .... off
   Inactive MOs                         .... canonical
   Orbital update algorithm             .... Taylor
   Preconditioner                       .... Diag
   Full preconditioner red. dimension   ....   250
 SOSCF                 CNVSOSCF           .... on
   Start iteration     SOSCFMaxIt         ....   150
   Startup grad/error  SOSCFStart         ....  0.003300
   Hessian update      SOSCFHessUp        .... L-BFGS
   Autom. constraints  SOSCFAutoConstrain .... off
 Level Shifting         CNVShift        .... on
   Level shift para.    LevelShift      ....    0.2500
   Turn off err/grad.   ShiftErr        ....    0.0010
 Zerner damping         CNVZerner       .... off
 Static damping         CNVDamp         .... on
   Fraction old density DampFac         ....    0.7000
   Max. Damping (<1)    DampMax         ....    0.9800
   Min. Damping (>=0)   DampMin         ....    0.0000
   Turn off err/grad.   DampErr         ....    0.1000

SCF Procedure:
 Maximum # iterations   MaxIter         ....   125
 SCF integral mode      SCFMode         .... Direct
   Integral package                     .... SHARK and LIBINT hybrid scheme
 Reset frequency        DirectResetFreq ....    20
 Integral Threshold     Thresh          ....  2.500e-11 Eh
 Primitive CutOff       TCut            ....  2.500e-12 Eh

Convergence Tolerance:
 Convergence Check Mode ConvCheckMode   .... Total+1el-Energy
 Convergence forced     ConvForced      .... 0
 Energy Change          TolE            ....  1.000e-08 Eh
 1-El. energy change                    ....  1.000e-05 Eh
 Orbital Gradient       TolG            ....  1.000e-05
 Orbital Rotation angle TolX            ....  1.000e-05
 DIIS Error             TolErr          ....  5.000e-07

------------------------------
INITIAL GUESS: MODEL POTENTIAL
------------------------------
Loading Hartree-Fock densities                     ... done
Calculating cut-offs                               ... done
Initializing the effective Hamiltonian             ... done
Setting up the integral package (SHARK)            ... done
Starting the Coulomb interaction                   ... done (   0.1 sec)
Making the grid                                    ... done (   0.1 sec)
Mapping shells                                     ... done
Starting the XC term evaluation                    ... done (   0.1 sec)
  promolecular density results
     # of electrons  =     71.998340459
     EX              =    -56.847917166
     EC              =     -3.116876324
     EX+EC           =    -59.964793490
Transforming the Hamiltonian                       ... done (   0.0 sec)
Diagonalizing the Hamiltonian                      ... done (   0.0 sec)
Back transforming the eigenvectors                 ... done (   0.0 sec)
Now organizing SCF variables                       ... done
                      ------------------
                      INITIAL GUESS DONE (   0.3 sec)
                      ------------------
             **** ENERGY FILE WAS UPDATED (0.en.tmp) ****
Finished Guess after   0.3 sec
Maximum memory used throughout the entire GUESS-calculation: 13.6 MB

-------------------------------------------------------------------------------------------
                                      ORCA LEAN-SCF
                              memory conserving SCF solver
-------------------------------------------------------------------------------------------

----------------------------------------D-I-I-S--------------------------------------------
Iteration    Energy (Eh)           Delta-E    RMSDP     MaxDP     DIISErr   Damp  Time(sec)
-------------------------------------------------------------------------------------------
               ***  Starting incremental Fock matrix formation  ***
    1    -441.0159108508295276     0.00e+00  3.60e-03  9.63e-02  2.54e-01  0.700   0.6
    2    -441.1968662067669129    -1.81e-01  2.37e-03  4.87e-02  9.34e-02  0.700   0.5
                               ***Turning on AO-DIIS***
    3    -441.2530373954388097    -5.62e-02  9.00e-04  1.71e-02  2.70e-02  0.700   0.5
    4    -441.2890921517581546    -3.61e-02  1.17e-03  1.86e-02  1.10e-02  0.000   0.5
    5    -441.3727419474105318    -8.36e-02  4.12e-04  8.50e-03  1.00e-02  0.000   0.5
                              *** Initializing SOSCF ***
---------------------------------------S-O-S-C-F--------------------------------------
Iteration    Energy (Eh)           Delta-E    RMSDP     MaxDP     MaxGrad    Time(sec)
--------------------------------------------------------------------------------------
    6    -441.3736667765625725    -9.25e-04  1.52e-04  3.06e-03  3.21e-03     0.5
               *** Restarting incremental Fock matrix formation ***
    7    -441.3737380825770060    -7.13e-05  1.24e-04  3.73e-03  8.84e-04     0.6
    8    -441.3737046604552461     3.34e-05  6.97e-05  2.75e-03  2.65e-03     0.5
    9    -441.3737481144245294    -4.35e-05  4.00e-05  7.25e-04  2.20e-04     0.5
   10    -441.3737462945540528     1.82e-06  2.24e-05  4.51e-04  2.04e-04     0.5
   11    -441.3737496420055777    -3.35e-06  5.39e-06  1.70e-04  2.60e-05     0.5
   12    -441.3737495851299855     5.69e-08  3.15e-06  1.12e-04  4.06e-05     0.4
   13    -441.3737496745858380    -8.95e-08  7.57e-07  2.03e-05  4.74e-06     0.4
   14    -441.3737496758882344    -1.30e-09  4.33e-07  1.23e-05  6.20e-06     0.4
                 **** Energy Check signals convergence ****

               *****************************************************
               *                     SUCCESS                       *
               *           SCF CONVERGED AFTER  14 CYCLES          *
               *****************************************************

             **** ENERGY FILE WAS UPDATED (0.en.tmp) ****

----------------
TOTAL SCF ENERGY
----------------

Total Energy       :       -441.37374967630296 Eh          -12010.39033 eV

Components:
Nuclear Repulsion  :        482.46479401277008 Eh           13128.53449 eV
Electronic Energy  :       -923.83854368907305 Eh          -25138.92481 eV
One Electron Energy:      -1556.99610114635402 Eh          -42368.01786 eV
Two Electron Energy:        633.15755745728097 Eh           17229.09305 eV

Virial components:
Potential Energy   :       -880.48111401839878 Eh          -23959.10917 eV
Kinetic Energy     :        439.10736434209576 Eh           11948.71884 eV
Virial Ratio       :          2.00516134667339

DFT components:
N(Alpha)           :       36.000039508194 electrons
N(Beta)            :       36.000039508194 electrons
N(Total)           :       72.000079016388 electrons
E(X)               :      -58.279313253293 Eh       
E(C)               :       -3.113705482382 Eh       
E(XC)              :      -61.393018735675 Eh       

---------------
SCF CONVERGENCE
---------------

  Last Energy change         ...    1.3024e-09  Tolerance :   1.0000e-08
  Last MAX-Density change    ...    1.2299e-05  Tolerance :   1.0000e-07
  Last RMS-Density change    ...    4.3336e-07  Tolerance :   5.0000e-09
  Last DIIS Error            ...    3.2071e-03  Tolerance :   5.0000e-07
  Last Orbital Gradient      ...    6.2046e-06  Tolerance :   1.0000e-05
  Last Orbital Rotation      ...    6.2041e-06  Tolerance :   1.0000e-05


----------------
ORBITAL ENERGIES
----------------

  NO   OCC          E(Eh)            E(eV) 
   0   2.0000     -18.812640      -511.9180 
   1   2.0000     -18.751914      -510.2655 
   2   2.0000     -13.986371      -380.5885 
   3   2.0000     -10.025198      -272.7995 
   4   2.0000      -9.945161      -270.6216 
   5   2.0000      -9.904910      -269.5263 
   6   2.0000      -9.901013      -269.4203 
   7   2.0000      -9.888049      -269.0675 
   8   2.0000      -9.887917      -269.0639 
   9   2.0000      -1.019041       -27.7295 
  10   2.0000      -0.930066       -25.3084 
  11   2.0000      -0.815632       -22.1945 
  12   2.0000      -0.729167       -19.8416 
  13   2.0000      -0.666471       -18.1356 
  14   2.0000      -0.612764       -16.6742 
  15   2.0000      -0.598733       -16.2924 
  16   2.0000      -0.535086       -14.5604 
  17   2.0000      -0.498356       -13.5610 
  18   2.0000      -0.456818       -12.4306 
  19   2.0000      -0.439013       -11.9462 
  20   2.0000      -0.418748       -11.3947 
  21   2.0000      -0.398582       -10.8460 
  22   2.0000      -0.395404       -10.7595 
  23   2.0000      -0.384512       -10.4631 
  24   2.0000      -0.374242       -10.1836 
  25   2.0000      -0.349297        -9.5049 
  26   2.0000      -0.336150        -9.1471 
  27   2.0000      -0.331358        -9.0167 
  28   2.0000      -0.324866        -8.8400 
  29   2.0000      -0.310081        -8.4377 
  30   2.0000      -0.281040        -7.6475 
  31   2.0000      -0.277456        -7.5500 
  32   2.0000      -0.275229        -7.4894 
  33   2.0000      -0.270280        -7.3547 
  34   2.0000      -0.222058        -6.0425 
  35   2.0000      -0.194926        -5.3042 
  36   0.0000      -0.013986        -0.3806 
  37   0.0000       0.052192         1.4202 
  38   0.0000       0.065002         1.7688 
  39   0.0000       0.088495         2.4081 
  40   0.0000       0.097098         2.6422 
  41   0.0000       0.116920         3.1816 
  42   0.0000       0.127110         3.4588 
  43   0.0000       0.134900         3.6708 
  44   0.0000       0.145735         3.9656 
  45   0.0000       0.155964         4.2440 
  46   0.0000       0.169420         4.6102 
*Only the first 10 virtual orbitals were printed.

                    ********************************
                    * MULLIKEN POPULATION ANALYSIS *
                    ********************************

-----------------------
MULLIKEN ATOMIC CHARGES
-----------------------
   0 C :   -0.049837
   1 C :    0.483114
   2 H :    0.244299
   3 H :    0.245145
   4 C :   -0.180032
   5 H :    0.126198
   6 H :    0.100884
   7 N :   -0.549284
   8 C :   -0.065391
   9 H :    0.095514
  10 H :    0.113933
  11 C :   -0.321766
  12 H :    0.101559
  13 C :   -0.323645
  14 H :    0.100510
  15 H :    0.103285
  16 H :    0.121500
  17 H :    0.106191
  18 H :    0.105203
  19 O :   -0.455292
  20 H :    0.317139
  21 O :   -0.419226
Sum of atomic charges:    0.0000000

--------------------------------
MULLIKEN REDUCED ORBITAL CHARGES
--------------------------------
  0 C s       :     3.197931  s :     3.197931
      pz      :     0.891895  p :     2.794357
      px      :     0.945823
      py      :     0.956639
      dz2     :     0.010533  d :     0.057549
      dxz     :     0.017334
      dyz     :     0.010743
      dx2y2   :     0.009188
      dxy     :     0.009751

  1 C s       :     2.989173  s :     2.989173
      pz      :     0.719771  p :     2.403349
      px      :     0.862512
      py      :     0.821067
      dz2     :     0.041837  d :     0.124364
      dxz     :     0.023971
      dyz     :     0.026111
      dx2y2   :     0.015550
      dxy     :     0.016895

  2 H s       :     0.731775  s :     0.731775
      pz      :     0.004691  p :     0.023926
      px      :     0.007912
      py      :     0.011323

  3 H s       :     0.730907  s :     0.730907
      pz      :     0.008491  p :     0.023948
      px      :     0.009617
      py      :     0.005841

  4 C s       :     3.233569  s :     3.233569
      pz      :     1.026525  p :     2.910213
      px      :     0.989032
      py      :     0.894656
      dz2     :     0.005884  d :     0.036250
      dxz     :     0.010512
      dyz     :     0.004488
      dx2y2   :     0.008448
      dxy     :     0.006919

  5 H s       :     0.862652  s :     0.862652
      pz      :     0.004076  p :     0.011149
      px      :     0.004582
      py      :     0.002492

  6 H s       :     0.887540  s :     0.887540
      pz      :     0.005077  p :     0.011576
      px      :     0.003244
      py      :     0.003255

  7 N s       :     3.585506  s :     3.585506
      pz      :     1.144514  p :     3.935342
      px      :     1.479024
      py      :     1.311804
      dz2     :     0.005837  d :     0.028436
      dxz     :     0.009791
      dyz     :     0.002350
      dx2y2   :     0.008492
      dxy     :     0.001966

  8 C s       :     3.204675  s :     3.204675
      pz      :     0.979063  p :     2.817458
      px      :     0.926576
      py      :     0.911819
      dz2     :     0.006827  d :     0.043258
      dxz     :     0.010748
      dyz     :     0.008371
      dx2y2   :     0.006900
      dxy     :     0.010411

  9 H s       :     0.892852  s :     0.892852
      pz      :     0.004378  p :     0.011634
      px      :     0.004750
      py      :     0.002507

 10 H s       :     0.874443  s :     0.874443
      pz      :     0.005688  p :     0.011624
      px      :     0.003146
      py      :     0.002790

 11 C s       :     3.248335  s :     3.248335
      pz      :     1.029708  p :     3.042868
      px      :     1.029120
      py      :     0.984040
      dz2     :     0.003560  d :     0.030563
      dxz     :     0.009129
      dyz     :     0.005917
      dx2y2   :     0.003722
      dxy     :     0.008236

 12 H s       :     0.886840  s :     0.886840
      pz      :     0.004851  p :     0.011601
      px      :     0.004194
      py      :     0.002556

 13 C s       :     3.246725  s :     3.246725
      pz      :     0.997057  p :     3.046493
      px      :     1.006394
      py      :     1.043041
      dz2     :     0.006016  d :     0.030427
      dxz     :     0.007425
      dyz     :     0.005424
      dx2y2   :     0.002755
      dxy     :     0.008806

 14 H s       :     0.887895  s :     0.887895
      pz      :     0.004650  p :     0.011595
      px      :     0.003563
      py      :     0.003382

 15 H s       :     0.885119  s :     0.885119
      pz      :     0.002999  p :     0.011596
      px      :     0.004580
      py      :     0.004017

 16 H s       :     0.866570  s :     0.866570
      pz      :     0.004837  p :     0.011931
      px      :     0.003264
      py      :     0.003830

 17 H s       :     0.882062  s :     0.882062
      pz      :     0.002874  p :     0.011747
      px      :     0.003426
      py      :     0.005447

 18 H s       :     0.883172  s :     0.883172
      pz      :     0.002862  p :     0.011626
      px      :     0.004592
      py      :     0.004173

 19 O s       :     3.824442  s :     3.824442
      pz      :     1.414485  p :     4.608137
      px      :     1.510370
      py      :     1.683282
      dz2     :     0.007725  d :     0.022714
      dxz     :     0.003761
      dyz     :     0.005082
      dx2y2   :     0.001617
      dxy     :     0.004530

 20 H s       :     0.644944  s :     0.644944
      pz      :     0.008234  p :     0.037917
      px      :     0.017137
      py      :     0.012546

 21 O s       :     3.855045  s :     3.855045
      pz      :     1.610244  p :     4.536153
      px      :     1.525040
      py      :     1.400868
      dz2     :     0.005108  d :     0.028028
      dxz     :     0.005335
      dyz     :     0.005713
      dx2y2   :     0.006932
      dxy     :     0.004940



                     *******************************
                     * LOEWDIN POPULATION ANALYSIS *
                     *******************************

----------------------
LOEWDIN ATOMIC CHARGES
----------------------
   0 C :   -0.051657
   1 C :    0.101210
   2 H :    0.127899
   3 H :    0.127499
   4 C :   -0.113907
   5 H :    0.081769
   6 H :    0.065227
   7 N :   -0.241638
   8 C :   -0.071333
   9 H :    0.067259
  10 H :    0.073699
  11 C :   -0.196156
  12 H :    0.066426
  13 C :   -0.196915
  14 H :    0.065087
  15 H :    0.068295
  16 H :    0.075540
  17 H :    0.067025
  18 H :    0.069953
  19 O :   -0.141926
  20 H :    0.181288
  21 O :   -0.224644

-------------------------------
LOEWDIN REDUCED ORBITAL CHARGES
-------------------------------
  0 C s       :     2.879343  s :     2.879343
      pz      :     0.985163  p :     3.041270
      px      :     1.029245
      py      :     1.026863
      dz2     :     0.024150  d :     0.131044
      dxz     :     0.038443
      dyz     :     0.023291
      dx2y2   :     0.021673
      dxy     :     0.023487

  1 C s       :     2.858240  s :     2.858240
      pz      :     0.898906  p :     2.742960
      px      :     0.941255
      py      :     0.902799
      dz2     :     0.104494  d :     0.297590
      dxz     :     0.055114
      dyz     :     0.064418
      dx2y2   :     0.031951
      dxy     :     0.041613

  2 H s       :     0.793235  s :     0.793235
      pz      :     0.012757  p :     0.078865
      px      :     0.022867
      py      :     0.043242

  3 H s       :     0.793339  s :     0.793339
      pz      :     0.029137  p :     0.079162
      px      :     0.034702
      py      :     0.015324

  4 C s       :     2.906309  s :     2.906309
      pz      :     1.077895  p :     3.126554
      px      :     1.055920
      py      :     0.992740
      dz2     :     0.013536  d :     0.081043
      dxz     :     0.021282
      dyz     :     0.009559
      dx2y2   :     0.019510
      dxy     :     0.017156

  5 H s       :     0.878126  s :     0.878126
      pz      :     0.015034  p :     0.040105
      px      :     0.017371
      py      :     0.007701

  6 H s       :     0.895217  s :     0.895217
      pz      :     0.018959  p :     0.039556
      px      :     0.010597
      py      :     0.010001

  7 N s       :     3.194566  s :     3.194566
      pz      :     1.192224  p :     3.989190
      px      :     1.470208
      py      :     1.326758
      dz2     :     0.014535  d :     0.057882
      dxz     :     0.019902
      dyz     :     0.006638
      dx2y2   :     0.012812
      dxy     :     0.003996

  8 C s       :     2.878635  s :     2.878635
      pz      :     1.052213  p :     3.093231
      px      :     1.025264
      py      :     1.015754
      dz2     :     0.014977  d :     0.099466
      dxz     :     0.025463
      dyz     :     0.018134
      dx2y2   :     0.015684
      dxy     :     0.025209

  9 H s       :     0.893192  s :     0.893192
      pz      :     0.015491  p :     0.039549
      px      :     0.017085
      py      :     0.006973

 10 H s       :     0.886132  s :     0.886132
      pz      :     0.021540  p :     0.040169
      px      :     0.009841
      py      :     0.008789

 11 C s       :     2.918696  s :     2.918696
      pz      :     1.081366  p :     3.212727
      px      :     1.081590
      py      :     1.049770
      dz2     :     0.007501  d :     0.064734
      dxz     :     0.018466
      dyz     :     0.012579
      dx2y2   :     0.008435
      dxy     :     0.017753

 12 H s       :     0.894111  s :     0.894111
      pz      :     0.017570  p :     0.039463
      px      :     0.014455
      py      :     0.007439

 13 C s       :     2.916998  s :     2.916998
      pz      :     1.062796  p :     3.215470
      px      :     1.067186
      py      :     1.085489
      dz2     :     0.012446  d :     0.064447
      dxz     :     0.017550
      dyz     :     0.010875
      dx2y2   :     0.005831
      dxy     :     0.017744

 14 H s       :     0.895343  s :     0.895343
      pz      :     0.017101  p :     0.039570
      px      :     0.011507
      py      :     0.010962

 15 H s       :     0.892156  s :     0.892156
      pz      :     0.008720  p :     0.039549
      px      :     0.016689
      py      :     0.014139

 16 H s       :     0.883571  s :     0.883571
      pz      :     0.018140  p :     0.040889
      px      :     0.010992
      py      :     0.011758

 17 H s       :     0.892840  s :     0.892840
      pz      :     0.008561  p :     0.040135
      px      :     0.010898
      py      :     0.020676

 18 H s       :     0.890482  s :     0.890482
      pz      :     0.008726  p :     0.039565
      px      :     0.016589
      py      :     0.014250

 19 O s       :     3.470456  s :     3.470456
      pz      :     1.448716  p :     4.620551
      px      :     1.505911
      py      :     1.665924
      dz2     :     0.019132  d :     0.050919
      dxz     :     0.010893
      dyz     :     0.010205
      dx2y2   :     0.002513
      dxy     :     0.008176

 20 H s       :     0.702935  s :     0.702935
      pz      :     0.023287  p :     0.115777
      px      :     0.053961
      py      :     0.038529

 21 O s       :     3.554523  s :     3.554523
      pz      :     1.626853  p :     4.612151
      px      :     1.546674
      py      :     1.438624
      dz2     :     0.009786  d :     0.057970
      dxz     :     0.011004
      dyz     :     0.014244
      dx2y2   :     0.009990
      dxy     :     0.012946



                      *****************************
                      * MAYER POPULATION ANALYSIS *
                      *****************************

  NA   - Mulliken gross atomic population
  ZA   - Total nuclear charge
  QA   - Mulliken gross atomic charge
  VA   - Mayer's total valence
  BVA  - Mayer's bonded valence
  FA   - Mayer's free valence

  ATOM       NA         ZA         QA         VA         BVA        FA
  0 C      6.0498     6.0000    -0.0498     3.8654     3.8654    -0.0000
  1 C      5.5169     6.0000     0.4831     3.9610     3.9610     0.0000
  2 H      0.7557     1.0000     0.2443     0.9217     0.9217     0.0000
  3 H      0.7549     1.0000     0.2451     0.9296     0.9296     0.0000
  4 C      6.1800     6.0000    -0.1800     3.8653     3.8653     0.0000
  5 H      0.8738     1.0000     0.1262     0.9527     0.9527     0.0000
  6 H      0.8991     1.0000     0.1009     0.9583     0.9583    -0.0000
  7 N      7.5493     7.0000    -0.5493     2.9199     2.9199     0.0000
  8 C      6.0654     6.0000    -0.0654     3.9124     3.9124    -0.0000
  9 H      0.9045     1.0000     0.0955     0.9585     0.9585     0.0000
 10 H      0.8861     1.0000     0.1139     0.9600     0.9600     0.0000
 11 C      6.3218     6.0000    -0.3218     3.8875     3.8875     0.0000
 12 H      0.8984     1.0000     0.1016     0.9570     0.9570     0.0000
 13 C      6.3236     6.0000    -0.3236     3.8895     3.8895     0.0000
 14 H      0.8995     1.0000     0.1005     0.9574     0.9574     0.0000
 15 H      0.8967     1.0000     0.1033     0.9571     0.9571     0.0000
 16 H      0.8785     1.0000     0.1215     0.9621     0.9621     0.0000
 17 H      0.8938     1.0000     0.1062     0.9571     0.9571     0.0000
 18 H      0.8948     1.0000     0.1052     0.9574     0.9574     0.0000
 19 O      8.4553     8.0000    -0.4553     2.0293     2.0293     0.0000
 20 H      0.6829     1.0000     0.3171     0.9182     0.9182    -0.0000
 21 O      8.4192     8.0000    -0.4192     2.1165     2.1165     0.0000

  Mayer bond orders larger than 0.100000
B(  0-C ,  1-C ) :   0.8980 B(  0-C ,  4-C ) :   0.9752 B(  0-C ,  5-H ) :   0.9175 
B(  0-C ,  7-N ) :   1.0522 B(  1-C , 19-O ) :   1.0798 B(  1-C , 21-O ) :   1.9314 
B(  2-H ,  7-N ) :   0.9076 B(  3-H ,  7-N ) :   0.9003 B(  4-C ,  8-C ) :   0.9943 
B(  4-C ,  9-H ) :   0.9404 B(  4-C , 10-H ) :   0.9377 B(  6-H , 13-C ) :   0.9584 
B(  8-C , 11-C ) :   1.0044 B(  8-C , 13-C ) :   1.0106 B(  8-C , 16-H ) :   0.9274 
B( 11-C , 12-H ) :   0.9598 B( 11-C , 14-H ) :   0.9590 B( 11-C , 15-H ) :   0.9596 
B( 13-C , 17-H ) :   0.9565 B( 13-C , 18-H ) :   0.9597 B( 19-O , 20-H ) :   0.8517 


-------
TIMINGS
-------

Total SCF time: 0 days 0 hours 0 min 7 sec 

Total time                  ....       7.358 sec
Sum of individual times     ....       6.889 sec  ( 93.6%)

SCF preparation             ....       0.028 sec  (  0.4%)
Fock matrix formation       ....       6.797 sec  ( 92.4%)
  Startup                   ....       0.001 sec  (  0.0% of F)
  Split-RI-J                ....       2.349 sec  ( 34.6% of F)
  XC integration            ....       4.841 sec  ( 71.2% of F)
    XC Preparation          ....       0.000 sec  (  0.0% of XC)
    Basis function eval.    ....       1.733 sec  ( 35.8% of XC)
    Density eval.           ....       1.074 sec  ( 22.2% of XC)
    XC-Functional eval.     ....       0.876 sec  ( 18.1% of XC)
    XC-Potential eval.      ....       1.028 sec  ( 21.2% of XC)
Diagonalization             ....       0.000 sec  (  0.0%)
Density matrix formation    ....       0.005 sec  (  0.1%)
Total Energy calculation    ....       0.001 sec  (  0.0%)
Population analysis         ....       0.003 sec  (  0.0%)
Orbital Transformation      ....       0.006 sec  (  0.1%)
Orbital Orthonormalization  ....       0.000 sec  (  0.0%)
DIIS solution               ....       0.028 sec  (  0.4%)
SOSCF solution              ....       0.021 sec  (  0.3%)
Finished LeanSCF after   7.4 sec

Maximum memory used throughout the entire LEANSCF-calculation: 21.3 MB



-------------------------------------------------------------------------------
                          DFT DISPERSION CORRECTION                            
-------------------------------------------------------------------------------
Active option DFTDOPT                   ...         2   
Final C6-coefficient scaling factor     ...     1.250
Final VDW-radii scaling factor          ...     1.100
Damping factor alpha                    ...    20.000
-------------------------   ----------------
Dispersion correction           -0.033032799
-------------------------   ----------------


-------------------------   --------------------
FINAL SINGLE POINT ENERGY      -441.406782474860
-------------------------   --------------------

------------------------------------------------------------------------------
                         ORCA SCF GRADIENT CALCULATION
------------------------------------------------------------------------------

Nuc. rep. gradient        (SHARK) ... done (  0.0 sec)
HCore & Overlap gradient  (SHARK) ... done (  0.1 sec)
Split-RIJ-J gradient      (SHARK) ... done (  0.6 sec)
XC gradient                       ... done (  2.7 sec)
Dispersion correction             ... done (  0.0 sec)

-------------------
DISPERSION GRADIENT
-------------------

   1   C   :    0.001255849    0.000439014   -0.000427267
   2   C   :   -0.000132471    0.000313516    0.000449157
   3   H   :   -0.000362260    0.000283797   -0.000766183
   4   H   :   -0.000529104    0.000795014   -0.000738907
   5   C   :   -0.000522963    0.000677396   -0.000110377
   6   H   :    0.000453401    0.001055861    0.000069222
   7   H   :   -0.001571905    0.000133600    0.000061691
   8   N   :    0.000298951    0.000422309    0.000539524
   9   C   :    0.000375751   -0.001251077    0.000711142
  10   H   :    0.000328176   -0.000355941    0.000833174
  11   H   :    0.000703549    0.000133679   -0.000619395
  12   C   :   -0.000094796   -0.000078609   -0.000608333
  13   H   :   -0.000547978   -0.001246736    0.000312290
  14   C   :   -0.000629796   -0.000402969   -0.000199202
  15   H   :   -0.000088719   -0.000680549   -0.001326929
  16   H   :    0.001266020   -0.000197329   -0.000246386
  17   H   :   -0.000158758   -0.000151606   -0.000213275
  18   H   :   -0.000868072   -0.001714998    0.000452731
  19   H   :   -0.000079827    0.000705900    0.001061205
  20   O   :    0.000417018    0.000644572    0.000223470
  21   H   :    0.000075403    0.000251157   -0.000317993
  22   O   :    0.000412532    0.000224000    0.000860641

Difference to translation invariance:
           :   -0.0000000000   -0.0000000000   -0.0000000000

Difference to rotation invariance:
           :   -0.0000000000   -0.0000000000    0.0000000000

Norm of the Dispersion gradient    ...    0.0052867656
RMS gradient                       ...    0.0006507559
MAX gradient                       ...    0.0017149984

------------------
CARTESIAN GRADIENT
------------------

   1   C   :   -0.002323123   -0.000986701    0.000284680
   2   C   :    0.008172405    0.002560118   -0.001585023
   3   H   :   -0.001128986   -0.003890033   -0.000101981
   4   H   :   -0.003582115   -0.002128467    0.000993918
   5   C   :    0.007278061   -0.000252918    0.000993378
   6   H   :    0.002991431    0.001079588   -0.003083190
   7   H   :   -0.003698692    0.003470054   -0.007380674
   8   N   :    0.009873409    0.003731113    0.004334435
   9   C   :   -0.002029127    0.003782391   -0.000483828
  10   H   :   -0.006033909   -0.000413482    0.003576697
  11   H   :   -0.003569617    0.002605211   -0.004275562
  12   C   :    0.002163116   -0.003179065    0.000807143
  13   H   :   -0.006121007   -0.000329785    0.006469183
  14   C   :   -0.000446694   -0.002536747    0.004020129
  15   H   :   -0.004587415    0.004702687   -0.006341991
  16   H   :    0.005710227    0.006310544    0.002428687
  17   H   :    0.001856880   -0.001762541    0.003157303
  18   H   :    0.004366075   -0.007390523   -0.003630616
  19   H   :    0.006611683    0.005181534    0.001587649
  20   O   :    0.003563726    0.013180775   -0.025696506
  21   H   :   -0.002764151   -0.003761307    0.004432375
  22   O   :   -0.016302178   -0.019972443    0.019493795

Difference to translation invariance:
           :    0.0000000000   -0.0000000000   -0.0000000000

Difference to rotation invariance:
           :    0.0000441031   -0.0001006052   -0.0001292791

Norm of the Cartesian gradient     ...    0.0538110142
RMS gradient                       ...    0.0066236780
MAX gradient                       ...    0.0256965060

-------
TIMINGS
-------

Total SCF gradient time     ....        3.496 sec

Densities                   ....       0.000 sec  (  0.0%)
One electron gradient       ....       0.135 sec  (  3.9%)
RI-J Coulomb gradient       ....       0.624 sec  ( 17.9%)
XC gradient                 ....       2.735 sec  ( 78.3%)

Maximum memory used throughout the entire SCFGRAD-calculation: 27.2 MB
------------------------------------------------------------------------------
                         ORCA GEOMETRY RELAXATION STEP
------------------------------------------------------------------------------

Reading the OPT-File                    .... done
Getting information on internals        .... done
Copying old internal coords+grads       .... done
Making the new internal coordinates     .... (2022 redundants) done
Validating the new internal coordinates .... (2022 redundants) done
Calculating the B-matrix                .... done
Calculating the G,G- and P matrices     .... done
Transforming gradient to internals      .... done
Projecting the internal gradient        .... done
Number of atoms                         ....  22
Number of internal coordinates          ....  94
Current Energy                          ....  -441.406782475 Eh
Current gradient norm                   ....     0.053811014 Eh/bohr
Maximum allowed component of the step   ....  0.300
Current trust radius                    ....  0.300
Evaluating the initial hessian          ....  (Almloef) done
Projecting the Hessian                  .... done
Forming the augmented Hessian           .... done
Diagonalizing the augmented Hessian     .... done
Last element of RFO vector              ....  0.982947094
Lowest eigenvalues of augmented Hessian:
 -0.005905174  0.010558448  0.010953416  0.011208267  0.011360526
Length of the computed step             ....  0.187078817
The final length of the internal step   ....  0.187078817
Converting the step to Cartesian space:
 Initial RMS(Int)=    0.0192957067
Transforming coordinates:
 Iter   0:  RMS(Cart)=    0.0532634343 RMS(Int)=    0.0193586593
done
Storing new coordinates                 .... done

                                .--------------------.
          ----------------------|Geometry convergence|-------------------------
          Item                value                   Tolerance       Converged
          ---------------------------------------------------------------------
          RMS gradient        0.0055382095            0.0001000000      NO
          MAX gradient        0.0322750695            0.0003000000      NO
          RMS step            0.0192957067            0.0020000000      NO
          MAX step            0.0572464754            0.0040000000      NO
          -------------------------------------------------------------------------
          ........................................................
          Max(Bonds)      0.0170      Max(Angles)    1.58
          Max(Dihed)        3.28      Max(Improp)    0.00
          ---------------------------------------------------------------------

The optimization has not yet converged - more geometry cycles are needed


    ---------------------------------------------------------------------------
                         Redundant Internal Coordinates
                            (Angstroem and degrees)

        Definition                    Value    dE/dq     Step     New-Value
    ----------------------------------------------------------------------------
     1. B(C   1,C   0)                1.5230 -0.011072  0.0151    1.5381   
     2. B(C   4,C   0)                1.5382 -0.009350  0.0134    1.5517   
     3. B(H   5,C   0)                1.0946 -0.004215  0.0062    1.1008   
     4. B(N   7,H   3)                1.0159 -0.003302  0.0041    1.0200   
     5. B(N   7,C   0)                1.4486 -0.007176  0.0083    1.4569   
     6. B(N   7,H   2)                1.0145 -0.003336  0.0041    1.0186   
     7. B(C   8,C   4)                1.5322 -0.008009  0.0113    1.5434   
     8. B(H   9,C   4)                1.0930 -0.006832  0.0100    1.1030   
     9. B(H  10,C   4)                1.0914 -0.005879  0.0085    1.1000   
    10. B(C  11,C   8)                1.5272 -0.008652  0.0119    1.5392   
    11. B(H  12,C  11)                1.0875 -0.008860  0.0127    1.1002   
    12. B(C  13,C   8)                1.5260 -0.008313  0.0114    1.5375   
    13. B(C  13,H   6)                1.0884 -0.008945  0.0129    1.1012   
    14. B(H  14,C  11)                1.0883 -0.009092  0.0131    1.1014   
    15. B(H  15,C  11)                1.0874 -0.008766  0.0126    1.0999   
    16. B(H  16,C   8)                1.0936 -0.004065  0.0060    1.0995   
    17. B(H  17,C  13)                1.0862 -0.009225  0.0132    1.0994   
    18. B(H  18,C  13)                1.0874 -0.008480  0.0121    1.0996   
    19. B(O  19,C   1)                1.3380 -0.021895  0.0170    1.3550   
    20. B(H  20,O  19)                0.9708 -0.002978  0.0031    0.9740   
    21. B(O  21,C   1)                1.2033 -0.032275  0.0153    1.2186   
    22. A(C   4,C   0,N   7)          110.20 -0.001567    0.52    110.73   
    23. A(C   1,C   0,H   5)          107.84  0.000792   -0.40    107.44   
    24. A(H   5,C   0,N   7)          108.81  0.000580   -0.34    108.47   
    25. A(C   4,C   0,H   5)          109.48  0.001327   -0.69    108.79   
    26. A(C   1,C   0,N   7)          112.46  0.000195    0.31    112.77   
    27. A(C   1,C   0,C   4)          107.99 -0.001236    0.54    108.53   
    28. A(C   0,C   1,O  21)          124.51 -0.001092    0.17    124.69   
    29. A(C   0,C   1,O  19)          112.73  0.005304   -0.71    112.02   
    30. A(O  19,C   1,O  21)          122.76 -0.004204    0.52    123.28   
    31. A(H   9,C   4,H  10)          108.25  0.001254   -0.70    107.55   
    32. A(C   0,C   4,H  10)          108.88  0.001591   -0.28    108.59   
    33. A(C   8,C   4,H   9)          109.03  0.000093    0.30    109.32   
    34. A(C   0,C   4,H   9)          107.94  0.001974   -0.11    107.84   
    35. A(C   0,C   4,C   8)          112.69 -0.005476    1.07    113.76   
    36. A(C   8,C   4,H  10)          109.94  0.000820   -0.34    109.60   
    37. A(C   0,N   7,H   2)          110.32  0.001167   -0.47    109.85   
    38. A(H   2,N   7,H   3)          106.94  0.000971   -0.82    106.12   
    39. A(C   0,N   7,H   3)          109.31  0.002110   -0.63    108.68   
    40. A(C  13,C   8,H  16)          108.84  0.000276   -0.21    108.62   
    41. A(C   4,C   8,H  16)          107.72  0.000104   -0.25    107.47   
    42. A(C  11,C   8,H  16)          109.11  0.000545   -0.21    108.90   
    43. A(C  11,C   8,C  13)          109.97 -0.001303    0.49    110.46   
    44. A(C   4,C   8,C  13)          111.49  0.001132   -0.12    111.36   
    45. A(C   4,C   8,C  11)          109.65 -0.000715    0.29    109.94   
    46. A(H  14,C  11,H  15)          108.33  0.001508   -0.25    108.08   
    47. A(H  12,C  11,H  15)          108.25  0.000408   -0.04    108.20   
    48. A(C   8,C  11,H  15)          110.42 -0.001338    0.27    110.69   
    49. A(H  12,C  11,H  14)          108.41  0.000959   -0.23    108.18   
    50. A(C   8,C  11,H  14)          110.44 -0.000434    0.07    110.51   
    51. A(C   8,C  11,H  12)          110.90 -0.000990    0.17    111.07   
    52. A(H   6,C  13,H  18)          108.34  0.000809   -0.12    108.23   
    53. A(C   8,C  13,H  17)          111.12 -0.001554    0.26    111.39   
    54. A(H   6,C  13,H  17)          108.65  0.000974   -0.24    108.41   
    55. A(H   6,C  13,C   8)          110.49  0.000148   -0.03    110.46   
    56. A(H  17,C  13,H  18)          107.97  0.001013   -0.15    107.82   
    57. A(C   8,C  13,H  18)          110.17 -0.001286    0.26    110.43   
    58. A(C   1,O  19,H  20)          110.46  0.010460   -1.58    108.88   
    59. D(O  19,C   1,C   0,H   5)     46.77  0.000002   -0.26     46.52   
    60. D(O  21,C   1,C   0,H   5)   -133.59  0.001374   -2.58   -136.17   
    61. D(O  21,C   1,C   0,C   4)    108.19  0.000044   -1.85    106.35   
    62. D(O  19,C   1,C   0,N   7)    166.74  0.001367   -0.75    165.99   
    63. D(O  19,C   1,C   0,C   4)    -71.45 -0.001328    0.48    -70.97   
    64. D(C   8,C   4,C   0,C   1)    177.99  0.002176   -2.27    175.72   
    65. D(C   8,C   4,C   0,H   5)     60.82  0.001203   -1.72     59.10   
    66. D(H   9,C   4,C   0,H   5)   -178.72 -0.000751   -0.76   -179.48   
    67. D(H   9,C   4,C   0,N   7)     61.63 -0.001329   -0.23     61.40   
    68. D(C   8,C   4,C   0,N   7)    -58.82  0.000625   -1.20    -60.02   
    69. D(H   9,C   4,C   0,C   1)    -61.56  0.000222   -1.30    -62.86   
    70. D(H   2,N   7,C   0,H   5)     58.57 -0.000942    0.44     59.01   
    71. D(H   2,N   7,C   0,C   4)    178.62  0.000096   -0.30    178.32   
    72. D(H   3,N   7,C   0,C   1)     56.48  0.000686   -0.69     55.79   
    73. D(H   2,N   7,C   0,C   1)    -60.84 -0.002440    0.97    -59.87   
    74. D(H   3,N   7,C   0,C   4)    -64.06  0.003222   -1.95    -66.01   
    75. D(C  13,C   8,C   4,H  10)     49.59 -0.002515    3.28     52.87   
    76. D(C  13,C   8,C   4,H   9)    168.11 -0.000449    2.40    170.51   
    77. D(C  13,C   8,C   4,C   0)    -72.06 -0.001394    3.15    -68.91   
    78. D(C  11,C   8,C   4,H  10)    -72.44 -0.001130    2.55    -69.89   
    79. D(C  11,C   8,C   4,H   9)     46.08  0.000935    1.67     47.75   
    80. D(C  11,C   8,C   4,C   0)    165.91 -0.000010    2.43    168.33   
    81. D(H  14,C  11,C   8,H  16)    178.52  0.000154   -0.03    178.50   
    82. D(H  14,C  11,C   8,C  13)    -62.17  0.000041   -0.12    -62.29   
    83. D(H  14,C  11,C   8,C   4)     60.76  0.000123    0.23     61.00   
    84. D(H  12,C  11,C   8,H  16)     58.31 -0.000116    0.11     58.42   
    85. D(H  12,C  11,C   8,C  13)    177.62 -0.000228    0.01    177.63   
    86. D(H  12,C  11,C   8,C   4)    -59.45 -0.000147    0.37    -59.08   
    87. D(H   6,C  13,C   8,H  16)   -177.17 -0.000309   -0.27   -177.45   
    88. D(H   6,C  13,C   8,C  11)     63.36 -0.000365   -0.18     63.17   
    89. D(H   6,C  13,C   8,C   4)    -58.49  0.000678   -0.80    -59.29   
    90. D(H  17,C  13,C   8,H  16)    -56.48 -0.000014   -0.42    -56.90   
[...]
      py      :     0.002379

 13 C s       :     3.260104  s :     3.260104
      pz      :     0.994747  p :     3.036550
      px      :     0.997359
      py      :     1.044444
      dz2     :     0.007513  d :     0.029530
      dxz     :     0.006677
      dyz     :     0.003484
      dx2y2   :     0.002967
      dxy     :     0.008889

 14 H s       :     0.888164  s :     0.888164
      pz      :     0.004966  p :     0.011257
      px      :     0.003215
      py      :     0.003076

 15 H s       :     0.884799  s :     0.884799
      pz      :     0.002925  p :     0.011277
      px      :     0.004379
      py      :     0.003972

 16 H s       :     0.869840  s :     0.869840
      pz      :     0.005091  p :     0.011562
      px      :     0.003085
      py      :     0.003386

 17 H s       :     0.876085  s :     0.876085
      pz      :     0.002540  p :     0.011429
      px      :     0.003344
      py      :     0.005546

 18 H s       :     0.884832  s :     0.884832
      pz      :     0.002693  p :     0.011328
      px      :     0.004378
      py      :     0.004258

 19 O s       :     3.842285  s :     3.842285
      pz      :     1.437756  p :     4.597392
      px      :     1.485397
      py      :     1.674240
      dz2     :     0.008159  d :     0.023099
      dxz     :     0.003403
      dyz     :     0.004931
      dx2y2   :     0.001625
      dxy     :     0.004981

 20 H s       :     0.643903  s :     0.643903
      pz      :     0.007662  p :     0.037432
      px      :     0.017075
      py      :     0.012695

 21 O s       :     3.869840  s :     3.869840
      pz      :     1.590908  p :     4.528458
      px      :     1.538152
      py      :     1.399397
      dz2     :     0.005102  d :     0.027298
      dxz     :     0.005106
      dyz     :     0.005779
      dx2y2   :     0.006531
      dxy     :     0.004781



                     *******************************
                     * LOEWDIN POPULATION ANALYSIS *
                     *******************************

----------------------
LOEWDIN ATOMIC CHARGES
----------------------
   0 C :   -0.051273
   1 C :    0.124433
   2 H :    0.129138
   3 H :    0.129493
   4 C :   -0.115683
   5 H :    0.082913
   6 H :    0.065542
   7 N :   -0.250079
   8 C :   -0.068138
   9 H :    0.068102
  10 H :    0.073637
  11 C :   -0.198578
  12 H :    0.067848
  13 C :   -0.200519
  14 H :    0.066131
  15 H :    0.069651
  16 H :    0.075388
  17 H :    0.070845
  18 H :    0.070780
  19 O :   -0.160132
  20 H :    0.182969
  21 O :   -0.232468

-------------------------------
LOEWDIN REDUCED ORBITAL CHARGES
-------------------------------
  0 C s       :     2.889377  s :     2.889377
      pz      :     0.996261  p :     3.036213
      px      :     1.018887
      py      :     1.021066
      dz2     :     0.021468  d :     0.125682
      dxz     :     0.036570
      dyz     :     0.021147
      dx2y2   :     0.021565
      dxy     :     0.024932

  1 C s       :     2.874132  s :     2.874132
      pz      :     0.886167  p :     2.723930
      px      :     0.936449
      py      :     0.901314
      dz2     :     0.095067  d :     0.277505
      dxz     :     0.050370
      dyz     :     0.060445
      dx2y2   :     0.030397
      dxy     :     0.041226

  2 H s       :     0.793773  s :     0.793773
      pz      :     0.013584  p :     0.077089
      px      :     0.022031
      py      :     0.041474

  3 H s       :     0.792952  s :     0.792952
      pz      :     0.029760  p :     0.077555
      px      :     0.032536
      py      :     0.015259

  4 C s       :     2.915516  s :     2.915516
      pz      :     1.076786  p :     3.121578
      px      :     1.053747
      py      :     0.991045
      dz2     :     0.011785  d :     0.078589
      dxz     :     0.021873
      dyz     :     0.010160
      dx2y2   :     0.017873
      dxy     :     0.016898

  5 H s       :     0.877448  s :     0.877448
      pz      :     0.016828  p :     0.039640
      px      :     0.015400
      py      :     0.007412

  6 H s       :     0.896493  s :     0.896493
      pz      :     0.020345  p :     0.037964
      px      :     0.009243
      py      :     0.008377

  7 N s       :     3.219501  s :     3.219501
      pz      :     1.197561  p :     3.973129
      px      :     1.453924
      py      :     1.321643
      dz2     :     0.011976  d :     0.057449
      dxz     :     0.020174
      dyz     :     0.007629
      dx2y2   :     0.012176
      dxy     :     0.005495

  8 C s       :     2.887166  s :     2.887166
      pz      :     1.055055  p :     3.084697
      px      :     1.019782
      py      :     1.009860
      dz2     :     0.016255  d :     0.096275
      dxz     :     0.024109
      dyz     :     0.014942
      dx2y2   :     0.016421
      dxy     :     0.024549

  9 H s       :     0.893565  s :     0.893565
      pz      :     0.015921  p :     0.038333
      px      :     0.015897
      py      :     0.006515

 10 H s       :     0.887372  s :     0.887372
      pz      :     0.019657  p :     0.038991
      px      :     0.010524
      py      :     0.008810

 11 C s       :     2.929837  s :     2.929837
      pz      :     1.083900  p :     3.206465
      px      :     1.079176
      py      :     1.043388
      dz2     :     0.007987  d :     0.062276
      dxz     :     0.017316
      dyz     :     0.011076
      dx2y2   :     0.009411
      dxy     :     0.016486

 12 H s       :     0.894158  s :     0.894158
      pz      :     0.015718  p :     0.037994
      px      :     0.015553
      py      :     0.006722

 13 C s       :     2.928067  s :     2.928067
      pz      :     1.062391  p :     3.210464
      px      :     1.061635
      py      :     1.086439
      dz2     :     0.015164  d :     0.061988
      dxz     :     0.015969
      dyz     :     0.006779
      dx2y2   :     0.006389
      dxy     :     0.017687

 14 H s       :     0.895887  s :     0.895887
      pz      :     0.018435  p :     0.037983
      px      :     0.009891
      py      :     0.009657

 15 H s       :     0.892268  s :     0.892268
      pz      :     0.008429  p :     0.038081
      px      :     0.015684
      py      :     0.013968

 16 H s       :     0.885299  s :     0.885299
      pz      :     0.019307  p :     0.039313
      px      :     0.009915
      py      :     0.010091

 17 H s       :     0.890298  s :     0.890298
      pz      :     0.007130  p :     0.038857
      px      :     0.010756
      py      :     0.020972

 18 H s       :     0.891103  s :     0.891103
      pz      :     0.007944  p :     0.038117
      px      :     0.015576
      py      :     0.014596

 19 O s       :     3.497327  s :     3.497327
      pz      :     1.469615  p :     4.614251
      px      :     1.483961
      py      :     1.660675
      dz2     :     0.018487  d :     0.048554
      dxz     :     0.009404
      dyz     :     0.009130
      dx2y2   :     0.002540
      dxy     :     0.008992

 20 H s       :     0.702969  s :     0.702969
      pz      :     0.021085  p :     0.114062
      px      :     0.054002
      py      :     0.038974

 21 O s       :     3.568945  s :     3.568945
      pz      :     1.611802  p :     4.607901
      px      :     1.557654
      py      :     1.438446
      dz2     :     0.009241  d :     0.055622
      dxz     :     0.010340
      dyz     :     0.014393
      dx2y2   :     0.009495
      dxy     :     0.012152



                      *****************************
                      * MAYER POPULATION ANALYSIS *
                      *****************************

  NA   - Mulliken gross atomic population
  ZA   - Total nuclear charge
  QA   - Mulliken gross atomic charge
  VA   - Mayer's total valence
  BVA  - Mayer's bonded valence
  FA   - Mayer's free valence

  ATOM       NA         ZA         QA         VA         BVA        FA
  0 C      6.0505     6.0000    -0.0505     3.8583     3.8583     0.0000
  1 C      5.5111     6.0000     0.4889     3.9297     3.9297     0.0000
  2 H      0.7572     1.0000     0.2428     0.9200     0.9200     0.0000
  3 H      0.7547     1.0000     0.2453     0.9288     0.9288    -0.0000
  4 C      6.1796     6.0000    -0.1796     3.8625     3.8625     0.0000
  5 H      0.8717     1.0000     0.1283     0.9526     0.9526    -0.0000
  6 H      0.9009     1.0000     0.0991     0.9583     0.9583    -0.0000
  7 N      7.5494     7.0000    -0.5494     2.9063     2.9063     0.0000
  8 C      6.0585     6.0000    -0.0585     3.9098     3.9098     0.0000
  9 H      0.9030     1.0000     0.0970     0.9577     0.9577     0.0000
 10 H      0.8876     1.0000     0.1124     0.9593     0.9593    -0.0000
 11 C      6.3211     6.0000    -0.3211     3.8819     3.8819    -0.0000
 12 H      0.8983     1.0000     0.1017     0.9576     0.9576    -0.0000
 13 C      6.3262     6.0000    -0.3262     3.8848     3.8848     0.0000
 14 H      0.8994     1.0000     0.1006     0.9582     0.9582    -0.0000
 15 H      0.8961     1.0000     0.1039     0.9575     0.9575     0.0000
 16 H      0.8814     1.0000     0.1186     0.9581     0.9581     0.0000
 17 H      0.8875     1.0000     0.1125     0.9572     0.9572    -0.0000
 18 H      0.8962     1.0000     0.1038     0.9583     0.9583     0.0000
 19 O      8.4628     8.0000    -0.4628     2.0255     2.0255     0.0000
 20 H      0.6813     1.0000     0.3187     0.9172     0.9172     0.0000
 21 O      8.4256     8.0000    -0.4256     2.1071     2.1071     0.0000

  Mayer bond orders larger than 0.100000
B(  0-C ,  1-C ) :   0.8997 B(  0-C ,  4-C ) :   0.9722 B(  0-C ,  5-H ) :   0.9165 
B(  0-C ,  7-N ) :   1.0430 B(  1-C , 19-O ) :   1.0658 B(  1-C , 21-O ) :   1.9090 
B(  2-H ,  7-N ) :   0.9073 B(  3-H ,  7-N ) :   0.8985 B(  4-C ,  8-C ) :   0.9918 
B(  4-C ,  9-H ) :   0.9401 B(  4-C , 10-H ) :   0.9368 B(  6-H , 13-C ) :   0.9577 
B(  8-C , 11-C ) :   0.9993 B(  8-C , 13-C ) :   1.0060 B(  8-C , 16-H ) :   0.9310 
B( 11-C , 12-H ) :   0.9587 B( 11-C , 14-H ) :   0.9579 B( 11-C , 15-H ) :   0.9585 
B( 13-C , 17-H ) :   0.9538 B( 13-C , 18-H ) :   0.9584 B( 19-O , 20-H ) :   0.8525 


-------
TIMINGS
-------

Total SCF time: 0 days 0 hours 0 min 2 sec 

Total time                  ....       2.494 sec
Sum of individual times     ....       2.019 sec  ( 80.9%)

SCF preparation             ....       0.031 sec  (  1.3%)
Fock matrix formation       ....       1.959 sec  ( 78.6%)
  Startup                   ....       0.000 sec  (  0.0% of F)
  Split-RI-J                ....       0.766 sec  ( 39.1% of F)
  XC integration            ....       1.604 sec  ( 81.9% of F)
    XC Preparation          ....       0.000 sec  (  0.0% of XC)
    Basis function eval.    ....       0.570 sec  ( 35.5% of XC)
    Density eval.           ....       0.365 sec  ( 22.7% of XC)
    XC-Functional eval.     ....       0.292 sec  ( 18.2% of XC)
    XC-Potential eval.      ....       0.336 sec  ( 21.0% of XC)
Diagonalization             ....       0.000 sec  (  0.0%)
Density matrix formation    ....       0.001 sec  (  0.1%)
Total Energy calculation    ....       0.000 sec  (  0.0%)
Population analysis         ....       0.010 sec  (  0.4%)
Orbital Transformation      ....       0.003 sec  (  0.1%)
Orbital Orthonormalization  ....       0.000 sec  (  0.0%)
DIIS solution               ....       0.004 sec  (  0.1%)
SOSCF solution              ....       0.010 sec  (  0.4%)
Finished LeanSCF after   2.5 sec

Maximum memory used throughout the entire LEANSCF-calculation: 21.7 MB



-------------------------------------------------------------------------------
                          DFT DISPERSION CORRECTION                            
-------------------------------------------------------------------------------
Active option DFTDOPT                   ...         2   
Final C6-coefficient scaling factor     ...     1.250
Final VDW-radii scaling factor          ...     1.100
Damping factor alpha                    ...    20.000
-------------------------   ----------------
Dispersion correction           -0.032814016
-------------------------   ----------------


-------------------------   --------------------
FINAL SINGLE POINT ENERGY      -441.410826936256
-------------------------   --------------------

                                *** OPTIMIZATION RUN DONE ***


------------------------------------------------------------------------------
                              ORCA PROPERTY CALCULATIONS
------------------------------------------------------------------------------

GBWName                                 ... 0.gbw
Number of atoms                         ...     22
Number of basis functions               ...    191
Max core memory                         ...   4096 MB

Electric properties:
Dipole moment                           ... YES
Quadrupole moment                       ...  NO
Static polarizability (Dipole/Dipole)   ...  NO
Static polarizability (Dipole/Quad.)    ...  NO
Static polarizability (Quad./Quad.)     ...  NO
Static polarizability (Velocity)        ...  NO
Static hyperpolarizability              ...  NO

Atomic electric properties:
Dipole moment                           ...  NO
Quadrupole moment                       ...  NO
Static polarizability                   ...  NO

Choice of electric origin               ... Center of mass
Position of electric origin             ...   -17.376234    10.877427    -3.288789

General magnetic properties:
Magnetizability                         ...  NO

EPR properties:
g-Tensor (aka g-matrix)                 ...  NO
Zero-Field splitting spin-orbit         ...  NO
Zero-field splitting spin-spin          ...  NO
Hyperfine couplings                     ...  NO (   0 nuclei)
Quadrupole couplings                    ...  NO (   0 nuclei)
Contact density                         ...  NO (   0 nuclei)

NMR properties:
Chemical shifts                         ...  NO (   0 nuclei)
Spin-rotation constants                 ...  NO (   0 nuclei)
Spin-spin couplings                     ...  NO (   0 nuclei,    0 pairs)

Choice of magnetic origin               ... GIAO
Position of magnetic origin             ...     0.000000     0.000000     0.000000

Properties with geometric perturbations:
SCF Hessian                             ...  NO
IR spectrum                             ...  NO
VCD spectrum                            ...  NO
X-ray spectroscopy properties:
SCF XES/XAS/RIXS spectra                ...  NO

SCF SOC stabilization energy            ...  NO
Diagonal Born-Oppenheimer correction    ...  NO

-------------
DIPOLE MOMENT
-------------

Method             : SCF
Type of density    : Electron Density
Multiplicity       :   1
Irrep              :   0
Energy             :  -441.3780129206450624 Eh
Basis              : AO
                                X                 Y                 Z
Electronic contribution:      6.835075527      12.063352462       2.650596894
Nuclear contribution   :     -6.723363462     -12.132928890      -2.236133570
                        -----------------------------------------
Total Dipole Moment    :      0.111712065      -0.069576427       0.414463324
                        -----------------------------------------
Magnitude (a.u.)       :      0.434856657
Magnitude (Debye)      :      1.105317780



--------------------
Rotational spectrum 
--------------------
 
Rotational constants in cm-1:             0.091147             0.027775             0.026148 
Rotational constants in MHz :          2732.511500           832.686264           783.888959 

Dipole components along the rotational axes: 
x,y,z [a.u.] :    -0.072037    -0.389801    -0.178790 
x,y,z [Debye]:    -0.183104    -0.990796    -0.454448 

 

Dipole moment calculation done in   0.0 sec 

Maximum memory used throughout the entire PROP-calculation: 12.2 MB

--------------------------------
SUGGESTED CITATIONS FOR THIS RUN
--------------------------------

Below you find a list of papers that are relevant to this ORCA run
We neither can nor want to force you to cite these papers, but we appreciate if you do
You receive ORCA, which is the product of decades of hard work by many enthusiastic individuals, for free
The only thing we kindly ask in return is that you cite our papers,
We deeply appreciate it, if you show your appreciation for ORCA by not just citing the generic ORCA reference.

Please note that relegating all ORCA citations to the supporting information does *not* help us.
SI sections are not indexed - citations you put there will not count into any citation statistics
But we need these citations in order to attract the funding resources that allow us to do what we are doing

Therefore, if you are a happy ORCA user, please consider citing a few of the papers listed below in the main body of your paper

In addition to the list printed below, the program has created the file 0.bibtex that contains the list in bibtex format
You can import this file easily into all common literature databanks and citation aid programs


List of essential papers. We consider these as the minimum necessary citations

  1. Neese, F.
     Software update: the ORCA program system, version 6.0
     WIRES Comput. Molec. Sci. 2025 15(1), e70019
     doi.org/10.1002/wcms.7019

List of papers to cite with high priority. The work reported in these papers was absolutely
necessary for this run to complete.
Our perspective: the developers of density functionals and basis sets usually get cited in chemistry papers
Good! But without the algorithms to do something with them, the functionals or basis sets would not do anything.
Hence, in our opinion, the algorithm design and method developments papers are equally worthy of getting cited

  1. Neese, F.
     An improvement of the resolution of the identity approximation for the formation of the Coulomb matrix
     J. Comp. Chem. 2003 24(14), 1740-1747
     doi.org/10.1002/jcc.10318
  2. Grimme, S.
     Semiempirical GGA-type density functional constructed with a long-range dispersion correction
     J.Comput.Chem. 2006 27(15), 1787-1799
     doi.org/10.1002/jcc.20495
  3. Neese, F.
     The SHARK Integral Generation and Digestion System
     J. Comp. Chem. 2022 44(3), 381
     doi.org/10.1002/jcc.26942

List of suggested additional citations. These are papers that are important in the 'surrounding' of 
of this run, or papers that preceded the highly important papers. If you like your results we are grateful for a citation.

  1. Neese, F.
     The ORCA program system
     WIRES Comput. Molec. Sci. 2012 2(1), 73-78
     doi.org/10.1002/wcms.81
  2. Neese, F.
     Software update: the ORCA program system, version 4.0
     WIRES Comput. Molec. Sci. 2018 8(1), 1-6
     doi.org/10.1002/wcms.1327
  3. Neese, F.; Wennmohs, F.; Becker, U.; Riplinger, C.
     The ORCA quantum chemistry program package
     J. Chem. Phys. 2020 152(22), 224108
     doi.org/10.1063/5.0004608
  4. Neese, F.
     Software update: The ORCA program system—Version 5.0
     WIRES Comput. Molec. Sci. 2022 12(1), e1606
     doi.org/10.1002/wcms.1606

List of optional additional citations

  1. Neese, F.
     Approximate second-order SCF convergence for spin unrestricted wavefunctions
     Chem. Phys. Lett. 2000 325(1-3), 93-98
     doi.org/10.1016/s0009-2614(00)00662-x

Timings for individual modules:

Sum of individual times          ...       84.524 sec (=   1.409 min)
Startup calculation              ...        4.752 sec (=   0.079 min)   5.6 %
SCF iterations                   ...       48.055 sec (=   0.801 min)  56.9 %
Property calculations            ...        0.041 sec (=   0.001 min)   0.0 %
SCF Gradient evaluation          ...       31.658 sec (=   0.528 min)  37.5 %
Geometry relaxation              ...        0.017 sec (=   0.000 min)   0.0 %
                             ****ORCA TERMINATED NORMALLY****
TOTAL RUN TIME: 0 days 0 hours 1 minutes 24 seconds 769 msec
