
                                 *****************
                                 * O   R   C   A *
                                 *****************

                                            #,                                       
                                            ###                                      
                                            ####                                     
                                            #####                                    
                                            ######                                   
                                           ########,                                 
                                     ,,################,,,,,                         
                               ,,#################################,,                 
                          ,,##########################################,,             
                       ,#########################################, ''#####,          
                    ,#############################################,,   '####,        
                  ,##################################################,,,,####,       
                ,###########''''           ''''###############################       
              ,#####''   ,,,,##########,,,,          '''####'''          '####       
            ,##' ,,,,###########################,,,                        '##       
           ' ,,###''''                  '''############,,,                           
         ,,##''                                '''############,,,,        ,,,,,,###''
      ,#''                                            '''#######################'''  
     '                                                          ''''####''''         
             ,#######,   #######,   ,#######,      ##                                
            ,#'     '#,  ##    ##  ,#'     '#,    #''#        ,####,    ,#,          
            ##       ##  ##   ,#'  ##            #'  '#       #'       ,# #          
            ##       ##  #######   ##           ,######,      #####,      #          
            '#,     ,#'  ##    ##  '#,     ,#' ,#      #,     #,   #      #          
             '#######'   ##     ##  '#######'  #'      '#     '####' #    #          



                #########################################################
                #                        -***-                          #
                #          Department of theory and spectroscopy        #
                #                                                       #
                #                      Frank Neese                      #
                #                                                       #
                #     Directorship, Architecture, Infrastructure        #
                #                    SHARK, DRIVERS                     #
                #        Core code/Algorithms in most modules           #
                #                                                       #
                #        Max Planck Institute fuer Kohlenforschung      #
                #                Kaiser Wilhelm Platz 1                 #
                #                 D-45470 Muelheim/Ruhr                 #
                #                      Germany                          #
                #                                                       #
                #                  All rights reserved                  #
                #                        -***-                          #
                #########################################################


                         Program Version 6.1.0  -  RELEASE   -
                                (GIT: $679e74b$)
                          ($2025-06-10 18:02:51 +0200$)


 With contributions from (in alphabetic order):
[Max-Planck-Institut fuer Kohlenforschung]                               
  Daniel Aravena         : Magnetic Suceptibility                        
  Michael Atanasov       : Ab Initio Ligand Field Theory (pilot matlab implementation)
  Alexander A. Auer      : GIAO ZORA, VPT2 properties, NMR spectrum      
  Ute Becker             : All parallelization in ORCA, NUMFREQ, NUMCALC 
  Giovanni Bistoni       : ED, misc. LED, open-shell LED, HFLD           
  Dmytro Bykov           : pre 5.0 version of the SCF Hessian            
  Marcos Casanova-Páez   : Triplet and SCS-CIS(D). UHF-(DLPNO)-IP/EA/STEOM-CCSD. UHF-CVS-IP/STEOM-CCSD   
  Vijay G. Chilkuri      : MRCI spin determinant printing, contributions to CSF-ICE 
  Pauline Colinet        : FMM embedding                                 
  Dipayan Datta          : RHF DLPNO-CCSD density                        
  Achintya Kumar Dutta   : EOM-CC, STEOM-CC                              
  Nicolas Foglia         : Exact transition moments, OPA infrastructure, MCD improvements    
  Dmitry Ganyushin       : Spin-Orbit,Spin-Spin,Magnetic field MRCI      
  Miquel Garcia-Rates    : C-PCM and meta-GGA Hessian, CCSD/C-PCM, Gaussian charge scheme 
  Tiago L. C. Gouveia    : GS-ROHF, GS-ROCIS                             
  Yang Guo               : DLPNO-NEVPT2, F12-NEVPT2, CIM, IAO-localization        
  Andreas Hansen         : Spin unrestricted coupled pair/coupled cluster methods 
  Ingolf Harden          : AUTO-CI MPn and infrastructure                
  Benjamin Helmich-Paris : MC-RPA, TRAH-(SCF,CASSCF), AVAS, COSX integrals, SCF dyn. polar., MC-PDFT, srDFT 
  Lee Huntington         : MR-EOM, pCC                                   
  Robert Izsak           : Overlap fitted RIJCOSX, COSX-SCS-MP3, EOM     
  Riya Kayal             : Wick's Theorem for AUTO-CI, AUTO-CI UHF-CCSDT 
  Emily Kempfer          : AUTO-CI RHF CISDT and CCSDT, approximate NEVPT4
  Christian Kollmar      : KDIIS, OOCD, Brueckner-CCSD(T), CCSD density, CASPT2, CASPT2-K, improved NEVPT2 
  Axel Koslowski         : Symmetry handling                             
  Simone Kossmann        : meta-GGA functionals, TD-DFT gradient, OOMP2, (MP2 Hessian; deprecated post 5.0) 
  Lucas Lang             : DCDCAS, Hyperfine gauge corrections, ICE-SOC+SSC
  Marvin Lechner         : AUTO-CI (C++ implementation), FIC-MRCC        
  Spencer Leger          : CASSCF response                               
  Dagmar Lenk            : GEPOL surface, SMD, ORCA-2-JSON               
  Dimitrios Liakos       : Extrapolation schemes; Compound Job, Property file
  Dimitrios Manganas     : Further ROCIS development; embedding schemes. LFT, Crystal Embedding 
  Dimitrios Pantazis     : SARC Basis sets                               
  Anastasios Papadopoulos: AUTO-CI, single reference methods and gradients 
  Taras Petrenko         : pre 6.0 DFT Hessian and TD-DFT gradient,  ECA, NRVS 
  Petra Pikulova         : Analytic Raman intensities                    
  Peter Pinski           : DLPNO-MP2, DLPNO-MP2 Gradient                 
  Shashank Vittal Rao    : ES-AILFT, MagRelax                            
  Christoph Reimann      : Effective Core Potentials                     
  Marius Retegan         : Local ZFS, SOC                                
  Christoph Riplinger    : Optimizer, TS searches, QM/MM, DLPNO-CCSD(T), (RO)-DLPNO pert. Triples 
  Michael Roemelt        : Original ROCIS implementation, recursive CI coupling coefficients
  Masaaki Saitow         : Open-shell DLPNO-CCSD energy and density      
  Barbara Sandhoefer     : DKH picture change effects                    
  Yorick L. A. Schmerwitz: GMF and freeze-and-release deltaSCF, NEB S-IDPP initial path                    
  Kantharuban Sivalingam : CASSCF convergence/infrastructure, NEVPT2, NEVPT3, NEVPT4(SD), FIC-MRCI and CEPA variants
  Bernardo de Souza      : ESD, SOC TD-DFT                               
  Georgi L. Stoychev     : AutoAux, RI-MP2 NMR, DLPNO-MP2 response, X2C  
  Van Anh Tran           : RI-MP2 g-tensors                              
  Willem Van den Heuvel  : Paramagnetic NMR                              
  Zikuan Wang            : NOTCH, Electric field optimization            
  Frank Wennmohs         : Technical directorship and infrastructure     
  Hang Xu                : AUTO-CI-Response properties                   
                                                                         
[FACCTs GmbH]                                                            
  Markus Bursch, Nicolas Foglia, Miquel Garcia-Rates, Ingolf Harden, Hagen Neugebauer, Anastasios Papadopoulos, 
  Christoph Riplinger, Bernardo de Souza, Georgi L. Stoychev                                                    
                                                                 
  APM, various basis sets, CI-OPT, improved COSX, DLPNO-Multilevel,           
  DOCKER, DRACO, updates on ESD, Fragmentator, GOAT, IRC, LR-CPCM, L-BFGS, MBIS, meta-GGA TD-DFT gradient, ML-optimized integration grids, 
  MM, NACMEs, nearIR, NEB, NEB-TS, NL-DFT gradient (VV10), 2- and 3-layer-ONIOM, interface openCOSMO-RS, QMMM,   
  Crystal-QMMM, RESP, rigid body optimization, SF, symmetry and pop. for TD-DFT, various functionals, SOLVATOR                                   
                                                                         
[Other institutions]                                                     
  V. Asgeirsson          : NEB                                           
  Christoph Bannwarth    : sTDA-DFT, sTD-DFT, PBEh-3c, B97-3c, D3        
  Giovanni Bistoni       : ETS/NOCV, ADLD/ADEX, COVALED                  
  Martin Brehm           : Molecular dynamics                            
  Ronald Cardenas        : ETS/NOCV                                      
  Martina Colucci        : COVALED                                       
  Sebastian Ehlert       : rSCAN, r2SCAN, r2SCAN-3c, D4, dhf basis sets  
  Marvin Friede          : D4 for Fr, Ra, Ac-Lr                          
  Lars Goerigk           : TD-DFT with DH, B97 family of functionals     
  Stefan Grimme          : VdW corrections, initial TS optimization, DFT functionals, gCP, sTDA/sTD-DF 
  Waldemar Hujo          : DFT-NL                                        
  H. Jonsson             : NEB                                           
  Holger Kruse           : gCP                                           
  Marcel Mueller         : wB97X-3c, vDZP basis set                      
  Hagen Neugebauer       : wr2SCAN, Native XTB                           
  Gianluca Regni         : ADLD/ADEX                                     
  Tobias Risthaus        : pre 6.0 range-separated hybrid DFT and stability analysis
  Lukas Wittmann         : regularized MP2, r2SCAN double-hybrids, wr2SCAN        
                                                                         
We gratefully acknowledge several colleagues who have allowed us to      
interface, adapt or use parts of their codes:                            
  Ed Valeev, F. Pavosevic, A. Kumar             : LibInt (2-el integral package), F12 methods 
  Garnet Chan, S. Sharma, J. Yang, R. Olivares  : DMRG                   
  Ulf Ekstrom                                   : XCFun DFT Library      
  Mihaly Kallay                                 : mrcc  (arbitrary order and MRCC methods)
  Frank Weinhold                                : gennbo (NPA and NBO analysis)           
  Simon Mueller                                 : openCOSMO-RS                            
  Christopher J. Cramer and Donald G. Truhlar   : smd solvation model                     
  S Lehtola, MJT Oliveira, MAL Marques          : LibXC Library                           
  Liviu Ungur et al                             : ANISO software                          


 Your calculation uses the libint2 library for the computation of 2-el integrals
 For citations please refer to: http://libint.valeyev.net

 Your ORCA version has been built with support for libXC version: 7.0.0
 For citations please refer to: https://libxc.gitlab.io

 This ORCA versions uses:
   CBLAS   interface :  Fast vector & matrix operations
   LAPACKE interface :  Fast linear algebra routines
   SCALAPACK package :  Parallel linear algebra routines
   Shared memory     :  Shared parallel matrices
   BLAS/LAPACK       :  OpenBLAS 0.3.29  USE64BITINT DYNAMIC_ARCH NO_AFFINITY Haswell SINGLE_THREADED
        Core in use  :  Haswell
   Copyright (c) 2011-2014, The OpenBLAS Project


  ***********************************
  * Starting time: Wed Sep  3 20:09:14 2025
  * Host name:     chemlab03
  * Process ID:    146598
  * Working dir.:  /home/vivek/mm-project/vivek/xtb-goat/MP2-opt/h/1
  ***********************************



***************************************
The coordinates will be read from file: /home/vivek/mm-project/vivek/xtb-goat/xtb-goat/h/H_CONF/1.xyz
***************************************


================================================================================

----- Orbital basis set information -----
Your calculation utilizes the basis: 6-31G**
   H-He, Li-Ne : W. J. Hehre, R. Ditchfield and J.A. Pople, J. Chem. Phys. 56, 2257 (1972).
                 Note: He and Ne are unpublished basis sets taken from the Gaussian program.
                 Note: Li and B from J. D. Dill and J. A. Pople, J. Chem. Phys. 62, 2921 (1975).
   Na - Ar     : M. M. Francl, W. J. Pietro, W. J. Hehre, J. S. Binkley, M. S. Gordon, 
                 D. J. DeFrees and J. A. Pople, J. Chem. Phys. 77, 3654 (1982).
   K - Zn      : V. A. Rassolov, J. A. Pople, M. A. Ratner, and T. L. Windus, J. Chem. Phys. 109, 1223 (1998).

================================================================================
                                        WARNINGS
                       Please study these warnings very carefully!
================================================================================

WARNING: Old DensityContainer found on disk!
         Will remove this file - 
         If you want to keep old densities, please start your calculation with a different basename. 


WARNING: The frozen-core approximation for MP2-gradient calculations is turned on by default.

WARNING: Geometry Optimization
  ===> : Switching off AutoStart
         For restart on a previous wavefunction, please use MOREAD

WARNING: Post HF methods need fully converged wavefunctions
  ===> : Setting SCFConvForced true
         You can overwrite this default with %scf ConvForced false 


================================================================================
                                       INPUT FILE
================================================================================
NAME = 1.inp
|  1> ! MP2 6-31G** opt
|  2> 
|  3> * xyzfile 0 1 /home/vivek/mm-project/vivek/xtb-goat/xtb-goat/h/H_CONF/1.xyz
|  4> 
|  5>                          ****END OF INPUT****
================================================================================

                       *****************************
                       * Geometry Optimization Run *
                       *****************************

Geometry optimization settings:
Update method            Update   .... BFGS
Choice of coordinates    CoordSys .... (2022) Redundant Internals
Initial Hessian          InHess   .... Almloef's Model
Max. no of cycles        MaxIter  .... 72

Convergence Tolerances:
Energy Change            TolE     ....  5.0000e-06 Eh
Max. Gradient            TolMAXG  ....  3.0000e-04 Eh/bohr
RMS Gradient             TolRMSG  ....  1.0000e-04 Eh/bohr
Max. Displacement        TolMAXD  ....  4.0000e-03 bohr
RMS Displacement         TolRMSD  ....  2.0000e-03 bohr
Strict Convergence                .... False

------------------------------------------------------------------------------
                        ORCA OPTIMIZATION COORDINATE SETUP
------------------------------------------------------------------------------

The optimization will be done in redundant internal coordinates (2022)
Making redundant internal coordinates   ...  (2022 redundants) done
Evaluating the initial hessian          ...  (Almloef) done
Evaluating the coordinates              ...  done
Calculating the B-matrix                .... done
Calculating the G-matrix                .... done
The number of degrees of freedom        ....  117

    -----------------------------------------------------------------
                    Redundant Internal Coordinates


    -----------------------------------------------------------------
         Definition                    Initial Value    Approx d2E/dq
    -----------------------------------------------------------------
      1. B(N   1,C   0)                  1.4711         0.415440   
      2. B(C   3,N   1)                  1.4638         0.426750   
      3. B(N   4,C   0)                  1.4431         0.460505   
      4. B(N   4,H   2)                  1.0155         0.424008   
      5. B(H   5,C   0)                  1.0942         0.354576   
      6. B(H   6,C   0)                  1.0984         0.349106   
      7. B(C   7,C   3)                  1.5438         0.355121   
      8. B(C   7,N   4)                  1.4533         0.443439   
      9. B(H   8,N   1)                  1.0115         0.430350   
     10. B(H   9,C   7)                  1.0876         0.363238   
     11. B(H  10,C   7)                  1.0947         0.353894   
     12. B(C  11,C   3)                  1.5338         0.368428   
     13. B(H  12,C   3)                  1.0930         0.356129   
     14. B(C  13,C  11)                  1.5270         0.377676   
     15. B(H  14,C  11)                  1.0920         0.357471   
     16. B(H  15,C  11)                  1.0883         0.362417   
     17. B(C  16,C  13)                  1.5343         0.367687   
     18. B(N  18,H  17)                  1.0165         0.422450   
     19. B(N  18,C  13)                  1.4535         0.443109   
     20. B(H  19,N  18)                  1.0148         0.425072   
     21. B(O  20,C  16)                  1.3623         0.619428   
     22. B(H  21,C  13)                  1.0938         0.355094   
     23. B(H  22,O  20)                  0.9685         0.503964   
     24. B(O  23,C  16)                  1.2153         1.063243   
     25. A(N   4,C   0,H   6)          109.2469         0.331988   
     26. A(N   1,C   0,N   4)          106.9484         0.378825   
     27. A(N   1,C   0,H   5)          109.5317         0.327226   
     28. A(N   4,C   0,H   5)          110.6527         0.332844   
     29. A(H   5,C   0,H   6)          109.6426         0.288728   
     30. A(N   1,C   0,H   6)          110.7891         0.326390   
     31. A(C   3,N   1,H   8)          114.2743         0.336501   
     32. A(C   0,N   1,H   8)          113.3668         0.335001   
     33. A(C   0,N   1,C   3)          108.1459         0.373874   
     34. A(C  11,C   3,H  12)          110.1248         0.322993   
     35. A(N   1,C   3,H  12)          111.0830         0.328916   
     36. A(C   7,C   3,C  11)          112.1539         0.359373   
     37. A(N   1,C   3,C   7)          102.8590         0.366217   
     38. A(N   1,C   3,C  11)          107.6998         0.368535   
     39. A(C   7,C   3,H  12)          112.6191         0.321053   
     40. A(C   0,N   4,H   2)          108.8492         0.339958   
     41. A(H   2,N   4,C   7)          109.5341         0.337822   
     42. A(C   0,N   4,C   7)          104.0537         0.383135   
     43. A(C   3,C   7,H   9)          113.2516         0.322093   
     44. A(C   3,C   7,N   4)          104.2733         0.368635   
     45. A(N   4,C   7,H  10)          108.1539         0.330664   
     46. A(C   3,C   7,H  10)          110.2469         0.320722   
     47. A(N   4,C   7,H   9)          111.5886         0.332093   
     48. A(H   9,C   7,H  10)          109.1487         0.290442   
     49. A(H  14,C  11,H  15)          108.6402         0.290798   
     50. A(C  13,C  11,H  15)          110.6413         0.325244   
     51. A(C   3,C  11,H  15)          111.5531         0.323922   
     52. A(C  13,C  11,H  14)          107.6276         0.324510   
     53. A(C   3,C  11,H  14)          110.0738         0.323192   
     54. A(C   3,C  11,C  13)          108.2294         0.363168   
     55. A(C  11,C  13,C  16)          108.1061         0.363043   
     56. A(N  18,C  13,H  21)          108.5641         0.330808   
     57. A(C  16,C  13,H  21)          108.5554         0.322732   
     58. A(C  11,C  13,H  21)          110.7219         0.324155   
     59. A(C  16,C  13,N  18)          110.6232         0.370797   
     60. A(C  11,C  13,N  18)          110.2592         0.372512   
     61. A(O  20,C  16,O  23)          121.1107         0.472400   
     62. A(C  13,C  16,O  23)          123.8853         0.432536   
     63. A(C  13,C  16,O  20)          111.5476         0.392993   
     64. A(H  17,N  18,H  19)          107.4031         0.301240   
     65. A(C  13,N  18,H  19)          109.9902         0.337921   
     66. A(C  13,N  18,H  17)          108.9895         0.337573   
     67. A(C  16,O  20,H  22)          108.9298         0.368077   
     68. D(C   3,N   1,C   0,H   5)    132.4080         0.014719   
     69. D(H   8,N   1,C   0,N   4)    140.2494         0.014719   
     70. D(C   3,N   1,C   0,N   4)     12.4519         0.014719   
     71. D(H   8,N   1,C   0,H   5)    -99.7946         0.014719   
     72. D(C   3,N   1,C   0,H   6)   -106.5148         0.014719   
     73. D(C  11,C   3,N   1,H   8)    124.5139         0.015527   
     74. D(H  12,C   3,N   1,C   0)    131.1188         0.015527   
     75. D(C   7,C   3,N   1,C   0)     10.4014         0.015527   
     76. D(C  11,C   3,N   1,C   0)   -108.2101         0.015527   
     77. D(C   7,C   3,N   1,H   8)   -116.8747         0.015527   
     78. D(C   7,N   4,C   0,N   1)    -31.4253         0.018103   
     79. D(H   2,N   4,C   0,H   5)    -33.9367         0.018103   
     80. D(H   2,N   4,C   0,N   1)     85.2974         0.018103   
     81. D(C   7,N   4,C   0,H   5)   -150.6594         0.018103   
     82. D(H   2,N   4,C   0,H   6)   -154.7413         0.018103   
     83. D(H  10,C   7,N   4,C   0)    -79.7988         0.016769   
     84. D(H   9,C   7,N   4,H   2)     43.8912         0.016769   
     85. D(H   9,C   7,N   4,C   0)    160.1354         0.016769   
     86. D(C   3,C   7,N   4,C   0)     37.5375         0.016769   
     87. D(H   9,C   7,C   3,H  12)     89.3615         0.010138   
     88. D(H   9,C   7,C   3,C  11)    -35.5345         0.010138   
     89. D(C   3,C   7,N   4,H   2)    -78.7068         0.016769   
     90. D(N   4,C   7,C   3,H  12)   -149.1365         0.010138   
     91. D(N   4,C   7,C   3,C  11)     85.9675         0.010138   
     92. D(N   4,C   7,C   3,N   1)    -29.4780         0.010138   
     93. D(H   9,C   7,C   3,N   1)   -150.9800         0.010138   
     94. D(H  14,C  11,C   3,N   1)     81.4317         0.010857   
     95. D(C  13,C  11,C   3,H  12)     85.3283         0.010857   
     96. D(C  13,C  11,C   3,C   7)   -148.4111         0.010857   
     97. D(H  14,C  11,C   3,C   7)    -31.0364         0.010857   
     98. D(C  13,C  11,C   3,N   1)    -35.9430         0.010857   
     99. D(H  14,C  11,C   3,H  12)   -157.2970         0.010857   
    100. D(N  18,C  13,C  11,H  15)    -61.4446         0.011376   
    101. D(N  18,C  13,C  11,H  14)     57.1150         0.011376   
    102. D(N  18,C  13,C  11,C   3)    176.0504         0.011376   
    103. D(C  16,C  13,C  11,H  15)    177.5117         0.011376   
    104. D(C  16,C  13,C  11,H  14)    -63.9287         0.011376   
    105. D(C  16,C  13,C  11,C   3)     55.0067         0.011376   
    106. D(O  23,C  16,C  13,N  18)    -56.6027         0.010133   
    107. D(O  23,C  16,C  13,C  11)     64.2145         0.010133   
    108. D(O  20,C  16,C  13,H  21)    -16.4984         0.010133   
    109. D(O  20,C  16,C  13,N  18)    102.5234         0.010133   
    110. D(O  20,C  16,C  13,C  11)   -136.6594         0.010133   
    111. D(H  19,N  18,C  13,C  16)    -62.8982         0.016744   
    112. D(H  19,N  18,C  13,C  11)    177.5731         0.016744   
    113. D(H  17,N  18,C  13,H  21)    173.6196         0.016744   
    114. D(H  17,N  18,C  13,C  16)     54.6031         0.016744   
    115. D(H  17,N  18,C  13,C  11)    -64.9257         0.016744   
    116. D(H  22,O  20,C  16,O  23)     -9.4729         0.028147   
    117. D(H  22,O  20,C  16,C  13)   -169.2615         0.028147   
    -----------------------------------------------------------------

Number of atoms                         .... 24
Number of degrees of freedom            .... 117


         *************************************************************
         *                GEOMETRY OPTIMIZATION CYCLE   1            *
         *************************************************************
---------------------------------
CARTESIAN COORDINATES (ANGSTROEM)
---------------------------------
  C     -8.641213    2.125798    0.408079
  N     -7.246506    2.473568    0.721034
  H     -9.286940    3.751085   -0.592967
  C     -7.208303    3.877479    1.133598
  N     -9.378803    3.364317    0.341522
  H     -8.680944    1.600922   -0.551201
  H     -9.070517    1.490511    1.194641
  C     -8.702902    4.229228    1.294024
  H     -6.811062    1.836102    1.374588
  H     -8.919700    5.278301    1.105869
  H     -9.048373    3.965757    2.298847
  C     -6.543769    4.676981    0.005919
  H     -6.645739    3.999052    2.062808
  C     -5.445145    3.812869   -0.609019
  H     -7.271564    4.894363   -0.778627
  H     -6.133786    5.616941    0.370178
  C     -6.072778    2.482296   -1.044685
  H     -5.546613    4.595756   -2.475692
  N     -4.846732    4.493122   -1.745646
  H     -4.090796    3.933222   -2.126416
  O     -5.284107    1.423385   -0.708979
  H     -4.660867    3.604184    0.124317
  H     -5.624102    0.627891   -1.144402
  O     -6.921029    2.384242   -1.909415

----------------------------
CARTESIAN COORDINATES (A.U.)
----------------------------
  NO LB      ZA    FRAG     MASS         X           Y           Z
   0 C     6.0000    0    12.011  -16.329526    4.017176    0.771158
   1 N     7.0000    0    14.007  -13.693911    4.674365    1.362557
   2 H     1.0000    0     1.008  -17.549773    7.088524   -1.120546
   3 C     6.0000    0    12.011  -13.621719    7.327373    2.142189
   4 N     7.0000    0    14.007  -17.723370    6.357639    0.645383
   5 H     1.0000    0     1.008  -16.404607    3.025304   -1.041619
   6 H     1.0000    0     1.008  -17.140794    2.816658    2.257544
   7 C     6.0000    0    12.011  -16.446101    7.992083    2.445351
   8 H     1.0000    0     1.008  -12.871042    3.469730    2.597596
   9 H     1.0000    0     1.008  -16.855790    9.974543    2.089789
  10 H     1.0000    0     1.008  -17.098947    7.494194    4.344192
  11 C     6.0000    0    12.011  -12.365931    8.838212    0.011185
  12 H     1.0000    0     1.008  -12.558626    7.557112    3.898142
  13 C     6.0000    0    12.011  -10.289832    7.205278   -1.150879
  14 H     1.0000    0     1.008  -13.741264    9.249006   -1.471392
  15 H     1.0000    0     1.008  -11.591176   10.614481    0.699535
  16 C     6.0000    0    12.011  -11.475888    4.690860   -1.974169
  17 H     1.0000    0     1.008  -10.481579    8.684721   -4.678380
  18 N     7.0000    0    14.007   -9.158997    8.490770   -3.298792
  19 H     1.0000    0     1.008   -7.730484    7.432712   -4.018343
  20 O     8.0000    0    15.999   -9.985515    2.689807   -1.339776
  21 H     1.0000    0     1.008   -8.807763    6.810920    0.234925
  22 H     1.0000    0     1.008  -10.628013    1.186543   -2.162606
  23 O     8.0000    0    15.999  -13.078849    4.505565   -3.608271

--------------------------------
INTERNAL COORDINATES (ANGSTROEM)
--------------------------------
 C      0   0   0     0.000000000000     0.00000000     0.00000000
 N      1   0   0     1.471085572185     0.00000000     0.00000000
 H      1   2   0     2.015096905480   102.63957423     0.00000000
 C      2   1   3     1.463774162019   108.14594347    41.60431278
 N      3   1   2     1.015528869227    42.66546362   257.69448485
 H      1   2   3     1.094208429424   109.53174004    90.80368000
 H      1   2   3     1.098440281031   110.78906631   211.88089925
 C      5   3   1     1.453331905201   109.53405719   113.16511542
 H      2   1   3     1.011487199382   113.36680389   169.40176269
 H      8   5   3     1.087638139154   111.58859276    43.89118735
 H      8   5   3     1.094731885760   108.15391253   163.95697361
 C      4   2   1     1.533776009221   107.69978037   251.78993367
 H      4   2   1     1.093018766625   111.08296685   131.11881079
 C     12   4   2     1.527027559890   108.22940415   324.05701143
 H     12   4   2     1.091994767487   110.07384351    81.43167059
 H     12   4   2     1.088254298569   111.55310450   202.11003380
 C     14  12   4     1.534324504733   108.10606724    55.00668799
 H     14  12   4     2.026740634826    96.67814373   150.42385588
 N     18  14  12     1.016530567099    42.69910230   121.18171248
 H     19  18  14     1.014846649973   107.40305830   119.12647443
 O     17  14  12     1.362349064794   111.54755721   223.34064871
 H     14  12   4     1.093810899736   110.72185024   296.21352613
 H     21  17  14     0.968503763091   108.92979329   190.73851169
 O     17  14  12     1.215278346523   123.88531937    64.21453498

---------------------------
INTERNAL COORDINATES (A.U.)
---------------------------
 C      0   0   0     0.000000000000     0.00000000     0.00000000
 N      1   0   0     2.779948850993     0.00000000     0.00000000
 H      1   2   0     3.807981284670   102.63957423     0.00000000
 C      2   1   3     2.766132288126   108.14594347    41.60431278
 N      3   1   2     1.919071443930    42.66546362   257.69448485
 H      1   2   3     2.067754265039   109.53174004    90.80368000
 H      1   2   3     2.075751305615   110.78906631   211.88089925
 C      5   3   1     2.746399282520   109.53405719   113.16511542
 H      2   1   3     1.911433794799   113.36680389   169.40176269
 H      8   5   3     2.055338215809   111.58859276    43.89118735
 H      8   5   3     2.068743454158   108.15391253   163.95697361
 C      4   2   1     2.898416608206   107.69978037   251.78993367
 H      4   2   1     2.065506128157   111.08296685   131.11881079
 C     12   4   2     2.885663887142   108.22940415   324.05701143
 H     12   4   2     2.063571050226   110.07384351    81.43167059
 H     12   4   2     2.056502588358   111.55310450   202.11003380
 C     14  12   4     2.899453114510   108.10606724    55.00668799
 H     14  12   4     3.829984744312    96.67814373   150.42385588
 N     18  14  12     1.920964378577    42.69910230   121.18171248
 H     19  18  14     1.917782236376   107.40305830   119.12647443
 O     17  14  12     2.574466631265   111.54755721   223.34064871
 H     14  12   4     2.067003042798   110.72185024   296.21352613
 H     21  17  14     1.830206871914   108.92979329   190.73851169
 O     17  14  12     2.296543251413   123.88531937    64.21453498

---------------------
BASIS SET INFORMATION
---------------------
There are 4 groups of distinct atoms

 Group   1 Type C   : 10s4p1d contracted to 3s2p1d pattern {631/31/1}
 Group   2 Type N   : 10s4p1d contracted to 3s2p1d pattern {631/31/1}
 Group   3 Type H   : 4s1p contracted to 2s1p pattern {31/1}
 Group   4 Type O   : 10s4p1d contracted to 3s2p1d pattern {631/31/1}

Atom   0C    basis set group =>   1
Atom   1N    basis set group =>   2
Atom   2H    basis set group =>   3
Atom   3C    basis set group =>   1
Atom   4N    basis set group =>   2
Atom   5H    basis set group =>   3
Atom   6H    basis set group =>   3
Atom   7C    basis set group =>   1
Atom   8H    basis set group =>   3
Atom   9H    basis set group =>   3
Atom  10H    basis set group =>   3
Atom  11C    basis set group =>   1
Atom  12H    basis set group =>   3
Atom  13C    basis set group =>   1
Atom  14H    basis set group =>   3
Atom  15H    basis set group =>   3
Atom  16C    basis set group =>   1
Atom  17H    basis set group =>   3
Atom  18N    basis set group =>   2
Atom  19H    basis set group =>   3
Atom  20O    basis set group =>   4
Atom  21H    basis set group =>   3
Atom  22H    basis set group =>   3
Atom  23O    basis set group =>   4
------------------------------------------------------------------------------
                             ORCA STARTUP CALCULATIONS
------------------------------------------------------------------------------
------------------------------------------------------------------------------
                   ___                                                        
                  /   \      - P O W E R E D   B Y -                         
                 /     \                                                     
                 |  |  |   _    _      __       _____    __    __             
                 |  |  |  | |  | |    /  \     |  _  \  |  |  /  |          
                  \  \/   | |  | |   /    \    | | | |  |  | /  /          
                 / \  \   | |__| |  /  /\  \   | |_| |  |  |/  /          
                |  |  |   |  __  | /  /__\  \  |    /   |      \           
                |  |  |   | |  | | |   __   |  |    \   |  |\   \          
                \     /   | |  | | |  |  |  |  | |\  \  |  | \   \       
                 \___/    |_|  |_| |__|  |__|  |_| \__\ |__|  \__/        
                                                                              
                      - O R C A' S   B I G   F R I E N D -                    
                                      &                                       
                       - I N T E G R A L  F E E D E R -                       
                                                                              
 v1 FN, 2020, v2 2021, v3 2022-2024                                           
------------------------------------------------------------------------------


----------------------
SHARK INTEGRAL PACKAGE
----------------------

Number of atoms                             ...     24
Number of basis functions                   ...    219
Number of shells                            ...    105
Maximum angular momentum                    ...      2
Integral batch strategy                     ... SHARK/LIBINT Hybrid
RI-J (if used) integral strategy            ... SPLIT-RIJ (Revised 2003 algorithm where possible)
Printlevel                                  ...      1
Contraction scheme used                     ... SEGMENTED contraction
Prescreening option                         ... SCHWARTZ
   Thresh                                   ... 2.500e-11
   Tcut                                     ... 2.500e-12
   Tpresel                                  ... 2.500e-12 
Coulomb Range Separation                    ... NOT USED
Exchange Range Separation                   ... NOT USED
Multipole approximations                    ... NOT USED
Finite Nucleus Model                        ... NOT USED
CABS basis                                  ... NOT available
Auxiliary Coulomb fitting basis             ... NOT available
Auxiliary J/K fitting basis                 ... NOT available
Auxiliary Correlation fitting basis         ... NOT available
Auxiliary 'external' fitting basis          ... NOT available

Checking pre-screening integrals            ... done (  0.0 sec) Dimension = 105
   => SHARK Basis and OBASIS are compatible. Storing Pre-screening
Shell pair information
Shell pair cut-off parameter TPreSel        ...   2.5e-12
Total number of shell pairs                 ...      5565
Shell pairs after pre-screening             ...      5042
Total number of primitive shell pairs       ...     26835
Primitive shell pairs kept                  ...     15955
          la=0 lb=0:   1604 shell pairs
          la=1 lb=0:   1862 shell pairs
          la=1 lb=1:    567 shell pairs
          la=2 lb=0:    595 shell pairs
          la=2 lb=1:    352 shell pairs
          la=2 lb=2:     62 shell pairs

Checking whether 4 symmetric matrices of dimension 219 fit in memory
:Max Core in MB      =   4096.00
 MB in use           =      7.99
 MB left             =   4088.01
 MB needed           =      0.74
 Data fit in memory  = YES
Calculating Nuclear repulsion               ... done (  0.0 sec) ENN=    709.360025208653 Eh

Diagonalization of the overlap matrix:
Smallest eigenvalue                        ... 2.235e-03
Time for diagonalization                   ...    0.003 sec
Threshold for overlap eigenvalues          ... 1.000e-07
Number of eigenvalues below threshold      ... 0
Time for construction of square roots      ...    0.001 sec
Total time needed                          ...    0.004 sec

-------------------
DFT GRID GENERATION
-------------------

General Integration Accuracy     IntAcc      ... 4.388
Radial Grid Type                 RadialGrid  ... OptM3 with GC (2021)
Angular Grid (max. ang.)         AngularGrid ... 4 (Lebedev-302)
Angular grid pruning method      GridPruning ... 4 (adaptive)
Weight generation scheme         WeightScheme... mBecke (2022)
Basis function cutoff            BFCut       ... 1.0000e-11
Integration weight cutoff        WCut        ... 1.0000e-14
Partially contracted basis set               ... off
Rotationally invariant grid construction     ... off
Angular grids for H and He will be reduced by one unit

Total number of grid points                  ...   107170
Total number of batches                      ...     1687
Average number of points per batch           ...       63
Average number of grid points per atom       ...     4465
Grids setup in   0.5 sec
Initializing property integral containers    ... done (  0.0 sec)

SHARK setup successfully completed in   0.6 seconds

Maximum memory used throughout the entire STARTUP-calculation: 44.1 MB
-------------------------------------------------------------------------------
                                 ORCA GUESS
                   Start orbitals & Density for SCF / CASSCF
-------------------------------------------------------------------------------

------------
SCF SETTINGS
------------
Hamiltonian:
 Ab initio Hamiltonian  Method          .... Hartree-Fock(GTOs)


General Settings:
 Integral files         IntName         .... 1
 Hartree-Fock type      HFTyp           .... RHF
 Total Charge           Charge          ....    0
 Multiplicity           Mult            ....    1
 Number of Electrons    NEL             ....   86
 Basis Dimension        Dim             ....  219
 Nuclear Repulsion      ENuc            ....    709.3600252087 Eh

Convergence Acceleration:
 AO-DIIS                CNVDIIS         .... on
   Start iteration      DIISMaxIt       ....    12
   Startup error        DIISStart       ....  0.200000
   # of expansion vecs  DIISMaxEq       ....     5
   Bias factor          DIISBfac        ....   1.050
   Max. coefficient     DIISMaxC        ....  10.000
 MO-DIIS                CNVKDIIS        .... off
 Trust-Rad. Augm. Hess. CNVTRAH         .... auto
   Auto Start mean grad. ratio tolernc. ....  1.125000
   Auto Start start iteration           ....    50
   Auto Start num. interpolation iter.  ....    10
   Max. Number of Micro iterations      ....    24
   Max. Number of Macro iterations      .... Maxiter - #DIIS iter
   Number of Davidson start vectors     ....     2
   Converg. threshold    (grad. norm)   ....   1.000e-05
   Grad. Scal. Fac. for Micro threshold ....   0.100
   Minimum threshold for Micro iter.    ....   1.000e-02
   NR start threshold (gradient norm)   ....   1.000e-04
   Initial trust radius                 ....   0.400
   Minimum AH scaling param. (alpha)    ....   1.000
   Maximum AH scaling param. (alpha)    .... 1000.000
   Quad. conv. algorithm                .... NR
   White noise on init. David. guess    .... on
   Maximum white noise                  ....   0.010
   Pseudo random numbers                .... off
   Inactive MOs                         .... canonical
   Orbital update algorithm             .... Taylor
   Preconditioner                       .... Diag
   Full preconditioner red. dimension   ....   250
 SOSCF                 CNVSOSCF           .... on
   Start iteration     SOSCFMaxIt         ....   150
   Startup grad/error  SOSCFStart         ....  0.003300
   Hessian update      SOSCFHessUp        .... L-BFGS
   Autom. constraints  SOSCFAutoConstrain .... off
 Level Shifting         CNVShift        .... on
   Level shift para.    LevelShift      ....    0.2500
   Turn off err/grad.   ShiftErr        ....    0.0010
 Zerner damping         CNVZerner       .... off
 Static damping         CNVDamp         .... on
   Fraction old density DampFac         ....    0.7000
   Max. Damping (<1)    DampMax         ....    0.9800
   Min. Damping (>=0)   DampMin         ....    0.0000
   Turn off err/grad.   DampErr         ....    0.1000

SCF Procedure:
 Maximum # iterations   MaxIter         ....   125
 SCF integral mode      SCFMode         .... Direct
   Integral package                     .... SHARK and LIBINT hybrid scheme
 Reset frequency        DirectResetFreq ....    20
 Integral Threshold     Thresh          ....  2.500e-11 Eh
 Primitive CutOff       TCut            ....  2.500e-12 Eh

Convergence Tolerance:
 Convergence Check Mode ConvCheckMode   .... Total+1el-Energy
 Convergence forced     ConvForced      .... 1
 Energy Change          TolE            ....  1.000e-08 Eh
 1-El. energy change                    ....  1.000e-05 Eh
 Orbital Gradient       TolG            ....  1.000e-05
 Orbital Rotation angle TolX            ....  1.000e-05
 DIIS Error             TolErr          ....  5.000e-07

------------------------------
INITIAL GUESS: MODEL POTENTIAL
------------------------------
Loading Hartree-Fock densities                     ... done
Calculating cut-offs                               ... done
Initializing the effective Hamiltonian             ... done
Setting up the integral package (SHARK)            ... done
Starting the Coulomb interaction                   ... done (   0.1 sec)
Making the grid                                    ... done (   0.1 sec)
Mapping shells                                     ... done
Starting the XC term evaluation                    ... done (   0.1 sec)
Transforming the Hamiltonian                       ... done (   0.0 sec)
Diagonalizing the Hamiltonian                      ... done (   0.0 sec)
Back transforming the eigenvectors                 ... done (   0.0 sec)
Now organizing SCF variables                       ... done
                      ------------------
                      INITIAL GUESS DONE (   0.3 sec)
                      ------------------
             **** ENERGY FILE WAS UPDATED (1.en.tmp) ****
Finished Guess after   0.3 sec
Maximum memory used throughout the entire GUESS-calculation: 14.4 MB

-------------------------------------------------------------------------------------------
                                      ORCA LEAN-SCF
                              memory conserving SCF solver
-------------------------------------------------------------------------------------------

----------------------------------------D-I-I-S--------------------------------------------
Iteration    Energy (Eh)           Delta-E    RMSDP     MaxDP     DIISErr   Damp  Time(sec)
-------------------------------------------------------------------------------------------
               ***  Starting incremental Fock matrix formation  ***
    1    -547.3829976867017422     0.00e+00  2.38e-03  6.41e-02  2.54e-01  0.700   3.6
    2    -547.5502028616787129    -1.67e-01  1.79e-03  4.59e-02  1.51e-01  0.700   3.3
                               ***Turning on AO-DIIS***
    3    -547.6486647176872111    -9.85e-02  9.98e-04  2.13e-02  8.55e-02  0.700   3.3
    4    -547.7110403371760867    -6.24e-02  2.34e-03  5.28e-02  5.77e-02  0.000   3.3
    5    -547.8507286711152346    -1.40e-01  2.69e-04  5.07e-03  5.64e-03  0.000   3.4
                              *** Initializing SOSCF ***
---------------------------------------S-O-S-C-F--------------------------------------
Iteration    Energy (Eh)           Delta-E    RMSDP     MaxDP     MaxGrad    Time(sec)
--------------------------------------------------------------------------------------
    6    -547.8513238049712299    -5.95e-04  1.36e-04  2.72e-03  2.86e-03     3.1
               *** Restarting incremental Fock matrix formation ***
    7    -547.8514492882580953    -1.25e-04  7.68e-05  1.99e-03  6.59e-04     3.6
    8    -547.8514799369607999    -3.06e-05  7.10e-05  1.92e-03  3.46e-04     2.9
    9    -547.8514889762815301    -9.04e-06  1.24e-05  2.36e-04  1.34e-04     2.9
   10    -547.8514897009882816    -7.25e-07  4.77e-06  1.05e-04  2.53e-05     2.6
   11    -547.8514897801529742    -7.92e-08  2.00e-06  6.37e-05  1.08e-05     2.4
   12    -547.8514897947021609    -1.45e-08  4.63e-07  9.24e-06  2.38e-06     2.2
                  *** Gradient check signals convergence ***

               *****************************************************
               *                     SUCCESS                       *
               *           SCF CONVERGED AFTER  12 CYCLES          *
               *****************************************************

             **** ENERGY FILE WAS UPDATED (1.en.tmp) ****

----------------
TOTAL SCF ENERGY
----------------

Total Energy       :       -547.85148979768417 Eh          -14907.79694 eV

Components:
Nuclear Repulsion  :        709.36002520865270 Eh           19302.66761 eV
Electronic Energy  :      -1257.21151500633687 Eh          -34210.46455 eV
One Electron Energy:      -2157.13214897891066 Eh          -58698.54995 eV
Two Electron Energy:        899.92063397257380 Eh           24488.08540 eV

Virial components:
Potential Energy   :      -1095.23314590899645 Eh          -29802.80905 eV
Kinetic Energy     :        547.38165611131217 Eh           14895.01211 eV
Virial Ratio       :          2.00085832925003

---------------
SCF CONVERGENCE
---------------

  Last Energy change         ...    1.4549e-08  Tolerance :   1.0000e-08
  Last MAX-Density change    ...    9.2363e-06  Tolerance :   1.0000e-07
  Last RMS-Density change    ...    4.6277e-07  Tolerance :   5.0000e-09
  Last DIIS Error            ...    2.8596e-03  Tolerance :   5.0000e-07
  Last Orbital Gradient      ...    2.3761e-06  Tolerance :   1.0000e-05
  Last Orbital Rotation      ...    4.2977e-06  Tolerance :   1.0000e-05


----------------
ORBITAL ENERGIES
----------------

  NO   OCC          E(Eh)            E(eV) 
   0   2.0000     -20.588158      -560.2323 
   1   2.0000     -20.511651      -558.1504 
   2   2.0000     -15.564117      -423.5212 
   3   2.0000     -15.549267      -423.1171 
   4   2.0000     -15.543736      -422.9666 
   5   2.0000     -11.370675      -309.4118 
   6   2.0000     -11.276023      -306.8362 
   7   2.0000     -11.264179      -306.5139 
   8   2.0000     -11.259942      -306.3986 
   9   2.0000     -11.253994      -306.2368 
  10   2.0000     -11.223310      -305.4018 
  11   2.0000      -1.434040       -39.0222 
  12   2.0000      -1.327432       -36.1213 
  13   2.0000      -1.284171       -34.9441 
  14   2.0000      -1.190835       -32.4043 
  15   2.0000      -1.156288       -31.4642 
  16   2.0000      -1.050409       -28.5831 
  17   2.0000      -0.973062       -26.4784 
  18   2.0000      -0.899809       -24.4850 
  19   2.0000      -0.841497       -22.8983 
  20   2.0000      -0.805836       -21.9279 
  21   2.0000      -0.771312       -20.9885 
  22   2.0000      -0.723228       -19.6800 
  23   2.0000      -0.697391       -18.9770 
  24   2.0000      -0.686181       -18.6719 
  25   2.0000      -0.667483       -18.1631 
  26   2.0000      -0.647678       -17.6242 
  27   2.0000      -0.641984       -17.4693 
  28   2.0000      -0.596455       -16.2304 
  29   2.0000      -0.585842       -15.9416 
  30   2.0000      -0.579257       -15.7624 
  31   2.0000      -0.560218       -15.2443 
  32   2.0000      -0.541933       -14.7468 
  33   2.0000      -0.537032       -14.6134 
  34   2.0000      -0.521169       -14.1817 
  35   2.0000      -0.505067       -13.7436 
  36   2.0000      -0.492125       -13.3914 
  37   2.0000      -0.484385       -13.1808 
  38   2.0000      -0.460134       -12.5209 
  39   2.0000      -0.433744       -11.8028 
  40   2.0000      -0.396484       -10.7889 
  41   2.0000      -0.384558       -10.4643 
  42   2.0000      -0.363350        -9.8873 
  43   0.0000       0.208947         5.6857 
  44   0.0000       0.223438         6.0800 
  45   0.0000       0.228151         6.2083 
  46   0.0000       0.240449         6.5429 
  47   0.0000       0.257337         7.0025 
  48   0.0000       0.275279         7.4907 
  49   0.0000       0.282639         7.6910 
  50   0.0000       0.298909         8.1337 
  51   0.0000       0.304546         8.2871 
  52   0.0000       0.314990         8.5713 
  53   0.0000       0.328747         8.9456 
*Only the first 10 virtual orbitals were printed.

                    ********************************
                    * MULLIKEN POPULATION ANALYSIS *
                    ********************************

-----------------------
MULLIKEN ATOMIC CHARGES
-----------------------
   0 C :    0.185871
   1 N :   -0.764635
   2 H :    0.287298
   3 C :    0.065235
   4 N :   -0.626607
   5 H :    0.154792
   6 H :    0.114589
   7 C :   -0.056257
   8 H :    0.301946
   9 H :    0.130627
  10 H :    0.125492
  11 C :   -0.210636
  12 H :    0.129592
  13 C :    0.008863
  14 H :    0.117712
  15 H :    0.140166
  16 C :    0.893526
  17 H :    0.280403
  18 N :   -0.694655
  19 H :    0.272461
  20 O :   -0.676960
  21 H :    0.142029
  22 H :    0.354989
  23 O :   -0.675842
Sum of atomic charges:   -0.0000000

--------------------------------
MULLIKEN REDUCED ORBITAL CHARGES
--------------------------------
  0 C s       :     3.113847  s :     3.113847
      pz      :     1.079301  p :     2.621226
      px      :     0.688609
      py      :     0.853316
      dz2     :     0.013293  d :     0.079057
      dxz     :     0.010799
      dyz     :     0.016524
      dx2y2   :     0.020948
      dxy     :     0.017493

  1 N s       :     3.647500  s :     3.647500
      pz      :     1.585916  p :     4.080078
      px      :     1.331839
      py      :     1.162323
      dz2     :     0.004466  d :     0.037057
      dxz     :     0.004321
      dyz     :     0.010250
      dx2y2   :     0.011723
      dxy     :     0.006299

  2 H s       :     0.686576  s :     0.686576
      pz      :     0.014223  p :     0.026125
      px      :     0.006773
      py      :     0.005129

  3 C s       :     3.170625  s :     3.170625
      pz      :     0.991285  p :     2.696247
      px      :     0.964862
      py      :     0.740100
      dz2     :     0.012152  d :     0.067893
      dxz     :     0.012554
      dyz     :     0.013711
      dx2y2   :     0.019763
      dxy     :     0.009712

  4 N s       :     3.628134  s :     3.628134
      pz      :     1.175060  p :     3.956119
      px      :     1.687911
      py      :     1.093148
      dz2     :     0.009774  d :     0.042354
      dxz     :     0.006241
      dyz     :     0.009800
      dx2y2   :     0.003519
      dxy     :     0.013021

  5 H s       :     0.832598  s :     0.832598
      pz      :     0.008531  p :     0.012610
      px      :     0.001154
      py      :     0.002925

  6 H s       :     0.873758  s :     0.873758
      pz      :     0.005370  p :     0.011653
      px      :     0.002582
      py      :     0.003701

  7 C s       :     3.204452  s :     3.204452
      pz      :     0.952935  p :     2.788045
      px      :     0.854240
      py      :     0.980869
      dz2     :     0.016722  d :     0.063760
      dxz     :     0.010543
      dyz     :     0.010744
      dx2y2   :     0.016976
      dxy     :     0.008774

  8 H s       :     0.672704  s :     0.672704
      pz      :     0.009778  p :     0.025350
      px      :     0.007035
      py      :     0.008537

  9 H s       :     0.856930  s :     0.856930
      pz      :     0.001655  p :     0.012443
      px      :     0.002011
      py      :     0.008777

 10 H s       :     0.862590  s :     0.862590
      pz      :     0.007690  p :     0.011918
      px      :     0.002420
      py      :     0.001807

 11 C s       :     3.230241  s :     3.230241
      pz      :     0.966257  p :     2.933466
      px      :     0.968368
      py      :     0.998841
      dz2     :     0.005429  d :     0.046929
      dxz     :     0.014041
      dyz     :     0.010092
      dx2y2   :     0.006723
      dxy     :     0.010644

 12 H s       :     0.858228  s :     0.858228
      pz      :     0.007163  p :     0.012179
      px      :     0.003687
      py      :     0.001329

 13 C s       :     3.193196  s :     3.193196
      pz      :     0.893282  p :     2.727395
      px      :     0.962026
      py      :     0.872087
      dz2     :     0.012850  d :     0.070546
      dxz     :     0.018444
      dyz     :     0.013108
      dx2y2   :     0.009935
      dxy     :     0.016208

 14 H s       :     0.869743  s :     0.869743
      pz      :     0.005691  p :     0.012545
      px      :     0.004909
      py      :     0.001945

 15 H s       :     0.847240  s :     0.847240
      pz      :     0.002416  p :     0.012594
      px      :     0.002878
      py      :     0.007299

 16 C s       :     2.945514  s :     2.945514
      pz      :     0.631194  p :     2.015517
      px      :     0.630458
      py      :     0.753865
      dz2     :     0.029540  d :     0.145443
      dxz     :     0.022675
      dyz     :     0.027582
      dx2y2   :     0.024028
      dxy     :     0.041617

 17 H s       :     0.693618  s :     0.693618
      pz      :     0.009790  p :     0.025980
      px      :     0.009423
      py      :     0.006766

 18 N s       :     3.614360  s :     3.614360
      pz      :     1.166276  p :     4.045398
      px      :     1.241788
      py      :     1.637334
      dz2     :     0.003315  d :     0.034897
      dxz     :     0.013550
      dyz     :     0.007609
      dx2y2   :     0.002635
      dxy     :     0.007786

 19 H s       :     0.701471  s :     0.701471
      pz      :     0.005375  p :     0.026068
      px      :     0.011836
      py      :     0.008857

 20 O s       :     3.852114  s :     3.852114
      pz      :     1.793527  p :     4.799988
      px      :     1.714744
      py      :     1.291718
      dz2     :     0.002926  d :     0.024857
      dxz     :     0.003698
      dyz     :     0.005810
      dx2y2   :     0.002805
      dxy     :     0.009617

 21 H s       :     0.846012  s :     0.846012
      pz      :     0.004750  p :     0.011958
      px      :     0.005400
      py      :     0.001808

 22 H s       :     0.603617  s :     0.603617
      pz      :     0.012182  p :     0.041395
      px      :     0.009562
      py      :     0.019650

 23 O s       :     3.884640  s :     3.884640
      pz      :     1.457322  p :     4.760895
      px      :     1.479268
      py      :     1.824306
      dz2     :     0.009354  d :     0.030307
      dxz     :     0.008986
      dyz     :     0.003594
      dx2y2   :     0.005165
      dxy     :     0.003209



                     *******************************
                     * LOEWDIN POPULATION ANALYSIS *
                     *******************************

----------------------
LOEWDIN ATOMIC CHARGES
----------------------
   0 C :    0.037246
   1 N :   -0.199018
   2 H :    0.133561
   3 C :   -0.005439
   4 N :   -0.235963
   5 H :    0.074345
   6 H :    0.051057
   7 C :   -0.038687
   8 H :    0.136791
   9 H :    0.067066
  10 H :    0.061407
  11 C :   -0.111991
  12 H :    0.061272
  13 C :   -0.015534
  14 H :    0.063988
  15 H :    0.073532
  16 C :    0.246480
  17 H :    0.133513
  18 N :   -0.278148
  19 H :    0.129840
  20 O :   -0.245947
  21 H :    0.070527
  22 H :    0.187362
  23 O :   -0.397261

-------------------------------
LOEWDIN REDUCED ORBITAL CHARGES
-------------------------------
  0 C s       :     2.871304  s :     2.871304
      pz      :     1.086246  p :     2.932735
      px      :     0.872182
      py      :     0.974307
      dz2     :     0.024793  d :     0.158715
      dxz     :     0.022317
      dyz     :     0.030518
      dx2y2   :     0.044978
      dxy     :     0.036109

  1 N s       :     3.167004  s :     3.167004
      pz      :     1.500322  p :     3.957651
      px      :     1.295427
      py      :     1.161903
      dz2     :     0.007535  d :     0.074362
      dxz     :     0.009952
      dyz     :     0.017863
      dx2y2   :     0.024020
      dxy     :     0.014991

  2 H s       :     0.783380  s :     0.783380
      pz      :     0.042495  p :     0.083058
      px      :     0.024198
      py      :     0.016365

  3 C s       :     2.874673  s :     2.874673
      pz      :     1.044811  p :     2.991288
      px      :     1.041068
      py      :     0.905409
      dz2     :     0.022859  d :     0.139478
      dxz     :     0.023298
      dyz     :     0.030974
      dx2y2   :     0.040917
      dxy     :     0.021431

  4 N s       :     3.180086  s :     3.180086
      pz      :     1.182077  p :     3.974356
      px      :     1.650908
      py      :     1.141372
      dz2     :     0.019548  d :     0.081521
      dxz     :     0.009098
      dyz     :     0.021603
      dx2y2   :     0.008711
      dxy     :     0.022560

  5 H s       :     0.885073  s :     0.885073
      pz      :     0.025909  p :     0.040582
      px      :     0.004151
      py      :     0.010522

  6 H s       :     0.911105  s :     0.911105
      pz      :     0.016731  p :     0.037838
      px      :     0.008431
      py      :     0.012675

  7 C s       :     2.888013  s :     2.888013
      pz      :     1.015697  p :     3.025819
      px      :     0.983472
      py      :     1.026651
      dz2     :     0.032843  d :     0.124855
      dxz     :     0.021016
      dyz     :     0.019478
      dx2y2   :     0.033777
      dxy     :     0.017741

  8 H s       :     0.776849  s :     0.776849
      pz      :     0.035527  p :     0.086360
      px      :     0.023824
      py      :     0.027009

  9 H s       :     0.893565  s :     0.893565
      pz      :     0.006487  p :     0.039369
      px      :     0.006917
      py      :     0.025965

 10 H s       :     0.900074  s :     0.900074
      pz      :     0.023220  p :     0.038519
      px      :     0.008341
      py      :     0.006958

 11 C s       :     2.895768  s :     2.895768
      pz      :     1.040054  p :     3.126093
      px      :     1.035514
      py      :     1.050525
      dz2     :     0.011036  d :     0.090131
      dxz     :     0.026648
      dyz     :     0.019497
      dx2y2   :     0.012458
      dxy     :     0.020491

 12 H s       :     0.899072  s :     0.899072
      pz      :     0.021605  p :     0.039656
      px      :     0.012450
      py      :     0.005602

 13 C s       :     2.871633  s :     2.871633
      pz      :     0.978613  p :     3.002822
      px      :     1.026612
      py      :     0.997597
      dz2     :     0.026196  d :     0.141079
      dxz     :     0.034691
      dyz     :     0.026538
      dx2y2   :     0.020105
      dxy     :     0.033548

 14 H s       :     0.895530  s :     0.895530
      pz      :     0.017214  p :     0.040482
      px      :     0.015472
      py      :     0.007796

 15 H s       :     0.885859  s :     0.885859
      pz      :     0.008609  p :     0.040609
      px      :     0.009748
      py      :     0.022252

 16 C s       :     2.857717  s :     2.857717
      pz      :     0.801133  p :     2.578035
      px      :     0.845212
      py      :     0.931690
      dz2     :     0.060743  d :     0.317768
      dxz     :     0.053329
      dyz     :     0.059585
      dx2y2   :     0.049784
      dxy     :     0.094326

 17 H s       :     0.784684  s :     0.784684
      pz      :     0.030399  p :     0.081803
      px      :     0.028992
      py      :     0.022412

 18 N s       :     3.191804  s :     3.191804
      pz      :     1.187504  p :     4.024869
      px      :     1.234032
      py      :     1.603333
      dz2     :     0.007946  d :     0.061475
      dxz     :     0.023990
      dyz     :     0.012939
      dx2y2   :     0.004570
      dxy     :     0.012031

 19 H s       :     0.788726  s :     0.788726
      pz      :     0.016877  p :     0.081435
      px      :     0.034315
      py      :     0.030243

 20 O s       :     3.470720  s :     3.470720
      pz      :     1.753344  p :     4.728869
      px      :     1.691547
      py      :     1.283979
      dz2     :     0.004999  d :     0.046357
      dxz     :     0.004846
      dyz     :     0.010365
      dx2y2   :     0.009183
      dxy     :     0.016965

 21 H s       :     0.890141  s :     0.890141
      pz      :     0.015454  p :     0.039332
      px      :     0.017486
      py      :     0.006392

 22 H s       :     0.691264  s :     0.691264
      pz      :     0.036830  p :     0.121374
      px      :     0.030283
      py      :     0.054262

 23 O s       :     3.548972  s :     3.548972
      pz      :     1.496418  p :     4.793899
      px      :     1.513534
      py      :     1.783946
      dz2     :     0.011393  d :     0.054391
      dxz     :     0.021333
      dyz     :     0.006730
      dx2y2   :     0.008402
      dxy     :     0.006533



                      *****************************
                      * MAYER POPULATION ANALYSIS *
                      *****************************

  NA   - Mulliken gross atomic population
  ZA   - Total nuclear charge
  QA   - Mulliken gross atomic charge
  VA   - Mayer's total valence
  BVA  - Mayer's bonded valence
  FA   - Mayer's free valence

  ATOM       NA         ZA         QA         VA         BVA        FA
  0 C      5.8141     6.0000     0.1859     3.6970     3.6970    -0.0000
  1 N      7.7646     7.0000    -0.7646     2.6623     2.6623    -0.0000
  2 H      0.7127     1.0000     0.2873     0.8978     0.8978    -0.0000
  3 C      5.9348     6.0000     0.0652     3.6697     3.6697     0.0000
  4 N      7.6266     7.0000    -0.6266     2.7589     2.7589    -0.0000
  5 H      0.8452     1.0000     0.1548     0.9558     0.9558    -0.0000
  6 H      0.8854     1.0000     0.1146     0.9446     0.9446    -0.0000
  7 C      6.0563     6.0000    -0.0563     3.7922     3.7922    -0.0000
  8 H      0.6981     1.0000     0.3019     0.8940     0.8940    -0.0000
  9 H      0.8694     1.0000     0.1306     0.9537     0.9537    -0.0000
 10 H      0.8745     1.0000     0.1255     0.9462     0.9462     0.0000
 11 C      6.2106     6.0000    -0.2106     3.7666     3.7666    -0.0000
 12 H      0.8704     1.0000     0.1296     0.9501     0.9501    -0.0000
 13 C      5.9911     6.0000     0.0089     3.7556     3.7556     0.0000
 14 H      0.8823     1.0000     0.1177     0.9613     0.9613    -0.0000
 15 H      0.8598     1.0000     0.1402     0.9524     0.9524     0.0000
 16 C      5.1065     6.0000     0.8935     3.5604     3.5604     0.0000
 17 H      0.7196     1.0000     0.2804     0.9083     0.9083    -0.0000
 18 N      7.6947     7.0000    -0.6947     2.7700     2.7700    -0.0000
 19 H      0.7275     1.0000     0.2725     0.9047     0.9047    -0.0000
 20 O      8.6770     8.0000    -0.6770     1.7656     1.7656    -0.0000
 21 H      0.8580     1.0000     0.1420     0.9450     0.9450     0.0000
 22 H      0.6450     1.0000     0.3550     0.8865     0.8865    -0.0000
 23 O      8.6758     8.0000    -0.6758     1.7878     1.7878    -0.0000

  Mayer bond orders larger than 0.100000
B(  0-C ,  1-N ) :   0.8428 B(  0-C ,  4-N ) :   0.9639 B(  0-C ,  5-H ) :   0.9601 
B(  0-C ,  6-H ) :   0.9738 B(  1-N ,  3-C ) :   0.8800 B(  1-N ,  8-H ) :   0.8927 
B(  1-N , 16-C ) :   0.1125 B(  2-H ,  4-N ) :   0.8972 B(  3-C ,  7-C ) :   0.9596 
B(  3-C , 11-C ) :   0.9512 B(  3-C , 12-H ) :   0.9729 B(  4-N ,  7-C ) :   0.9442 
B(  7-C ,  9-H ) :   0.9770 B(  7-C , 10-H ) :   0.9697 B( 11-C , 13-C ) :   0.9718 
B( 11-C , 14-H ) :   0.9662 B( 11-C , 15-H ) :   0.9706 B( 13-C , 16-C ) :   0.8997 
B( 13-C , 18-N ) :   0.9850 B( 13-C , 21-H ) :   0.9623 B( 16-C , 20-O ) :   0.9035 
B( 16-C , 23-O ) :   1.6939 B( 17-H , 18-N ) :   0.8971 B( 18-N , 19-H ) :   0.9088 
B( 20-O , 22-H ) :   0.8530 

-------
TIMINGS
-------

Total SCF time: 0 days 0 hours 0 min 38 sec 

Total time                  ....      38.709 sec
Sum of individual times     ....      36.727 sec  ( 94.9%)

SCF preparation             ....       0.023 sec  (  0.1%)
Fock matrix formation       ....      36.541 sec  ( 94.4%)
  Startup                   ....       0.001 sec  (  0.0% of F)
  Coulomb+Exchange Fock     ....      38.487 sec  (105.3% of F)
Diagonalization             ....       0.000 sec  (  0.0%)
Density matrix formation    ....       0.093 sec  (  0.2%)
Total Energy calculation    ....       0.001 sec  (  0.0%)
Population analysis         ....       0.003 sec  (  0.0%)
Orbital Transformation      ....       0.008 sec  (  0.0%)
Orbital Orthonormalization  ....       0.000 sec  (  0.0%)
DIIS solution               ....       0.036 sec  (  0.1%)
SOSCF solution              ....       0.020 sec  (  0.1%)
Finished LeanSCF after  38.7 sec

Maximum memory used throughout the entire LEANSCF-calculation: 18.0 MB

------------------------------------------------------------------------------
                                ORCA  MP2 
------------------------------------------------------------------------------

Freezing NCore=22 chemical core electrons
MP2 will be done in the AO integral direct mode
The Q1-step will be done using symmetric double matrices
Dimension of the basis                    ...  219
Memory devoted for MP2                    ... 4096 MB   
Memory needed for all in one shot         ... 1289 MB
Number of MOs that can be treated together...  100      
MP2 density construction                  ... relaxed
The MP2 gradient is requested => amplitudes will be stored on disk
Total number of MOs              ...   32
Number of MOs treated per batch  ...   32 
Number of batches necessary      ...    1 
OPERATORS   0/  0 PASS   0
-----------------------------------------------
 MP2 CORRELATION ENERGY   :     -1.690715317 Eh
-----------------------------------------------


---------------------
MP2 DENSITY FORMATION
---------------------

Completing the external part of the density      ... done
Storing the unrelaxed density                    ... done

Calculating G(D)                                 ... done
Completing the Lagrangian                        ... done
Solving the Z-vector equations                   ... 
-------------------
SHARK CP-SCF DRIVER
-------------------

Dimension of the orbital basis          ...    219
Dimension of the CPSCF-problem          ...   7568
Number of operators                     ...      1
Max. number of iterations               ...    128
Convergence Tolerance                   ... 1.0e-04
Number of perturbations                 ...      1
Perturbation type                       ... REAL

----------------------------
POPLE LINEAR EQUATION SOLVER
----------------------------

  ITERATION   0:   ||err||_max =   1.4600e-01 (   4.5 sec)
  ITERATION   1:   ||err||_max =   4.0555e-02 (   4.6 sec)
  ITERATION   2:   ||err||_max =   1.6227e-02 (   4.7 sec)
  ITERATION   3:   ||err||_max =   4.6209e-03 (   4.6 sec)
  ITERATION   4:   ||err||_max =   1.7195e-03 (   4.7 sec)
  ITERATION   5:   ||err||_max =   5.9293e-04 (   4.7 sec)
  ITERATION   6:   ||err||_max =   2.2063e-04 (   4.7 sec)
  ITERATION   7:   ||err||_max =   7.4540e-05 (   4.7 sec)
                                                 ... done
Finalizing the relaxed density                   ... done
Transforming P to the AO basis                   ... done
Storing the relaxed density                      ... done

------------------------------------
ENERGY WEIGHTED DENSITY FINALIZATION
------------------------------------

Gathering the parts of the W-matrix              ...                                                      done
Forming the Z-density                            ... done
Transforming Z to the AO basis                   ... done
Calculating G(Z)                                 ... done
Finalizing the W-matrix                          ...                                                      done
Transforming W to the AO basis and storing       ... done

                *********************************************
                * UNRELAXED MP2 DENSITY POPULATION ANALYSIS *
                *********************************************

------------------------------------------------------------------------------
                           ORCA POPULATION ANALYSIS
------------------------------------------------------------------------------
Input electron density              ... 1.pmp2ur
BaseName (.gbw .S,...)              ... 1

                    ********************************
                    * MULLIKEN POPULATION ANALYSIS *
                    ********************************

-----------------------
MULLIKEN ATOMIC CHARGES
-----------------------
   0 C :    0.174404
   1 N :   -0.748439
   2 H :    0.285698
   3 C :    0.058701
   4 N :   -0.615481
   5 H :    0.154952
   6 H :    0.115639
   7 C :   -0.062577
   8 H :    0.300307
   9 H :    0.131649
  10 H :    0.126481
  11 C :   -0.212423
  12 H :    0.130542
  13 C :    0.002718
  14 H :    0.118248
  15 H :    0.141040
  16 C :    0.856106
  17 H :    0.278725
  18 N :   -0.686612
  19 H :    0.271275
  20 O :   -0.663448
  21 H :    0.142789
  22 H :    0.351600
  23 O :   -0.651893
Sum of atomic charges:   -0.0000000

--------------------------------
MULLIKEN REDUCED ORBITAL CHARGES
--------------------------------
  0 C s       :     3.112699  s :     3.112699
      pz      :     1.075211  p :     2.620011
      px      :     0.691657
      py      :     0.853143
      dz2     :     0.016070  d :     0.092886
      dxz     :     0.013791
      dyz     :     0.019455
      dx2y2   :     0.023508
      dxy     :     0.020062
  1 N s       :     3.641395  s :     3.641395
      pz      :     1.570842  p :     4.045161
      px      :     1.320297
      py      :     1.154022
      dz2     :     0.009571  d :     0.061883
      dxz     :     0.009683
      dyz     :     0.015140
      dx2y2   :     0.016195
      dxy     :     0.011293
  2 H s       :     0.686087  s :     0.686087
      pz      :     0.014578  p :     0.028215
      px      :     0.007702
      py      :     0.005934
  3 C s       :     3.167636  s :     3.167636
      pz      :     0.987612  p :     2.690022
      px      :     0.960386
      py      :     0.742024
      dz2     :     0.015290  d :     0.083642
      dxz     :     0.015951
      dyz     :     0.016727
      dx2y2   :     0.022553
      dxy     :     0.013120
  4 N s       :     3.622820  s :     3.622820
      pz      :     1.168298  p :     3.927366
      px      :     1.672639
      py      :     1.086428
      dz2     :     0.014199  d :     0.065296
      dxz     :     0.010975
      dyz     :     0.014069
      dx2y2   :     0.008528
      dxy     :     0.017524
  5 H s       :     0.829765  s :     0.829765
      pz      :     0.009170  p :     0.015283
      px      :     0.002238
      py      :     0.003875
  6 H s       :     0.869895  s :     0.869895
      pz      :     0.006210  p :     0.014466
      px      :     0.003608
      py      :     0.004647
  7 C s       :     3.201901  s :     3.201901
      pz      :     0.951058  p :     2.781818
      px      :     0.852712
      py      :     0.978048
      dz2     :     0.019629  d :     0.078858
      dxz     :     0.013697
      dyz     :     0.013630
      dx2y2   :     0.019812
      dxy     :     0.012089
  8 H s       :     0.672360  s :     0.672360
      pz      :     0.010445  p :     0.027333
      px      :     0.007749
      py      :     0.009139
  9 H s       :     0.853173  s :     0.853173
      pz      :     0.002674  p :     0.015177
      px      :     0.003062
      py      :     0.009441
 10 H s       :     0.858805  s :     0.858805
      pz      :     0.008432  p :     0.014714
      px      :     0.003456
      py      :     0.002826
 11 C s       :     3.226960  s :     3.226960
      pz      :     0.962375  p :     2.921968
      px      :     0.964546
      py      :     0.995047
      dz2     :     0.008974  d :     0.063495
      dxz     :     0.017115
      dyz     :     0.013292
      dx2y2   :     0.010329
      dxy     :     0.013786
 12 H s       :     0.854494  s :     0.854494
      pz      :     0.007935  p :     0.014964
      px      :     0.004633
      py      :     0.002396
 13 C s       :     3.190062  s :     3.190062
      pz      :     0.891972  p :     2.721125
      px      :     0.958462
      py      :     0.870691
      dz2     :     0.015992  d :     0.086095
      dxz     :     0.021322
      dyz     :     0.016227
      dx2y2   :     0.013345
      dxy     :     0.019210
 14 H s       :     0.866326  s :     0.866326
      pz      :     0.006573  p :     0.015426
      px      :     0.005838
      py      :     0.003015
 15 H s       :     0.843640  s :     0.843640
      pz      :     0.003409  p :     0.015319
      px      :     0.003856
      py      :     0.008055
 16 C s       :     2.947595  s :     2.947595
      pz      :     0.643140  p :     2.040256
      px      :     0.639677
      py      :     0.757439
      dz2     :     0.031352  d :     0.156043
      dxz     :     0.024534
      dyz     :     0.030075
      dx2y2   :     0.026361
      dxy     :     0.043721
 17 H s       :     0.693274  s :     0.693274
      pz      :     0.010365  p :     0.028001
      px      :     0.009994
      py      :     0.007642
 18 N s       :     3.609561  s :     3.609561
      pz      :     1.159803  p :     4.020264
      px      :     1.235239
      py      :     1.625223
      dz2     :     0.007777  d :     0.056787
      dxz     :     0.017570
      dyz     :     0.012014
      dx2y2   :     0.007223
      dxy     :     0.012204
 19 H s       :     0.700617  s :     0.700617
      pz      :     0.006172  p :     0.028108
      px      :     0.012312
      py      :     0.009624
 20 O s       :     3.847781  s :     3.847781
      pz      :     1.781191  p :     4.767633
      px      :     1.702711
      py      :     1.283731
      dz2     :     0.007528  d :     0.048034
      dxz     :     0.008300
      dyz     :     0.010547
      dx2y2   :     0.007594
      dxy     :     0.014066
 21 H s       :     0.842479  s :     0.842479
      pz      :     0.005623  p :     0.014732
      px      :     0.006240
      py      :     0.002869
 22 H s       :     0.605742  s :     0.605742
      pz      :     0.012728  p :     0.042659
      px      :     0.010172
      py      :     0.019759
 23 O s       :     3.880123  s :     3.880123
      pz      :     1.444266  p :     4.718838
      px      :     1.465845
      py      :     1.808727
      dz2     :     0.013884  d :     0.052933
      dxz     :     0.013059
      dyz     :     0.008336
      dx2y2   :     0.009694
      dxy     :     0.007960


                     *******************************
                     * LOEWDIN POPULATION ANALYSIS *
                     *******************************

----------------------
LOEWDIN ATOMIC CHARGES
----------------------
   0 C :    0.032047
   1 N :   -0.191379
   2 H :    0.132748
   3 C :   -0.009017
   4 N :   -0.229976
   5 H :    0.074361
   6 H :    0.051489
   7 C :   -0.041498
   8 H :    0.135990
   9 H :    0.067460
  10 H :    0.061769
  11 C :   -0.112260
  12 H :    0.061688
  13 C :   -0.019471
  14 H :    0.064054
  15 H :    0.073807
  16 C :    0.220107
  17 H :    0.132572
  18 N :   -0.273647
  19 H :    0.129147
  20 O :   -0.237651
  21 H :    0.070750
  22 H :    0.184806
  23 O :   -0.377894

-------------------------------
LOEWDIN REDUCED ORBITAL CHARGES
-------------------------------
  0 C s       :     2.871512  s :     2.871512
      pz      :     1.080769  p :     2.922081
      px      :     0.870767
      py      :     0.970545
      dz2     :     0.028224  d :     0.174361
      dxz     :     0.025457
      dyz     :     0.033859
      dx2y2   :     0.047687
      dxy     :     0.039133
  1 N s       :     3.165525  s :     3.165525
      pz      :     1.485853  p :     3.923932
      px      :     1.284510
      py      :     1.153569
      dz2     :     0.013159  d :     0.101922
      dxz     :     0.015766
      dyz     :     0.023361
      dx2y2   :     0.029419
      dxy     :     0.020216
  2 H s       :     0.780327  s :     0.780327
      pz      :     0.044199  p :     0.086925
      px      :     0.025144
      py      :     0.017582
  3 C s       :     2.874918  s :     2.874918
      pz      :     1.038946  p :     2.976381
      px      :     1.034498
      py      :     0.902937
      dz2     :     0.026560  d :     0.157718
      dxz     :     0.027277
      dyz     :     0.034377
      dx2y2   :     0.044423
      dxy     :     0.025082
  4 N s       :     3.178571  s :     3.178571
      pz      :     1.174778  p :     3.944541
      px      :     1.635938
      py      :     1.133825
      dz2     :     0.024518  d :     0.106865
      dxz     :     0.014160
      dyz     :     0.026352
      dx2y2   :     0.014001
      dxy     :     0.027833
  5 H s       :     0.880462  s :     0.880462
      pz      :     0.027667  p :     0.045177
      px      :     0.005495
      py      :     0.012015
  6 H s       :     0.905887  s :     0.905887
      pz      :     0.018428  p :     0.042624
      px      :     0.009882
      py      :     0.014314
  7 C s       :     2.887818  s :     2.887818
      pz      :     1.011333  p :     3.011559
      px      :     0.978683
      py      :     1.021544
      dz2     :     0.036139  d :     0.142121
      dxz     :     0.024585
      dyz     :     0.022874
      dx2y2   :     0.037105
      dxy     :     0.021419
  8 H s       :     0.773815  s :     0.773815
      pz      :     0.036892  p :     0.090195
      px      :     0.024937
      py      :     0.028366
  9 H s       :     0.888472  s :     0.888472
      pz      :     0.007815  p :     0.044069
      px      :     0.008258
      py      :     0.027996
 10 H s       :     0.894943  s :     0.894943
      pz      :     0.025235  p :     0.043288
      px      :     0.009729
      py      :     0.008324
 11 C s       :     2.895422  s :     2.895422
      pz      :     1.033861  p :     3.107469
      px      :     1.029354
      py      :     1.044254
      dz2     :     0.014913  d :     0.109369
      dxz     :     0.030519
      dyz     :     0.023260
      dx2y2   :     0.016394
      dxy     :     0.024283
 12 H s       :     0.893646  s :     0.893646
      pz      :     0.023555  p :     0.044665
      px      :     0.014073
      py      :     0.007037
 13 C s       :     2.871965  s :     2.871965
      pz      :     0.974515  p :     2.988385
      px      :     1.020892
      py      :     0.992978
      dz2     :     0.029551  d :     0.159121
      dxz     :     0.038330
      dyz     :     0.030253
      dx2y2   :     0.023826
      dxy     :     0.037161
 14 H s       :     0.890516  s :     0.890516
      pz      :     0.019004  p :     0.045430
[...]
      dxz     :     0.012123
      dyz     :     0.018476
      dx2y2   :     0.029071
      dxy     :     0.016795
  2 H s       :     0.783353  s :     0.783353
      pz      :     0.045047  p :     0.085801
      px      :     0.025802
      py      :     0.014952
  3 C s       :     2.881538  s :     2.881538
      pz      :     1.048916  p :     2.995679
      px      :     1.032505
      py      :     0.914258
      dz2     :     0.026780  d :     0.148601
      dxz     :     0.026043
      dyz     :     0.027908
      dx2y2   :     0.041754
      dxy     :     0.026115
  4 N s       :     3.196332  s :     3.196332
      pz      :     1.168685  p :     3.917150
      px      :     1.624746
      py      :     1.123720
      dz2     :     0.024368  d :     0.102446
      dxz     :     0.013929
      dyz     :     0.022699
      dx2y2   :     0.014024
      dxy     :     0.027425
  5 H s       :     0.889113  s :     0.889113
      pz      :     0.024121  p :     0.044122
      px      :     0.006038
      py      :     0.013963
  6 H s       :     0.903187  s :     0.903187
      pz      :     0.018585  p :     0.042902
      px      :     0.011134
      py      :     0.013184
  7 C s       :     2.895394  s :     2.895394
      pz      :     1.030228  p :     3.035428
      px      :     0.994164
      py      :     1.011036
      dz2     :     0.031918  d :     0.133659
      dxz     :     0.022448
      dyz     :     0.022210
      dx2y2   :     0.034751
      dxy     :     0.022332
  8 H s       :     0.785842  s :     0.785842
      pz      :     0.043666  p :     0.086164
      px      :     0.021405
      py      :     0.021093
  9 H s       :     0.886158  s :     0.886158
      pz      :     0.009132  p :     0.043857
      px      :     0.008806
      py      :     0.025919
 10 H s       :     0.892905  s :     0.892905
      pz      :     0.025297  p :     0.043295
      px      :     0.010400
      py      :     0.007599
 11 C s       :     2.896744  s :     2.896744
      pz      :     1.041465  p :     3.129332
      px      :     1.035679
      py      :     1.052187
      dz2     :     0.016952  d :     0.103012
      dxz     :     0.029805
      dyz     :     0.017836
      dx2y2   :     0.016672
      dxy     :     0.021748
 12 H s       :     0.891430  s :     0.891430
      pz      :     0.021934  p :     0.044417
      px      :     0.013911
      py      :     0.008573
 13 C s       :     2.873180  s :     2.873180
      pz      :     0.994886  p :     3.012240
      px      :     1.017122
      py      :     1.000232
      dz2     :     0.022703  d :     0.150816
      dxz     :     0.035606
      dyz     :     0.032545
      dx2y2   :     0.021198
      dxy     :     0.038764
 14 H s       :     0.888656  s :     0.888656
      pz      :     0.019403  p :     0.045847
      px      :     0.017358
      py      :     0.009085
 15 H s       :     0.876971  s :     0.876971
      pz      :     0.009378  p :     0.045131
      px      :     0.011065
      py      :     0.024689
 16 C s       :     2.861815  s :     2.861815
      pz      :     0.851712  p :     2.678077
      px      :     0.915144
      py      :     0.911221
      dz2     :     0.040552  d :     0.304904
      dxz     :     0.052510
      dyz     :     0.044069
      dx2y2   :     0.062284
      dxy     :     0.105488
 17 H s       :     0.788523  s :     0.788523
      pz      :     0.034579  p :     0.083658
      px      :     0.025302
      py      :     0.023778
 18 N s       :     3.206932  s :     3.206932
      pz      :     1.242297  p :     3.970111
      px      :     1.226042
      py      :     1.501772
      dz2     :     0.012416  d :     0.082699
      dxz     :     0.025443
      dyz     :     0.016106
      dx2y2   :     0.009185
      dxy     :     0.019548
 19 H s       :     0.787180  s :     0.787180
      pz      :     0.019186  p :     0.083699
      px      :     0.034286
      py      :     0.030227
 20 O s       :     3.481289  s :     3.481289
      pz      :     1.666092  p :     4.623279
      px      :     1.633608
      py      :     1.323579
      dz2     :     0.009661  d :     0.072351
      dxz     :     0.010566
      dyz     :     0.014935
      dx2y2   :     0.013262
      dxy     :     0.023928
 21 H s       :     0.877284  s :     0.877284
      pz      :     0.019529  p :     0.044541
      px      :     0.015699
      py      :     0.009313
 22 H s       :     0.695452  s :     0.695452
      pz      :     0.041357  p :     0.120386
      px      :     0.033367
      py      :     0.045662
 23 O s       :     3.560783  s :     3.560783
      pz      :     1.452550  p :     4.622646
      px      :     1.451064
      py      :     1.719032
      dz2     :     0.013132  d :     0.077970
      dxz     :     0.024198
      dyz     :     0.008631
      dx2y2   :     0.017815
      dxy     :     0.014194


                      *****************************
                      * MAYER POPULATION ANALYSIS *
                      *****************************

  NA   - Mulliken gross atomic population
  ZA   - Total nuclear charge
  QA   - Mulliken gross atomic charge
  VA   - Mayer's total valence
  BVA  - Mayer's bonded valence
  FA   - Mayer's free valence

  ATOM       NA         ZA         QA         VA         BVA        FA
  0 C      5.9202     6.0000     0.0798     3.8914     3.6309     0.2605
  1 N      7.5798     7.0000    -0.5798     3.0131     2.6559     0.3571
  2 H      0.7297     1.0000     0.2703     0.9175     0.8698     0.0477
  3 C      5.9874     6.0000     0.0126     3.8936     3.6100     0.2836
  4 N      7.5246     7.0000    -0.5246     3.0570     2.7145     0.3425
  5 H      0.8721     1.0000     0.1279     0.9636     0.9169     0.0467
  6 H      0.8928     1.0000     0.1072     0.9539     0.9061     0.0479
  7 C      6.0920     6.0000    -0.0920     3.9226     3.6573     0.2653
  8 H      0.7378     1.0000     0.2622     0.9171     0.8687     0.0484
  9 H      0.8789     1.0000     0.1211     0.9638     0.9164     0.0474
 10 H      0.8842     1.0000     0.1158     0.9579     0.9098     0.0481
 11 C      6.2098     6.0000    -0.2098     3.8854     3.6159     0.2695
 12 H      0.8869     1.0000     0.1131     0.9604     0.9107     0.0496
 13 C      6.0283     6.0000    -0.0283     3.8997     3.6272     0.2725
 14 H      0.8918     1.0000     0.1082     0.9783     0.9281     0.0502
 15 H      0.8685     1.0000     0.1315     0.9632     0.9145     0.0487
 16 C      5.3633     6.0000     0.6367     3.8893     3.6158     0.2735
 17 H      0.7453     1.0000     0.2547     0.9235     0.8769     0.0466
 18 N      7.6168     7.0000    -0.6168     3.0231     2.6971     0.3260
 19 H      0.7407     1.0000     0.2593     0.9183     0.8720     0.0462
 20 O      8.5359     8.0000    -0.5359     2.2072     1.8551     0.3521
 21 H      0.8631     1.0000     0.1369     0.9586     0.9108     0.0478
 22 H      0.6653     1.0000     0.3347     0.9088     0.8644     0.0444
 23 O      8.4849     8.0000    -0.4849     2.2743     1.8841     0.3902

  Mayer bond orders larger than 0.100000
B(  0-C ,  1-N ) :   0.8583 B(  0-C ,  4-N ) :   0.9444 B(  0-C ,  5-H ) :   0.9186 
B(  0-C ,  6-H ) :   0.9256 B(  1-N ,  3-C ) :   0.9139 B(  1-N ,  8-H ) :   0.8669 
B(  2-H ,  4-N ) :   0.8562 B(  3-C ,  7-C ) :   0.9061 B(  3-C , 11-C ) :   0.9134 
B(  3-C , 12-H ) :   0.9208 B(  4-N ,  7-C ) :   0.9254 B(  7-C ,  9-H ) :   0.9275 
B(  7-C , 10-H ) :   0.9225 B( 11-C , 13-C ) :   0.9243 B( 11-C , 14-H ) :   0.9115 
B( 11-C , 15-H ) :   0.9184 B( 13-C , 16-C ) :   0.8673 B( 13-C , 18-N ) :   0.9384 
B( 13-C , 21-H ) :   0.9101 B( 16-C , 20-O ) :   0.9890 B( 16-C , 23-O ) :   1.7261 
B( 17-H , 18-N ) :   0.8674 B( 18-N , 19-H ) :   0.8696 B( 20-O , 22-H ) :   0.8169 



----------------------------------
MP2 DERIVATIVE INTEGRAL GENERATION
----------------------------------

Input SCF Electron Density              ... 1.scfp
Input Correlated Electron Density       ... 1.pmp2re
Input Energy Weighted Density           ... 1.wmp2.tmp
Input Wavefunction Amplitudes           ... 1.mp2tsaa.tmp

Nuclear repulsion gradient              ... done (  0.0 sec)
HCore & Overlap gradient  (SHARK)       ... done (  0.2 sec)
Analytic two-electron gradient terms    ... 
  Batch handling in the gradient evaluation:
  General contraction                   ... not used
  Memory available                      ... 4077.6 MB
  Memory per occupied orbital in Q2     ...   11.7 MB
  Memory per occupied orbital in Q3     ...    0.0 MB
  Total memory requirement per |i>      ...   11.8 MB
  Number of orbitals treated per batch  ...     32
  Number of batches to be done          ...      1
done ( 42.2 sec)

---------------------------------------
MP2 TOTAL ENERGY:     -549.552982352 Eh
---------------------------------------

The final MP2 gradient
  0:   0.00003798   0.00002177   0.00002336
  1:  -0.00003341   0.00004088   0.00001465
  2:  -0.00002756   0.00000331   0.00000365
  3:   0.00000255  -0.00007824   0.00000009
  4:   0.00005820  -0.00001200  -0.00002635
  5:  -0.00001900  -0.00000664   0.00000172
  6:  -0.00001136  -0.00001125  -0.00001055
  7:  -0.00000554   0.00001363   0.00001614
  8:   0.00000505  -0.00001069  -0.00001516
  9:  -0.00000916  -0.00000436  -0.00000831
 10:  -0.00000210   0.00000647  -0.00000018
 11:   0.00001137   0.00003665   0.00000201
 12:   0.00000565   0.00000828  -0.00000708
 13:  -0.00000485   0.00003575  -0.00002344
 14:   0.00000024  -0.00001064  -0.00000318
 15:  -0.00000750   0.00000393  -0.00000712
 16:   0.00004742  -0.00002209   0.00003536
 17:  -0.00000902   0.00001117   0.00001049
 18:   0.00002288  -0.00005551   0.00002923
 19:   0.00000248   0.00002511  -0.00002118
 20:  -0.00000467   0.00002427   0.00001340
 21:  -0.00000735  -0.00001223  -0.00000134
 22:  -0.00001064   0.00000310  -0.00000764
 23:  -0.00004163  -0.00001067  -0.00001858

-----------------------------------
NORM OF THE MP2 GRADIENT:  0.000188
-----------------------------------

Maximum memory used throughout the entire MP2-calculation: 1373.5 MB

-------------------------   --------------------
FINAL SINGLE POINT ENERGY      -549.552982352046
-------------------------   --------------------

                                *** OPTIMIZATION RUN DONE ***


------------------------------------------------------------------------------
                              ORCA PROPERTY CALCULATIONS
------------------------------------------------------------------------------

GBWName                                 ... 1.gbw
Number of atoms                         ...     24
Number of basis functions               ...    219
Max core memory                         ...   4096 MB

Electric properties:
Dipole moment                           ... YES
Quadrupole moment                       ...  NO
Static polarizability (Dipole/Dipole)   ...  NO
Static polarizability (Dipole/Quad.)    ...  NO
Static polarizability (Quad./Quad.)     ...  NO
Static polarizability (Velocity)        ...  NO
Static hyperpolarizability              ...  NO

Atomic electric properties:
Dipole moment                           ...  NO
Quadrupole moment                       ...  NO
Static polarizability                   ...  NO

Choice of electric origin               ... Center of mass
Position of electric origin             ...   -13.055764     5.998149    -0.480466

General magnetic properties:
Magnetizability                         ...  NO

EPR properties:
g-Tensor (aka g-matrix)                 ...  NO
Zero-Field splitting spin-orbit         ...  NO
Zero-field splitting spin-spin          ...  NO
Hyperfine couplings                     ...  NO (   0 nuclei)
Quadrupole couplings                    ...  NO (   0 nuclei)
Contact density                         ...  NO (   0 nuclei)

NMR properties:
Chemical shifts                         ...  NO (   0 nuclei)
Spin-rotation constants                 ...  NO (   0 nuclei)
Spin-spin couplings                     ...  NO (   0 nuclei,    0 pairs)

Choice of magnetic origin               ... GIAO
Position of magnetic origin             ...     0.000000     0.000000     0.000000

Properties with geometric perturbations:
SCF Hessian                             ...  NO
IR spectrum                             ...  NO
VCD spectrum                            ...  NO
X-ray spectroscopy properties:
SCF XES/XAS/RIXS spectra                ...  NO

SCF SOC stabilization energy            ...  NO
Diagonal Born-Oppenheimer correction    ...  NO

-------------
DIPOLE MOMENT
-------------

Method             : SCF
Type of density    : Electron Density
Multiplicity       :   1
Irrep              :   0
Energy             :  -547.8633703317037771 Eh
Basis              : AO
                                X                 Y                 Z
Electronic contribution:      2.391604751      -3.982460668      -3.691915851
Nuclear contribution   :     -1.871677128       3.737296497       4.109111442
                        -----------------------------------------
Total Dipole Moment    :      0.519927623      -0.245164171       0.417195591
                        -----------------------------------------
Magnitude (a.u.)       :      0.710269220
Magnitude (Debye)      :      1.805360883



--------------------
Rotational spectrum 
--------------------
 
Rotational constants in cm-1:             0.060224             0.029474             0.024459 
Rotational constants in MHz :          1805.483720           883.603385           733.276109 

Dipole components along the rotational axes: 
x,y,z [a.u.] :    -0.203015     0.019136     0.680368 
x,y,z [Debye]:    -0.516022     0.048640     1.729359 

 

-------------
DIPOLE MOMENT
-------------

Method             : MP2
Type of density    : Electron Density
Multiplicity       :   1
Level              : Unrelaxed density
Irrep              :   0
Energy             :     0.0000000000000000 Eh
Basis              : AO
                                X                 Y                 Z
Electronic contribution:      2.365719180      -3.992403553      -3.718794536
Nuclear contribution   :     -1.871677128       3.737296497       4.109111442
                        -----------------------------------------
Total Dipole Moment    :      0.494042052      -0.255107056       0.390316906
                        -----------------------------------------
Magnitude (a.u.)       :      0.679341186
Magnitude (Debye)      :      1.726748067



--------------------
Rotational spectrum 
--------------------
 
Rotational constants in cm-1:             0.060224             0.029474             0.024459 
Rotational constants in MHz :          1805.483720           883.603385           733.276109 

Dipole components along the rotational axes: 
x,y,z [a.u.] :    -0.197886     0.040513     0.648617 
x,y,z [Debye]:    -0.502986     0.102975     1.648654 

 

-------------
DIPOLE MOMENT
-------------

Method             : MP2
Type of density    : Electron Density
Multiplicity       :   1
Level              : Relaxed density
Irrep              :   0
Energy             :     0.0000000000000000 Eh
Basis              : AO
                                X                 Y                 Z
Electronic contribution:      2.271410607      -4.047218866      -3.808532981
Nuclear contribution   :     -1.871677128       3.737296497       4.109111442
                        -----------------------------------------
Total Dipole Moment    :      0.399733479      -0.309922369       0.300578461
                        -----------------------------------------
Magnitude (a.u.)       :      0.588375849
Magnitude (Debye)      :      1.495532557



--------------------
Rotational spectrum 
--------------------
 
Rotational constants in cm-1:             0.060224             0.029474             0.024459 
Rotational constants in MHz :          1805.483720           883.603385           733.276109 

Dipole components along the rotational axes: 
x,y,z [a.u.] :    -0.175766     0.134190     0.545239 
x,y,z [Debye]:    -0.446762     0.341084     1.385887 

 

Dipole moment calculation done in   0.0 sec 

Maximum memory used throughout the entire PROP-calculation: 13.3 MB

--------------------------------
SUGGESTED CITATIONS FOR THIS RUN
--------------------------------

Below you find a list of papers that are relevant to this ORCA run
We neither can nor want to force you to cite these papers, but we appreciate if you do
You receive ORCA, which is the product of decades of hard work by many enthusiastic individuals, for free
The only thing we kindly ask in return is that you cite our papers,
We deeply appreciate it, if you show your appreciation for ORCA by not just citing the generic ORCA reference.

Please note that relegating all ORCA citations to the supporting information does *not* help us.
SI sections are not indexed - citations you put there will not count into any citation statistics
But we need these citations in order to attract the funding resources that allow us to do what we are doing

Therefore, if you are a happy ORCA user, please consider citing a few of the papers listed below in the main body of your paper

In addition to the list printed below, the program has created the file 1.bibtex that contains the list in bibtex format
You can import this file easily into all common literature databanks and citation aid programs


List of essential papers. We consider these as the minimum necessary citations

  1. Neese, F.
     Software update: the ORCA program system, version 6.0
     WIRES Comput. Molec. Sci. 2025 15(1), e70019
     doi.org/10.1002/wcms.7019

List of papers to cite with high priority. The work reported in these papers was absolutely
necessary for this run to complete.
Our perspective: the developers of density functionals and basis sets usually get cited in chemistry papers
Good! But without the algorithms to do something with them, the functionals or basis sets would not do anything.
Hence, in our opinion, the algorithm design and method developments papers are equally worthy of getting cited

  1. Neese, F.
     The SHARK Integral Generation and Digestion System
     J. Comp. Chem. 2022 44(3), 381
     doi.org/10.1002/jcc.26942

List of suggested additional citations. These are papers that are important in the 'surrounding' of 
of this run, or papers that preceded the highly important papers. If you like your results we are grateful for a citation.

  1. Neese, F.
     The ORCA program system
     WIRES Comput. Molec. Sci. 2012 2(1), 73-78
     doi.org/10.1002/wcms.81
  2. Neese, F.
     Software update: the ORCA program system, version 4.0
     WIRES Comput. Molec. Sci. 2018 8(1), 1-6
     doi.org/10.1002/wcms.1327
  3. Neese, F.; Wennmohs, F.; Becker, U.; Riplinger, C.
     The ORCA quantum chemistry program package
     J. Chem. Phys. 2020 152(22), 224108
     doi.org/10.1063/5.0004608
  4. Neese, F.
     Software update: The ORCA program system—Version 5.0
     WIRES Comput. Molec. Sci. 2022 12(1), e1606
     doi.org/10.1002/wcms.1606

List of optional additional citations

  1. Neese, F.
     Approximate second-order SCF convergence for spin unrestricted wavefunctions
     Chem. Phys. Lett. 2000 325(1-3), 93-98
     doi.org/10.1016/s0009-2614(00)00662-x

Timings for individual modules:

Sum of individual times          ...     2206.660 sec (=  36.778 min)
Startup calculation              ...        8.419 sec (=   0.140 min)   0.4 %
SCF iterations                   ...      399.510 sec (=   6.659 min)  18.1 %
Property calculations            ...        0.055 sec (=   0.001 min)   0.0 %
MP2 module                       ...     1798.641 sec (=  29.977 min)  81.5 %
Geometry relaxation              ...        0.034 sec (=   0.001 min)   0.0 %
                             ****ORCA TERMINATED NORMALLY****
TOTAL RUN TIME: 0 days 0 hours 36 minutes 47 seconds 13 msec
