
                                 *****************
                                 * O   R   C   A *
                                 *****************

                                            #,                                       
                                            ###                                      
                                            ####                                     
                                            #####                                    
                                            ######                                   
                                           ########,                                 
                                     ,,################,,,,,                         
                               ,,#################################,,                 
                          ,,##########################################,,             
                       ,#########################################, ''#####,          
                    ,#############################################,,   '####,        
                  ,##################################################,,,,####,       
                ,###########''''           ''''###############################       
              ,#####''   ,,,,##########,,,,          '''####'''          '####       
            ,##' ,,,,###########################,,,                        '##       
           ' ,,###''''                  '''############,,,                           
         ,,##''                                '''############,,,,        ,,,,,,###''
      ,#''                                            '''#######################'''  
     '                                                          ''''####''''         
             ,#######,   #######,   ,#######,      ##                                
            ,#'     '#,  ##    ##  ,#'     '#,    #''#        ,####,    ,#,          
            ##       ##  ##   ,#'  ##            #'  '#       #'       ,# #          
            ##       ##  #######   ##           ,######,      #####,      #          
            '#,     ,#'  ##    ##  '#,     ,#' ,#      #,     #,   #      #          
             '#######'   ##     ##  '#######'  #'      '#     '####' #    #          



                #########################################################
                #                        -***-                          #
                #          Department of theory and spectroscopy        #
                #                                                       #
                #                      Frank Neese                      #
                #                                                       #
                #     Directorship, Architecture, Infrastructure        #
                #                    SHARK, DRIVERS                     #
                #        Core code/Algorithms in most modules           #
                #                                                       #
                #        Max Planck Institute fuer Kohlenforschung      #
                #                Kaiser Wilhelm Platz 1                 #
                #                 D-45470 Muelheim/Ruhr                 #
                #                      Germany                          #
                #                                                       #
                #                  All rights reserved                  #
                #                        -***-                          #
                #########################################################


                         Program Version 6.1.0  -  RELEASE   -
                                (GIT: $679e74b$)
                          ($2025-06-10 18:02:51 +0200$)


 With contributions from (in alphabetic order):
[Max-Planck-Institut fuer Kohlenforschung]                               
  Daniel Aravena         : Magnetic Suceptibility                        
  Michael Atanasov       : Ab Initio Ligand Field Theory (pilot matlab implementation)
  Alexander A. Auer      : GIAO ZORA, VPT2 properties, NMR spectrum      
  Ute Becker             : All parallelization in ORCA, NUMFREQ, NUMCALC 
  Giovanni Bistoni       : ED, misc. LED, open-shell LED, HFLD           
  Dmytro Bykov           : pre 5.0 version of the SCF Hessian            
  Marcos Casanova-Páez   : Triplet and SCS-CIS(D). UHF-(DLPNO)-IP/EA/STEOM-CCSD. UHF-CVS-IP/STEOM-CCSD   
  Vijay G. Chilkuri      : MRCI spin determinant printing, contributions to CSF-ICE 
  Pauline Colinet        : FMM embedding                                 
  Dipayan Datta          : RHF DLPNO-CCSD density                        
  Achintya Kumar Dutta   : EOM-CC, STEOM-CC                              
  Nicolas Foglia         : Exact transition moments, OPA infrastructure, MCD improvements    
  Dmitry Ganyushin       : Spin-Orbit,Spin-Spin,Magnetic field MRCI      
  Miquel Garcia-Rates    : C-PCM and meta-GGA Hessian, CCSD/C-PCM, Gaussian charge scheme 
  Tiago L. C. Gouveia    : GS-ROHF, GS-ROCIS                             
  Yang Guo               : DLPNO-NEVPT2, F12-NEVPT2, CIM, IAO-localization        
  Andreas Hansen         : Spin unrestricted coupled pair/coupled cluster methods 
  Ingolf Harden          : AUTO-CI MPn and infrastructure                
  Benjamin Helmich-Paris : MC-RPA, TRAH-(SCF,CASSCF), AVAS, COSX integrals, SCF dyn. polar., MC-PDFT, srDFT 
  Lee Huntington         : MR-EOM, pCC                                   
  Robert Izsak           : Overlap fitted RIJCOSX, COSX-SCS-MP3, EOM     
  Riya Kayal             : Wick's Theorem for AUTO-CI, AUTO-CI UHF-CCSDT 
  Emily Kempfer          : AUTO-CI RHF CISDT and CCSDT, approximate NEVPT4
  Christian Kollmar      : KDIIS, OOCD, Brueckner-CCSD(T), CCSD density, CASPT2, CASPT2-K, improved NEVPT2 
  Axel Koslowski         : Symmetry handling                             
  Simone Kossmann        : meta-GGA functionals, TD-DFT gradient, OOMP2, (MP2 Hessian; deprecated post 5.0) 
  Lucas Lang             : DCDCAS, Hyperfine gauge corrections, ICE-SOC+SSC
  Marvin Lechner         : AUTO-CI (C++ implementation), FIC-MRCC        
  Spencer Leger          : CASSCF response                               
  Dagmar Lenk            : GEPOL surface, SMD, ORCA-2-JSON               
  Dimitrios Liakos       : Extrapolation schemes; Compound Job, Property file
  Dimitrios Manganas     : Further ROCIS development; embedding schemes. LFT, Crystal Embedding 
  Dimitrios Pantazis     : SARC Basis sets                               
  Anastasios Papadopoulos: AUTO-CI, single reference methods and gradients 
  Taras Petrenko         : pre 6.0 DFT Hessian and TD-DFT gradient,  ECA, NRVS 
  Petra Pikulova         : Analytic Raman intensities                    
  Peter Pinski           : DLPNO-MP2, DLPNO-MP2 Gradient                 
  Shashank Vittal Rao    : ES-AILFT, MagRelax                            
  Christoph Reimann      : Effective Core Potentials                     
  Marius Retegan         : Local ZFS, SOC                                
  Christoph Riplinger    : Optimizer, TS searches, QM/MM, DLPNO-CCSD(T), (RO)-DLPNO pert. Triples 
  Michael Roemelt        : Original ROCIS implementation, recursive CI coupling coefficients
  Masaaki Saitow         : Open-shell DLPNO-CCSD energy and density      
  Barbara Sandhoefer     : DKH picture change effects                    
  Yorick L. A. Schmerwitz: GMF and freeze-and-release deltaSCF, NEB S-IDPP initial path                    
  Kantharuban Sivalingam : CASSCF convergence/infrastructure, NEVPT2, NEVPT3, NEVPT4(SD), FIC-MRCI and CEPA variants
  Bernardo de Souza      : ESD, SOC TD-DFT                               
  Georgi L. Stoychev     : AutoAux, RI-MP2 NMR, DLPNO-MP2 response, X2C  
  Van Anh Tran           : RI-MP2 g-tensors                              
  Willem Van den Heuvel  : Paramagnetic NMR                              
  Zikuan Wang            : NOTCH, Electric field optimization            
  Frank Wennmohs         : Technical directorship and infrastructure     
  Hang Xu                : AUTO-CI-Response properties                   
                                                                         
[FACCTs GmbH]                                                            
  Markus Bursch, Nicolas Foglia, Miquel Garcia-Rates, Ingolf Harden, Hagen Neugebauer, Anastasios Papadopoulos, 
  Christoph Riplinger, Bernardo de Souza, Georgi L. Stoychev                                                    
                                                                 
  APM, various basis sets, CI-OPT, improved COSX, DLPNO-Multilevel,           
  DOCKER, DRACO, updates on ESD, Fragmentator, GOAT, IRC, LR-CPCM, L-BFGS, MBIS, meta-GGA TD-DFT gradient, ML-optimized integration grids, 
  MM, NACMEs, nearIR, NEB, NEB-TS, NL-DFT gradient (VV10), 2- and 3-layer-ONIOM, interface openCOSMO-RS, QMMM,   
  Crystal-QMMM, RESP, rigid body optimization, SF, symmetry and pop. for TD-DFT, various functionals, SOLVATOR                                   
                                                                         
[Other institutions]                                                     
  V. Asgeirsson          : NEB                                           
  Christoph Bannwarth    : sTDA-DFT, sTD-DFT, PBEh-3c, B97-3c, D3        
  Giovanni Bistoni       : ETS/NOCV, ADLD/ADEX, COVALED                  
  Martin Brehm           : Molecular dynamics                            
  Ronald Cardenas        : ETS/NOCV                                      
  Martina Colucci        : COVALED                                       
  Sebastian Ehlert       : rSCAN, r2SCAN, r2SCAN-3c, D4, dhf basis sets  
  Marvin Friede          : D4 for Fr, Ra, Ac-Lr                          
  Lars Goerigk           : TD-DFT with DH, B97 family of functionals     
  Stefan Grimme          : VdW corrections, initial TS optimization, DFT functionals, gCP, sTDA/sTD-DF 
  Waldemar Hujo          : DFT-NL                                        
  H. Jonsson             : NEB                                           
  Holger Kruse           : gCP                                           
  Marcel Mueller         : wB97X-3c, vDZP basis set                      
  Hagen Neugebauer       : wr2SCAN, Native XTB                           
  Gianluca Regni         : ADLD/ADEX                                     
  Tobias Risthaus        : pre 6.0 range-separated hybrid DFT and stability analysis
  Lukas Wittmann         : regularized MP2, r2SCAN double-hybrids, wr2SCAN        
                                                                         
We gratefully acknowledge several colleagues who have allowed us to      
interface, adapt or use parts of their codes:                            
  Ed Valeev, F. Pavosevic, A. Kumar             : LibInt (2-el integral package), F12 methods 
  Garnet Chan, S. Sharma, J. Yang, R. Olivares  : DMRG                   
  Ulf Ekstrom                                   : XCFun DFT Library      
  Mihaly Kallay                                 : mrcc  (arbitrary order and MRCC methods)
  Frank Weinhold                                : gennbo (NPA and NBO analysis)           
  Simon Mueller                                 : openCOSMO-RS                            
  Christopher J. Cramer and Donald G. Truhlar   : smd solvation model                     
  S Lehtola, MJT Oliveira, MAL Marques          : LibXC Library                           
  Liviu Ungur et al                             : ANISO software                          


 Your calculation uses the libint2 library for the computation of 2-el integrals
 For citations please refer to: http://libint.valeyev.net

 Your ORCA version has been built with support for libXC version: 7.0.0
 For citations please refer to: https://libxc.gitlab.io

 This ORCA versions uses:
   CBLAS   interface :  Fast vector & matrix operations
   LAPACKE interface :  Fast linear algebra routines
   SCALAPACK package :  Parallel linear algebra routines
   Shared memory     :  Shared parallel matrices
   BLAS/LAPACK       :  OpenBLAS 0.3.29  USE64BITINT DYNAMIC_ARCH NO_AFFINITY Haswell SINGLE_THREADED
        Core in use  :  Haswell
   Copyright (c) 2011-2014, The OpenBLAS Project


  ***********************************
  * Starting time: Sat Aug 30 14:54:17 2025
  * Host name:     chemlab03
  * Process ID:    75853
  * Working dir.:  /home/vivek/mm-project/vivek/xtb-goat/B97-D-opt/c/5
  ***********************************



***************************************
The coordinates will be read from file: /home/vivek/mm-project/vivek/xtb-goat/xtb-goat/c/C_CONF/5.xyz
***************************************


Your calculation utilizes empirical dispersion correction


Warning: RI is on but no J-basis has been assigned. Assigning Def2/J (nothing to worry about!)
================================================================================

----- Orbital basis set information -----
Your calculation utilizes the basis: 6-31G**
   H-He, Li-Ne : W. J. Hehre, R. Ditchfield and J.A. Pople, J. Chem. Phys. 56, 2257 (1972).
                 Note: He and Ne are unpublished basis sets taken from the Gaussian program.
                 Note: Li and B from J. D. Dill and J. A. Pople, J. Chem. Phys. 62, 2921 (1975).
   Na - Ar     : M. M. Francl, W. J. Pietro, W. J. Hehre, J. S. Binkley, M. S. Gordon, 
                 D. J. DeFrees and J. A. Pople, J. Chem. Phys. 77, 3654 (1982).
   K - Zn      : V. A. Rassolov, J. A. Pople, M. A. Ratner, and T. L. Windus, J. Chem. Phys. 109, 1223 (1998).

----- AuxJ basis set information -----
Your calculation utilizes the auxiliary basis: def2/J
   H-Rn: F. Weigend, Phys. Chem. Chem. Phys. 8, 1057 (2006).
   Fr-Lr: K. Eichkorn, F. Weigend, O. Treutler, R. Ahlrichs; Theor. Chem. Acc. 97, 119 (1997).

================================================================================
                                        WARNINGS
                       Please study these warnings very carefully!
================================================================================


WARNING: Geometry Optimization
  ===> : Switching off AutoStart
         For restart on a previous wavefunction, please use MOREAD

INFO   : The exchange functional is Grimme's B97(-D)
         As described in S. Grimme, J. Comput. Chem. 27, 1787 (2006).
         Note that this functional defaults to a pure GGA. 

INFO   : The correlation functional is Grimme's B97(-D)
         As described in S. Grimme, J. Comput. Chem. 27, 1787 (2006).

================================================================================
                                       INPUT FILE
================================================================================
NAME = 5.inp
|  1> ! B97-D 6-31G** opt
|  2> 
|  3> * xyzfile 0 1 /home/vivek/mm-project/vivek/xtb-goat/xtb-goat/c/C_CONF/5.xyz
|  4> 
|  5>                          ****END OF INPUT****
================================================================================

                       *****************************
                       * Geometry Optimization Run *
                       *****************************

Geometry optimization settings:
Update method            Update   .... BFGS
Choice of coordinates    CoordSys .... (2022) Redundant Internals
Initial Hessian          InHess   .... Almloef's Model
Max. no of cycles        MaxIter  .... 50

Convergence Tolerances:
Energy Change            TolE     ....  5.0000e-06 Eh
Max. Gradient            TolMAXG  ....  3.0000e-04 Eh/bohr
RMS Gradient             TolRMSG  ....  1.0000e-04 Eh/bohr
Max. Displacement        TolMAXD  ....  4.0000e-03 bohr
RMS Displacement         TolRMSD  ....  2.0000e-03 bohr
Strict Convergence                .... False

------------------------------------------------------------------------------
                        ORCA OPTIMIZATION COORDINATE SETUP
------------------------------------------------------------------------------

The optimization will be done in redundant internal coordinates (2022)
Making redundant internal coordinates   ...  (2022 redundants) done
Evaluating the initial hessian          ...  (Almloef) done
Evaluating the coordinates              ...  done
Calculating the B-matrix                .... done
Calculating the G-matrix                .... done
The number of degrees of freedom        ....   55

    -----------------------------------------------------------------
                    Redundant Internal Coordinates


    -----------------------------------------------------------------
         Definition                    Initial Value    Approx d2E/dq
    -----------------------------------------------------------------
      1. B(H   2,C   1)                  1.0897         0.360549   
      2. B(C   5,C   1)                  1.5264         0.378606   
      3. B(C   5,H   0)                  1.0978         0.349937   
      4. B(S   7,H   3)                  1.3284         0.404406   
      5. B(S   7,C   1)                  1.8211         0.345703   
      6. B(N   8,H   6)                  1.0136         0.426959   
      7. B(N   8,C   5)                  1.4537         0.442833   
      8. B(H   9,N   8)                  1.0149         0.424928   
      9. B(C  10,C   5)                  1.5297         0.373922   
     10. B(C  10,O   4)                  1.3368         0.680267   
     11. B(H  11,C   1)                  1.0884         0.362210   
     12. B(O  12,H   3)                  2.3174         0.010000   
     13. B(O  12,C  10)                  1.2028         1.113273   
     14. B(H  13,O   4)                  0.9706         0.500116   
     15. A(H   2,C   1,C   5)          111.0178         0.325099   
     16. A(H   2,C   1,H  11)          109.6824         0.291164   
     17. A(C   5,C   1,S   7)          112.5626         0.378379   
     18. A(H   2,C   1,S   7)          108.2408         0.336528   
     19. A(C   5,C   1,H  11)          109.0379         0.325345   
     20. A(S   7,C   1,H  11)          106.1639         0.336785   
     21. A(C  10,O   4,H  13)          110.6951         0.373564   
     22. A(C   1,C   5,N   8)          109.3159         0.372630   
     23. A(C   1,C   5,C  10)          111.1021         0.364241   
     24. A(H   0,C   5,N   8)          107.4898         0.329975   
     25. A(H   0,C   5,C  10)          107.2578         0.322848   
     26. A(N   8,C   5,C  10)          112.2079         0.371832   
     27. A(H   0,C   5,C   1)          109.3502         0.323508   
     28. A(C   1,S   7,H   3)           95.6665         0.367788   
     29. A(H   6,N   8,H   9)          108.2940         0.301734   
     30. A(C   5,N   8,H   9)          110.5440         0.337867   
     31. A(C   5,N   8,H   6)          110.4650         0.338136   
     32. A(O   4,C  10,C   5)          111.4200         0.400692   
     33. A(C   5,C  10,O  12)          125.9052         0.437454   
     34. A(O   4,C  10,O  12)          122.6495         0.484714   
     35. D(N   8,C   5,C   1,H   2)     72.6938         0.011429   
     36. D(N   8,C   5,C   1,S   7)   -165.7890         0.011429   
     37. D(H   0,C   5,C   1,H   2)   -169.8790         0.011429   
     38. D(H   0,C   5,C   1,H  11)     69.1723         0.011429   
     39. D(H   0,C   5,C   1,S   7)    -48.3618         0.011429   
     40. D(N   8,C   5,C   1,H  11)    -48.2548         0.011429   
     41. D(H   3,S   7,C   1,H   2)     52.9711         0.010000   
     42. D(H   3,S   7,C   1,H  11)    170.6649         0.010000   
     43. D(H   3,S   7,C   1,C   5)    -70.1130         0.010000   
     44. D(H   9,N   8,C   5,C   1)    -63.6799         0.016723   
     45. D(H   9,N   8,C   5,H   0)    177.7280         0.016723   
     46. D(H   6,N   8,C   5,C  10)    -59.8021         0.016723   
     47. D(H   6,N   8,C   5,C   1)    176.4754         0.016723   
     48. D(H   6,N   8,C   5,H   0)     57.8833         0.016723   
     49. D(C   5,C  10,O   4,H  13)   -179.4449         0.034470   
     50. D(O  12,C  10,C   5,C   1)     -1.9556         0.010455   
     51. D(O  12,C  10,C   5,H   0)    117.5025         0.010455   
     52. D(O   4,C  10,C   5,N   8)     53.5252         0.010455   
     53. D(O   4,C  10,C   5,C   1)    176.2437         0.010455   
     54. D(O   4,C  10,C   5,H   0)    -64.2982         0.010455   
     55. D(O  12,C  10,O   4,H  13)     -1.1772         0.034470   
    -----------------------------------------------------------------

Number of atoms                         .... 14
Number of degrees of freedom            .... 55


         *************************************************************
         *                GEOMETRY OPTIMIZATION CYCLE   1            *
         *************************************************************
---------------------------------
CARTESIAN COORDINATES (ANGSTROEM)
---------------------------------
  H     -1.634079    2.553527    1.462008
  C     -3.199085    1.808380    0.181055
  H     -3.311330    1.184400   -0.705179
  H     -3.424938   -0.178415    1.430244
  O      0.381629    1.019424    0.692360
  C     -1.726510    2.082174    0.474874
  H     -0.244619    3.258385   -0.294313
  S     -4.047307    0.987122    1.567591
  N     -1.206393    3.019342   -0.507190
  H     -1.235498    2.613583   -1.437036
  C     -0.922010    0.781701    0.515808
  H     -3.713061    2.755794    0.029824
  O     -1.366327   -0.327259    0.376426
  H      0.882793    0.188379    0.708001

----------------------------
CARTESIAN COORDINATES (A.U.)
----------------------------
  NO LB      ZA    FRAG     MASS         X           Y           Z
   0 H     1.0000    0     1.008   -3.087962    4.825466    2.762795
   1 C     6.0000    0    12.011   -6.045394    3.417343    0.342144
   2 H     1.0000    0     1.008   -6.257507    2.238191   -1.332595
   3 H     1.0000    0     1.008   -6.472195   -0.337155    2.702770
   4 O     8.0000    0    15.999    0.721174    1.926431    1.308372
   5 C     6.0000    0    12.011   -3.262631    3.934738    0.897383
   6 H     1.0000    0     1.008   -0.462262    6.157455   -0.556171
   7 S    16.0000    0    32.060   -7.648301    1.865390    2.962318
   8 N     7.0000    0    14.007   -2.279752    5.705730   -0.958449
   9 H     1.0000    0     1.008   -2.334753    4.938957   -2.715604
  10 C     6.0000    0    12.011   -1.742346    1.477200    0.974735
  11 H     1.0000    0     1.008   -7.016668    5.207695    0.056359
  12 O     8.0000    0    15.999   -2.581985   -0.618430    0.711342
  13 H     1.0000    0     1.008    1.668236    0.355984    1.337927

--------------------------------
INTERNAL COORDINATES (ANGSTROEM)
--------------------------------
 H      0   0   0     0.000000000000     0.00000000     0.00000000
 C      1   0   0     2.155302460118     0.00000000     0.00000000
 H      2   1   0     1.089660816409   139.12558949     0.00000000
 H      2   1   3     2.357718852014    92.63664280    87.65784463
 O      1   2   3     2.647434195766   100.35440975   346.41816628
 C      1   2   3     1.097793203659    41.92696973    14.51689083
 H      6   1   2     2.042332655838    91.73565398   141.77438299
 S      4   2   1     1.328413486195    50.23080833    90.36054231
 N      7   6   1     1.013640590891    41.82535844   233.91878178
 H      9   7   6     1.014938919712   108.29402722   238.80955130
 C      5   1   2     1.336845831817    53.05615497   340.26352270
 H      2   1   6     1.088409291779    97.15371838   242.93147154
 O     11   5   1     1.202762072454   122.64947969   204.78407761
 H      5   1   2     0.970590146271   152.20358861   278.84158455

---------------------------
INTERNAL COORDINATES (A.U.)
---------------------------
 H      0   0   0     0.000000000000     0.00000000     0.00000000
 C      1   0   0     4.072931385391     0.00000000     0.00000000
 H      2   1   0     2.059160521878   139.12558949     0.00000000
 H      2   1   3     4.455442931090    92.63664280    87.65784463
 O      1   2   3     5.002925587576   100.35440975   346.41816628
 C      1   2   3     2.074528506596    41.92696973    14.51689083
 H      6   1   2     3.859449393897    91.73565398   141.77438299
 S      4   2   1     2.510337681517    50.23080833    90.36054231
 N      7   6   1     1.915503115011    41.82535844   233.91878178
 H      9   7   6     1.917956600913   108.29402722   238.80955130
 C      5   1   2     2.526272505409    53.05615497   340.26352270
 H      2   1   6     2.056795483077    97.15371838   242.93147154
 O     11   5   1     2.272890921206   122.64947969   204.78407761
 H      5   1   2     1.834149564734   152.20358861   278.84158455

---------------------
BASIS SET INFORMATION
---------------------
There are 5 groups of distinct atoms

 Group   1 Type H   : 4s1p contracted to 2s1p pattern {31/1}
 Group   2 Type C   : 10s4p1d contracted to 3s2p1d pattern {631/31/1}
 Group   3 Type O   : 10s4p1d contracted to 3s2p1d pattern {631/31/1}
 Group   4 Type S   : 16s10p1d contracted to 4s3p1d pattern {6631/631/1}
 Group   5 Type N   : 10s4p1d contracted to 3s2p1d pattern {631/31/1}

Atom   0H    basis set group =>   1
Atom   1C    basis set group =>   2
Atom   2H    basis set group =>   1
Atom   3H    basis set group =>   1
Atom   4O    basis set group =>   3
Atom   5C    basis set group =>   2
Atom   6H    basis set group =>   1
Atom   7S    basis set group =>   4
Atom   8N    basis set group =>   5
Atom   9H    basis set group =>   1
Atom  10C    basis set group =>   2
Atom  11H    basis set group =>   1
Atom  12O    basis set group =>   3
Atom  13H    basis set group =>   1
---------------------------------
AUXILIARY/J BASIS SET INFORMATION
---------------------------------
There are 5 groups of distinct atoms

 Group   1 Type H   : 5s2p1d contracted to 3s1p1d pattern {311/2/1}
 Group   2 Type C   : 12s5p4d2f1g contracted to 6s4p3d1f1g pattern {711111/2111/211/2/1}
 Group   3 Type O   : 12s5p4d2f1g contracted to 6s4p3d1f1g pattern {711111/2111/211/2/1}
 Group   4 Type S   : 14s5p5d2f1g contracted to 8s4p3d1f1g pattern {71111111/2111/311/2/1}
 Group   5 Type N   : 12s5p4d2f1g contracted to 6s4p3d1f1g pattern {711111/2111/211/2/1}

Atom   0H    basis set group =>   1
Atom   1C    basis set group =>   2
Atom   2H    basis set group =>   1
Atom   3H    basis set group =>   1
Atom   4O    basis set group =>   3
Atom   5C    basis set group =>   2
Atom   6H    basis set group =>   1
Atom   7S    basis set group =>   4
Atom   8N    basis set group =>   5
Atom   9H    basis set group =>   1
Atom  10C    basis set group =>   2
Atom  11H    basis set group =>   1
Atom  12O    basis set group =>   3
Atom  13H    basis set group =>   1
------------------------------------------------------------------------------
                             ORCA STARTUP CALCULATIONS
                           -- RI-GTO INTEGRALS CHOSEN --
------------------------------------------------------------------------------
------------------------------------------------------------------------------
                   ___                                                        
                  /   \      - P O W E R E D   B Y -                         
                 /     \                                                     
                 |  |  |   _    _      __       _____    __    __             
                 |  |  |  | |  | |    /  \     |  _  \  |  |  /  |          
                  \  \/   | |  | |   /    \    | | | |  |  | /  /          
                 / \  \   | |__| |  /  /\  \   | |_| |  |  |/  /          
                |  |  |   |  __  | /  /__\  \  |    /   |      \           
                |  |  |   | |  | | |   __   |  |    \   |  |\   \          
                \     /   | |  | | |  |  |  |  | |\  \  |  | \   \       
                 \___/    |_|  |_| |__|  |__|  |_| \__\ |__|  \__/        
                                                                              
                      - O R C A' S   B I G   F R I E N D -                    
                                      &                                       
                       - I N T E G R A L  F E E D E R -                       
                                                                              
 v1 FN, 2020, v2 2021, v3 2022-2024                                           
------------------------------------------------------------------------------


----------------------
SHARK INTEGRAL PACKAGE
----------------------

Number of atoms                             ...     14
Number of basis functions                   ...    137
Number of shells                            ...     65
Maximum angular momentum                    ...      2
Integral batch strategy                     ... SHARK/LIBINT Hybrid
RI-J (if used) integral strategy            ... SPLIT-RIJ (Revised 2003 algorithm where possible)
Printlevel                                  ...      1
Contraction scheme used                     ... SEGMENTED contraction
Prescreening option                         ... SCHWARTZ
   Thresh                                   ... 2.500e-11
   Tcut                                     ... 2.500e-12
   Tpresel                                  ... 2.500e-12 
Coulomb Range Separation                    ... NOT USED
Exchange Range Separation                   ... NOT USED
Multipole approximations                    ... NOT USED
Finite Nucleus Model                        ... NOT USED
CABS basis                                  ... NOT available
Auxiliary Coulomb fitting basis             ... AVAILABLE
   # of basis functions in Aux-J            ...    422
   # of shells in Aux-J                     ...    142
   Maximum angular momentum in Aux-J        ...      4
Auxiliary J/K fitting basis                 ... NOT available
Auxiliary Correlation fitting basis         ... NOT available
Auxiliary 'external' fitting basis          ... NOT available

Checking pre-screening integrals            ... done (  0.0 sec) Dimension = 65
   => SHARK Basis and OBASIS are compatible. Storing Pre-screening
Shell pair information
Shell pair cut-off parameter TPreSel        ...   2.5e-12
Total number of shell pairs                 ...      2145
Shell pairs after pre-screening             ...      2018
Total number of primitive shell pairs       ...     11826
Primitive shell pairs kept                  ...      7514
          la=0 lb=0:    620 shell pairs
          la=1 lb=0:    740 shell pairs
          la=1 lb=1:    240 shell pairs
          la=2 lb=0:    242 shell pairs
          la=2 lb=1:    148 shell pairs
          la=2 lb=2:     28 shell pairs

Checking whether 4 symmetric matrices of dimension 137 fit in memory
:Max Core in MB      =   4096.00
 MB in use           =      6.22
 MB left             =   4089.78
 MB needed           =      0.29
 Data fit in memory  = YES
Calculating RI/J V-Matrix + Cholesky decomp.... done (  0.0 sec)
Calculating Nuclear repulsion               ... done (  0.0 sec) ENN=    381.783373434086 Eh

Diagonalization of the overlap matrix:
Smallest eigenvalue                        ... 3.356e-03
Time for diagonalization                   ...    0.001 sec
Threshold for overlap eigenvalues          ... 1.000e-07
Number of eigenvalues below threshold      ... 0
Time for construction of square roots      ...    0.000 sec
Total time needed                          ...    0.001 sec

-------------------
DFT GRID GENERATION
-------------------

General Integration Accuracy     IntAcc      ... 4.388
Radial Grid Type                 RadialGrid  ... OptM3 with GC (2021)
Angular Grid (max. ang.)         AngularGrid ... 4 (Lebedev-302)
Angular grid pruning method      GridPruning ... 4 (adaptive)
Weight generation scheme         WeightScheme... mBecke (2022)
Basis function cutoff            BFCut       ... 1.0000e-11
Integration weight cutoff        WCut        ... 1.0000e-14
Partially contracted basis set               ... off
Rotationally invariant grid construction     ... off
Angular grids for H and He will be reduced by one unit

Total number of grid points                  ...    66137
Total number of batches                      ...     1040
Average number of points per batch           ...       63
Average number of grid points per atom       ...     4724
Grids setup in   0.2 sec
Initializing property integral containers    ... done (  0.0 sec)

SHARK setup successfully completed in   0.3 seconds

Maximum memory used throughout the entire STARTUP-calculation: 27.8 MB
-------------------------------------------------------------------------------
                                 ORCA GUESS
                   Start orbitals & Density for SCF / CASSCF
-------------------------------------------------------------------------------

------------
SCF SETTINGS
------------
Hamiltonian:
 Density Functional     Method          .... DFT(GTOs)
 Exchange Functional    Exchange        .... B97(D)
 Correlation Functional Correlation     .... B97(D)
 Gradients option       PostSCFGGA      .... off
 RI-approximation to the Coulomb term is turned on
   Number of AuxJ basis functions       .... 422


General Settings:
 Integral files         IntName         .... 5
 Hartree-Fock type      HFTyp           .... RHF
 Total Charge           Charge          ....    0
 Multiplicity           Mult            ....    1
 Number of Electrons    NEL             ....   64
 Basis Dimension        Dim             ....  137
 Nuclear Repulsion      ENuc            ....    381.7833734341 Eh

Convergence Acceleration:
 AO-DIIS                CNVDIIS         .... on
   Start iteration      DIISMaxIt       ....    12
   Startup error        DIISStart       ....  0.200000
   # of expansion vecs  DIISMaxEq       ....     5
   Bias factor          DIISBfac        ....   1.050
   Max. coefficient     DIISMaxC        ....  10.000
 MO-DIIS                CNVKDIIS        .... off
 Trust-Rad. Augm. Hess. CNVTRAH         .... auto
   Auto Start mean grad. ratio tolernc. ....  1.125000
   Auto Start start iteration           ....    50
   Auto Start num. interpolation iter.  ....    10
   Max. Number of Micro iterations      ....    24
   Max. Number of Macro iterations      .... Maxiter - #DIIS iter
   Number of Davidson start vectors     ....     2
   Converg. threshold    (grad. norm)   ....   1.000e-05
   Grad. Scal. Fac. for Micro threshold ....   0.100
   Minimum threshold for Micro iter.    ....   1.000e-02
   NR start threshold (gradient norm)   ....   1.000e-04
   Initial trust radius                 ....   0.400
   Minimum AH scaling param. (alpha)    ....   1.000
   Maximum AH scaling param. (alpha)    .... 1000.000
   Quad. conv. algorithm                .... NR
   White noise on init. David. guess    .... on
   Maximum white noise                  ....   0.010
   Pseudo random numbers                .... off
   Inactive MOs                         .... canonical
   Orbital update algorithm             .... Taylor
   Preconditioner                       .... Diag
   Full preconditioner red. dimension   ....   250
 SOSCF                 CNVSOSCF           .... on
   Start iteration     SOSCFMaxIt         ....   150
   Startup grad/error  SOSCFStart         ....  0.003300
   Hessian update      SOSCFHessUp        .... L-BFGS
   Autom. constraints  SOSCFAutoConstrain .... off
 Level Shifting         CNVShift        .... on
   Level shift para.    LevelShift      ....    0.2500
   Turn off err/grad.   ShiftErr        ....    0.0010
 Zerner damping         CNVZerner       .... off
 Static damping         CNVDamp         .... on
   Fraction old density DampFac         ....    0.7000
   Max. Damping (<1)    DampMax         ....    0.9800
   Min. Damping (>=0)   DampMin         ....    0.0000
   Turn off err/grad.   DampErr         ....    0.1000

SCF Procedure:
 Maximum # iterations   MaxIter         ....   125
 SCF integral mode      SCFMode         .... Direct
   Integral package                     .... SHARK and LIBINT hybrid scheme
 Reset frequency        DirectResetFreq ....    20
 Integral Threshold     Thresh          ....  2.500e-11 Eh
 Primitive CutOff       TCut            ....  2.500e-12 Eh

Convergence Tolerance:
 Convergence Check Mode ConvCheckMode   .... Total+1el-Energy
 Convergence forced     ConvForced      .... 0
 Energy Change          TolE            ....  1.000e-08 Eh
 1-El. energy change                    ....  1.000e-05 Eh
 Orbital Gradient       TolG            ....  1.000e-05
 Orbital Rotation angle TolX            ....  1.000e-05
 DIIS Error             TolErr          ....  5.000e-07

------------------------------
INITIAL GUESS: MODEL POTENTIAL
------------------------------
Loading Hartree-Fock densities                     ... done
Calculating cut-offs                               ... done
Initializing the effective Hamiltonian             ... done
Setting up the integral package (SHARK)            ... done
Starting the Coulomb interaction                   ... done (   0.0 sec)
Making the grid                                    ... done (   0.1 sec)
Mapping shells                                     ... done
Starting the XC term evaluation                    ... done (   0.1 sec)
  promolecular density results
     # of electrons  =     63.996483226
     EX              =    -64.729400082
     EC              =     -2.963828278
     EX+EC           =    -67.693228359
Transforming the Hamiltonian                       ... done (   0.0 sec)
Diagonalizing the Hamiltonian                      ... done (   0.0 sec)
Back transforming the eigenvectors                 ... done (   0.0 sec)
Now organizing SCF variables                       ... done
                      ------------------
                      INITIAL GUESS DONE (   0.2 sec)
                      ------------------
             **** ENERGY FILE WAS UPDATED (5.en.tmp) ****
Finished Guess after   0.2 sec
Maximum memory used throughout the entire GUESS-calculation: 10.3 MB

-------------------------------------------------------------------------------------------
                                      ORCA LEAN-SCF
                              memory conserving SCF solver
-------------------------------------------------------------------------------------------

----------------------------------------D-I-I-S--------------------------------------------
Iteration    Energy (Eh)           Delta-E    RMSDP     MaxDP     DIISErr   Damp  Time(sec)
-------------------------------------------------------------------------------------------
               ***  Starting incremental Fock matrix formation  ***
    1    -721.4621511026756480     0.00e+00  4.19e-03  1.09e-01  2.58e-01  0.700   0.3
    2    -721.5851381245475977    -1.23e-01  2.58e-03  5.88e-02  9.18e-02  0.700   0.3
                               ***Turning on AO-DIIS***
    3    -721.6208089424336549    -3.57e-02  9.82e-04  1.81e-02  2.72e-02  0.700   0.3
    4    -721.6449753262376134    -2.42e-02  1.36e-03  2.92e-02  1.86e-02  0.000   0.3
    5    -721.7020094308776379    -5.70e-02  4.82e-04  1.07e-02  9.92e-03  0.000   0.3
                              *** Initializing SOSCF ***
---------------------------------------S-O-S-C-F--------------------------------------
Iteration    Energy (Eh)           Delta-E    RMSDP     MaxDP     MaxGrad    Time(sec)
--------------------------------------------------------------------------------------
    6    -721.7026028184696997    -5.93e-04  1.54e-04  2.11e-03  3.06e-03     0.3
               *** Restarting incremental Fock matrix formation ***
    7    -721.7026526900184535    -4.99e-05  1.22e-04  2.89e-03  4.43e-04     0.3
    8    -721.7026451743780626     7.52e-06  6.29e-05  2.17e-03  1.22e-03     0.3
    9    -721.7026579738648024    -1.28e-05  5.42e-05  8.35e-04  2.19e-04     0.3
   10    -721.7026575931446359     3.81e-07  2.57e-05  4.20e-04  1.73e-04     0.3
   11    -721.7026593022741281    -1.71e-06  1.24e-05  2.52e-04  3.82e-05     0.3
   12    -721.7026592419296094     6.03e-08  6.67e-06  1.54e-04  4.28e-05     0.3
   13    -721.7026593622409791    -1.20e-07  1.92e-06  2.18e-05  5.35e-06     0.2
   14    -721.7026593618053312     4.36e-10  9.46e-07  1.59e-05  7.03e-06     0.2
                 **** Energy Check signals convergence ****

               *****************************************************
               *                     SUCCESS                       *
               *           SCF CONVERGED AFTER  14 CYCLES          *
               *****************************************************

             **** ENERGY FILE WAS UPDATED (5.en.tmp) ****

----------------
TOTAL SCF ENERGY
----------------

Total Energy       :       -721.70265936663748 Eh          -19638.52776 eV

Components:
Nuclear Repulsion  :        381.78337343408600 Eh           10388.85375 eV
Electronic Energy  :      -1103.48603280072348 Eh          -30027.38152 eV
One Electron Energy:      -1749.71464898146860 Eh          -47612.15615 eV
Two Electron Energy:        646.22861618074523 Eh           17584.77464 eV

Virial components:
Potential Energy   :      -1441.20896252170178 Eh          -39217.28964 eV
Kinetic Energy     :        719.50630315506419 Eh           19578.76187 eV
Virial Ratio       :          2.00305258786746

DFT components:
N(Alpha)           :       32.000022512037 electrons
N(Beta)            :       32.000022512037 electrons
N(Total)           :       64.000045024074 electrons
E(X)               :      -65.654636440462 Eh       
E(C)               :       -2.955993563842 Eh       
E(XC)              :      -68.610630004304 Eh       

---------------
SCF CONVERGENCE
---------------

  Last Energy change         ...   -4.3565e-10  Tolerance :   1.0000e-08
  Last MAX-Density change    ...    1.5923e-05  Tolerance :   1.0000e-07
  Last RMS-Density change    ...    9.4629e-07  Tolerance :   5.0000e-09
  Last DIIS Error            ...    3.0575e-03  Tolerance :   5.0000e-07
  Last Orbital Gradient      ...    7.0338e-06  Tolerance :   1.0000e-05
  Last Orbital Rotation      ...    1.3118e-05  Tolerance :   1.0000e-05


----------------
ORBITAL ENERGIES
----------------

  NO   OCC          E(Eh)            E(eV) 
   0   2.0000     -88.018992     -2395.1185 
   1   2.0000     -18.825842      -512.2772 
   2   2.0000     -18.767102      -510.6788 
   3   2.0000     -14.002815      -381.0360 
   4   2.0000     -10.040811      -273.2244 
   5   2.0000      -9.959568      -271.0136 
   6   2.0000      -9.939718      -270.4735 
   7   2.0000      -7.705921      -209.6888 
   8   2.0000      -5.740190      -156.1985 
   9   2.0000      -5.735725      -156.0770 
  10   2.0000      -5.728663      -155.8848 
  11   2.0000      -1.033633       -28.1266 
  12   2.0000      -0.944825       -25.7100 
  13   2.0000      -0.831253       -22.6195 
  14   2.0000      -0.719573       -19.5806 
  15   2.0000      -0.646065       -17.5803 
  16   2.0000      -0.594694       -16.1825 
  17   2.0000      -0.536253       -14.5922 
  18   2.0000      -0.474648       -12.9158 
  19   2.0000      -0.447836       -12.1862 
  20   2.0000      -0.432835       -11.7780 
  21   2.0000      -0.417560       -11.3624 
  22   2.0000      -0.394127       -10.7247 
  23   2.0000      -0.374266       -10.1843 
  24   2.0000      -0.354740        -9.6530 
  25   2.0000      -0.333393        -9.0721 
  26   2.0000      -0.327907        -8.9228 
  27   2.0000      -0.292168        -7.9503 
  28   2.0000      -0.279657        -7.6098 
  29   2.0000      -0.252102        -6.8601 
  30   2.0000      -0.202449        -5.5089 
  31   2.0000      -0.190273        -5.1776 
  32   0.0000      -0.033434        -0.9098 
  33   0.0000       0.014999         0.4081 
  34   0.0000       0.040660         1.1064 
  35   0.0000       0.062466         1.6998 
  36   0.0000       0.083748         2.2789 
  37   0.0000       0.104536         2.8446 
  38   0.0000       0.110826         3.0157 
  39   0.0000       0.130161         3.5419 
  40   0.0000       0.149027         4.0552 
  41   0.0000       0.175649         4.7797 
  42   0.0000       0.204726         5.5709 
*Only the first 10 virtual orbitals were printed.

                    ********************************
                    * MULLIKEN POPULATION ANALYSIS *
                    ********************************

-----------------------
MULLIKEN ATOMIC CHARGES
-----------------------
   0 H :    0.151555
   1 C :   -0.338919
   2 H :    0.149404
   3 H :    0.098862
   4 O :   -0.459472
   5 C :   -0.034786
   6 H :    0.256062
   7 S :   -0.080166
   8 N :   -0.564994
   9 H :    0.240806
  10 C :    0.511206
  11 H :    0.163753
  12 O :   -0.415911
  13 H :    0.322601
Sum of atomic charges:    0.0000000

--------------------------------
MULLIKEN REDUCED ORBITAL CHARGES
--------------------------------
  0 H s       :     0.837451  s :     0.837451
      pz      :     0.005921  p :     0.010994
      px      :     0.002218
      py      :     0.002854

  1 C s       :     3.301257  s :     3.301257
      pz      :     0.978631  p :     3.001554
      px      :     0.947241
      py      :     1.075682
      dz2     :     0.008721  d :     0.036109
      dxz     :     0.005438
      dyz     :     0.007027
      dx2y2   :     0.007107
      dxy     :     0.007816

  2 H s       :     0.838804  s :     0.838804
      pz      :     0.005141  p :     0.011792
      px      :     0.002472
      py      :     0.004178

  3 H s       :     0.884229  s :     0.884229
      pz      :     0.003549  p :     0.016910
      px      :     0.005958
      py      :     0.007403

  4 O s       :     3.824433  s :     3.824433
      pz      :     1.765726  p :     4.612290
      px      :     1.299785
      py      :     1.546779
      dz2     :     0.003256  d :     0.022749
      dxz     :     0.003785
      dyz     :     0.001809
      dx2y2   :     0.006423
      dxy     :     0.007476

  5 C s       :     3.203476  s :     3.203476
      pz      :     0.991345  p :     2.773861
      px      :     0.898882
      py      :     0.883634
      dz2     :     0.011955  d :     0.057449
      dxz     :     0.008216
      dyz     :     0.012238
      dx2y2   :     0.012371
      dxy     :     0.012669

  6 H s       :     0.719921  s :     0.719921
      pz      :     0.004785  p :     0.024017
      px      :     0.011578
      py      :     0.007655

  7 S s       :     5.849393  s :     5.849393
      pz      :     3.427422  p :    10.172777
      px      :     3.629554
      py      :     3.115801
      dz2     :     0.013359  d :     0.057996
      dxz     :     0.010700
      dyz     :     0.008698
      dx2y2   :     0.008236
      dxy     :     0.017002

  8 N s       :     3.597984  s :     3.597984
      pz      :     1.098250  p :     3.938637
      px      :     1.328442
      py      :     1.511944
      dz2     :     0.007194  d :     0.028373
      dxz     :     0.001582
      dyz     :     0.008692
      dx2y2   :     0.008493
      dxy     :     0.002412

  9 H s       :     0.735222  s :     0.735222
      pz      :     0.010793  p :     0.023973
      px      :     0.005863
      py      :     0.007316

 10 C s       :     2.981455  s :     2.981455
      pz      :     0.783867  p :     2.382771
      px      :     0.740942
      py      :     0.857962
      dz2     :     0.007723  d :     0.124569
      dxz     :     0.016546
      dyz     :     0.017284
      dx2y2   :     0.044977
      dxy     :     0.038038

 11 H s       :     0.824555  s :     0.824555
      pz      :     0.002631  p :     0.011693
      px      :     0.003174
      py      :     0.005888

 12 O s       :     3.862240  s :     3.862240
      pz      :     1.418591  p :     4.525743
      px      :     1.701143
      py      :     1.406009
      dz2     :     0.002633  d :     0.027928
      dxz     :     0.001679
      dyz     :     0.008926
      dx2y2   :     0.007348
      dxy     :     0.007343

 13 H s       :     0.639373  s :     0.639373
      pz      :     0.009294  p :     0.038026
      px      :     0.010749
      py      :     0.017983



                     *******************************
                     * LOEWDIN POPULATION ANALYSIS *
                     *******************************

----------------------
LOEWDIN ATOMIC CHARGES
----------------------
   0 H :    0.094456
   1 C :   -0.212465
   2 H :    0.082773
   3 H :    0.053727
   4 O :   -0.138844
   5 C :   -0.058029
   6 H :    0.130680
   7 S :   -0.004910
   8 N :   -0.242737
   9 H :    0.125341
  10 C :    0.106003
  11 H :    0.096489
  12 O :   -0.217465
  13 H :    0.184982

-------------------------------
LOEWDIN REDUCED ORBITAL CHARGES
-------------------------------
  0 H s       :     0.865922  s :     0.865922
      pz      :     0.022802  p :     0.039622
      px      :     0.006611
      py      :     0.010209

  1 C s       :     2.950610  s :     2.950610
      pz      :     1.055226  p :     3.182153
      px      :     1.030608
      py      :     1.096320
      dz2     :     0.018720  d :     0.079702
      dxz     :     0.012863
      dyz     :     0.015175
      dx2y2   :     0.016950
      dxy     :     0.015995

  2 H s       :     0.875104  s :     0.875104
      pz      :     0.021016  p :     0.042123
      px      :     0.007139
      py      :     0.013969

  3 H s       :     0.894773  s :     0.894773
      pz      :     0.008660  p :     0.051500
      px      :     0.016623
      py      :     0.026217

  4 O s       :     3.467289  s :     3.467289
      pz      :     1.730623  p :     4.620821
      px      :     1.341011
      py      :     1.549188
      dz2     :     0.007435  d :     0.050733
      dxz     :     0.007618
      dyz     :     0.001412
      dx2y2   :     0.016515
      dxy     :     0.017754

  5 C s       :     2.889116  s :     2.889116
      pz      :     1.029327  p :     3.038470
      px      :     1.015555
      py      :     0.993587
      dz2     :     0.026566  d :     0.130443
      dxz     :     0.016659
      dyz     :     0.027159
      dx2y2   :     0.030285
      dxy     :     0.029775

  6 H s       :     0.789429  s :     0.789429
      pz      :     0.012633  p :     0.079892
      px      :     0.044293
      py      :     0.022966

  7 S s       :     5.642152  s :     5.642152
      pz      :     3.485860  p :    10.298848
      px      :     3.655411
      py      :     3.157578
      dz2     :     0.014521  d :     0.063910
      dxz     :     0.012241
      dyz     :     0.010247
      dx2y2   :     0.008785
      dxy     :     0.018116

  8 N s       :     3.197113  s :     3.197113
      pz      :     1.145706  p :     3.987641
      px      :     1.328246
      py      :     1.513690
      dz2     :     0.016336  d :     0.057983
      dxz     :     0.005216
      dyz     :     0.017657
      dx2y2   :     0.013671
      dxy     :     0.005102

  9 H s       :     0.795462  s :     0.795462
      pz      :     0.039211  p :     0.079197
      px      :     0.015652
      py      :     0.024334

 10 C s       :     2.857792  s :     2.857792
      pz      :     0.787975  p :     2.739545
      px      :     0.905847
      py      :     1.045723
      dz2     :     0.019330  d :     0.296661
      dxz     :     0.036596
      dyz     :     0.034762
      dx2y2   :     0.110507
      dxy     :     0.095466

 11 H s       :     0.861929  s :     0.861929
      pz      :     0.007484  p :     0.041581
      px      :     0.011071
      py      :     0.023026

 12 O s       :     3.553616  s :     3.553616
      pz      :     1.404221  p :     4.605572
      px      :     1.698536
      py      :     1.502815
      dz2     :     0.007044  d :     0.058277
      dxz     :     0.002632
      dyz     :     0.012807
      dx2y2   :     0.018654
      dxy     :     0.017141

 13 H s       :     0.699219  s :     0.699219
      pz      :     0.026218  p :     0.115799
      px      :     0.031311
      py      :     0.058270



                      *****************************
                      * MAYER POPULATION ANALYSIS *
                      *****************************

  NA   - Mulliken gross atomic population
  ZA   - Total nuclear charge
  QA   - Mulliken gross atomic charge
  VA   - Mayer's total valence
  BVA  - Mayer's bonded valence
  FA   - Mayer's free valence

  ATOM       NA         ZA         QA         VA         BVA        FA
  0 H      0.8484     1.0000     0.1516     0.9453     0.9453     0.0000
  1 C      6.3389     6.0000    -0.3389     3.8589     3.8589    -0.0000
  2 H      0.8506     1.0000     0.1494     0.9453     0.9453     0.0000
  3 H      0.9011     1.0000     0.0989     0.9824     0.9824     0.0000
  4 O      8.4595     8.0000    -0.4595     2.0499     2.0499    -0.0000
  5 C      6.0348     6.0000    -0.0348     3.8308     3.8308     0.0000
  6 H      0.7439     1.0000     0.2561     0.9212     0.9212     0.0000
  7 S     16.0802    16.0000    -0.0802     1.9753     1.9753    -0.0000
  8 N      7.5650     7.0000    -0.5650     2.8880     2.8880     0.0000
  9 H      0.7592     1.0000     0.2408     0.9204     0.9204    -0.0000
 10 C      5.4888     6.0000     0.5112     3.9353     3.9353    -0.0000
 11 H      0.8362     1.0000     0.1638     0.9456     0.9456     0.0000
 12 O      8.4159     8.0000    -0.4159     2.1041     2.1041     0.0000
 13 H      0.6774     1.0000     0.3226     0.9146     0.9146    -0.0000

  Mayer bond orders larger than 0.100000
B(  0-H ,  5-C ) :   0.9183 B(  1-C ,  2-H ) :   0.9361 B(  1-C ,  5-C ) :   0.9693 
B(  1-C ,  7-S ) :   1.0026 B(  1-C , 11-H ) :   0.9387 B(  3-H ,  7-S ) :   0.9344 
B(  4-O , 10-C ) :   1.0972 B(  4-O , 13-H ) :   0.8498 B(  5-C ,  8-N ) :   1.0140 
B(  5-C , 10-C ) :   0.9034 B(  6-H ,  8-N ) :   0.8980 B(  8-N ,  9-H ) :   0.9067 
B( 10-C , 12-O ) :   1.8836 

-------
TIMINGS
-------

Total SCF time: 0 days 0 hours 0 min 4 sec 

Total time                  ....       4.126 sec
Sum of individual times     ....       3.845 sec  ( 93.2%)

SCF preparation             ....       0.027 sec  (  0.7%)
Fock matrix formation       ....       3.789 sec  ( 91.8%)
  Startup                   ....       0.001 sec  (  0.0% of F)
  Split-RI-J                ....       1.148 sec  ( 30.3% of F)
  XC integration            ....       2.872 sec  ( 75.8% of F)
    Basis function eval.    ....       1.007 sec  ( 35.1% of XC)
    Density eval.           ....       0.572 sec  ( 19.9% of XC)
    XC-Functional eval.     ....       0.605 sec  ( 21.1% of XC)
    XC-Potential eval.      ....       0.614 sec  ( 21.4% of XC)
Diagonalization             ....       0.000 sec  (  0.0%)
Density matrix formation    ....       0.003 sec  (  0.1%)
Total Energy calculation    ....       0.001 sec  (  0.0%)
Population analysis         ....       0.002 sec  (  0.0%)
Orbital Transformation      ....       0.003 sec  (  0.1%)
Orbital Orthonormalization  ....       0.000 sec  (  0.0%)
DIIS solution               ....       0.012 sec  (  0.3%)
SOSCF solution              ....       0.009 sec  (  0.2%)
Finished LeanSCF after   4.1 sec

Maximum memory used throughout the entire LEANSCF-calculation: 14.9 MB



-------------------------------------------------------------------------------
                          DFT DISPERSION CORRECTION                            
-------------------------------------------------------------------------------
Active option DFTDOPT                   ...         2   
Final C6-coefficient scaling factor     ...     1.250
Final VDW-radii scaling factor          ...     1.100
Damping factor alpha                    ...    20.000
-------------------------   ----------------
Dispersion correction           -0.016865083
-------------------------   ----------------


-------------------------   --------------------
FINAL SINGLE POINT ENERGY      -721.719524449934
-------------------------   --------------------

------------------------------------------------------------------------------
                         ORCA SCF GRADIENT CALCULATION
------------------------------------------------------------------------------

Nuc. rep. gradient        (SHARK) ... done (  0.0 sec)
HCore & Overlap gradient  (SHARK) ... done (  0.1 sec)
Split-RIJ-J gradient      (SHARK) ... done (  0.3 sec)
XC gradient                       ... done (  1.5 sec)
Dispersion correction             ... done (  0.0 sec)

-------------------
DISPERSION GRADIENT
-------------------

   1   H   :   -0.000209343   -0.000011676    0.000001705
   2   C   :    0.000660562   -0.000799910    0.000822719
   3   H   :   -0.001087912    0.000696598    0.000414543
   4   H   :   -0.000137330   -0.000116834   -0.000051350
   5   O   :    0.000201233   -0.000418935   -0.000003144
   6   C   :   -0.000643703   -0.000228958   -0.000626277
   7   H   :    0.000129232    0.000547918   -0.000685408
   8   S   :    0.000065394    0.000443337   -0.000785399
   9   N   :    0.000391224   -0.000115965    0.000512934
  10   H   :    0.000549468    0.000684562   -0.000405846
  11   C   :    0.000355366    0.000356631    0.000345620
  12   H   :   -0.000267060   -0.000879749    0.000039375
  13   O   :    0.000273767    0.000137291    0.000449080
  14   H   :   -0.000280897   -0.000294310   -0.000028550

Difference to translation invariance:
           :    0.0000000000    0.0000000000    0.0000000000

Difference to rotation invariance:
           :    0.0000000000    0.0000000000   -0.0000000000

Norm of the Dispersion gradient    ...    0.0030657171
RMS gradient                       ...    0.0004730504
MAX gradient                       ...    0.0010879124

------------------
CARTESIAN GRADIENT
------------------

   1   H   :    0.000516243   -0.000955243   -0.002228009
   2   C   :   -0.000495369    0.002434896   -0.004991072
   3   H   :   -0.000649775    0.001152479    0.006266700
   4   H   :   -0.004595344    0.009432585    0.000936081
   5   O   :   -0.023782732   -0.015813056   -0.005015612
   6   C   :   -0.002278258   -0.002462672   -0.000318800
   7   H   :   -0.004115592    0.000441925    0.000566986
   8   S   :    0.014498157   -0.005569871   -0.009518432
   9   N   :    0.002402935   -0.012183811    0.004663960
  10   H   :   -0.001858000    0.002390262    0.003505456
  11   C   :    0.004473155   -0.012120053   -0.002613027
  12   H   :    0.001453099   -0.004910612    0.001696860
  13   O   :    0.011010450    0.032803064    0.006124811
  14   H   :    0.003421029    0.005360106    0.000924097

Difference to translation invariance:
           :   -0.0000000001    0.0000000000    0.0000000000

Difference to rotation invariance:
           :    0.0000556060    0.0000741355    0.0000751471

Norm of the Cartesian gradient     ...    0.0553806140
RMS gradient                       ...    0.0085454143
MAX gradient                       ...    0.0328030639

-------
TIMINGS
-------

Total SCF gradient time     ....        1.875 sec

Densities                   ....       0.000 sec  (  0.0%)
One electron gradient       ....       0.058 sec  (  3.1%)
RI-J Coulomb gradient       ....       0.344 sec  ( 18.3%)
XC gradient                 ....       1.473 sec  ( 78.6%)

Maximum memory used throughout the entire SCFGRAD-calculation: 19.4 MB
------------------------------------------------------------------------------
                         ORCA GEOMETRY RELAXATION STEP
------------------------------------------------------------------------------

Reading the OPT-File                    .... done
Getting information on internals        .... done
Copying old internal coords+grads       .... done
Making the new internal coordinates     .... (2022 redundants) done
Validating the new internal coordinates .... (2022 redundants) done
Calculating the B-matrix                .... done
Calculating the G,G- and P matrices     .... done
Transforming gradient to internals      .... done
Projecting the internal gradient        .... done
Number of atoms                         ....  14
Number of internal coordinates          ....  55
Current Energy                          ....  -721.719524450 Eh
Current gradient norm                   ....     0.055380614 Eh/bohr
Maximum allowed component of the step   ....  0.300
Current trust radius                    ....  0.300
Evaluating the initial hessian          ....  (Almloef) done
Projecting the Hessian                  .... done
Forming the augmented Hessian           .... done
Diagonalizing the augmented Hessian     .... done
Last element of RFO vector              ....  0.977878716
Lowest eigenvalues of augmented Hessian:
 -0.005090104  0.010002012  0.010793405  0.010828194  0.016606462
Length of the computed step             ....  0.213904541
The final length of the internal step   ....  0.213904541
Converting the step to Cartesian space:
 Initial RMS(Int)=    0.0288428825
Transforming coordinates:
 Iter   0:  RMS(Cart)=    0.0360198816 RMS(Int)=    0.0289018167
done
Storing new coordinates                 .... done

                                .--------------------.
          ----------------------|Geometry convergence|-------------------------
          Item                value                   Tolerance       Converged
          ---------------------------------------------------------------------
          RMS gradient        0.0070342082            0.0001000000      NO
          MAX gradient        0.0355959065            0.0003000000      NO
          RMS step            0.0288428825            0.0020000000      NO
          MAX step            0.1271064923            0.0040000000      NO
          -------------------------------------------------------------------------
          ........................................................
          Max(Bonds)      0.0673      Max(Angles)    1.60
          Max(Dihed)        4.23      Max(Improp)    0.00
          ---------------------------------------------------------------------

The optimization has not yet converged - more geometry cycles are needed


    ---------------------------------------------------------------------------
                         Redundant Internal Coordinates
                            (Angstroem and degrees)

        Definition                    Value    dE/dq     Step     New-Value
    ----------------------------------------------------------------------------
     1. B(H   2,C   1)                1.0897 -0.005689  0.0082    1.0979   
     2. B(C   5,C   1)                1.5264 -0.007212  0.0107    1.5371   
     3. B(C   5,H   0)                1.0978 -0.002370  0.0035    1.1013   
     4. B(S   7,H   3)                1.3284 -0.011909  0.0149    1.3433   
     5. B(S   7,C   1)                1.8211 -0.010949  0.0173    1.8384   
     6. B(N   8,H   6)                1.0136 -0.003681  0.0045    1.0181   
     7. B(N   8,C   5)                1.4537 -0.013208  0.0156    1.4693   
     8. B(H   9,N   8)                1.0149 -0.004113  0.0051    1.0200   
     9. B(C  10,C   5)                1.5297 -0.009924  0.0144    1.5441   
    10. B(C  10,O   4)                1.3368 -0.022256  0.0172    1.3540   
    11. B(H  11,C   1)                1.0884 -0.005196  0.0075    1.0959   
    12. B(O  12,H   3)                2.3174 -0.002656  0.0673    2.3847   
    13. B(O  12,C  10)                1.2028 -0.035596  0.0168    1.2195   
    14. B(H  13,O   4)                0.9706 -0.002808  0.0029    0.9735   
    15. A(H   2,C   1,C   5)          111.02  0.003507   -0.62    110.40   
    16. A(H   2,C   1,H  11)          109.68  0.000093   -0.60    109.09   
    17. A(C   5,C   1,S   7)          112.56 -0.006648    1.50    114.06   
    18. A(H   2,C   1,S   7)          108.24  0.000139    0.35    108.59   
    19. A(C   5,C   1,H  11)          109.04  0.002130   -0.59    108.45   
    20. A(S   7,C   1,H  11)          106.16  0.000716   -0.06    106.10   
    21. A(C  10,O   4,H  13)          110.70  0.010592   -1.60    109.09   
    22. A(C   1,C   5,N   8)          109.32 -0.000290    0.07    109.39   
    23. A(C   1,C   5,C  10)          111.10  0.001652    0.09    111.19   
    24. A(H   0,C   5,N   8)          107.49 -0.000217    0.11    107.60   
    25. A(H   0,C   5,C  10)          107.26  0.000989   -0.14    107.11   
    26. A(N   8,C   5,C  10)          112.21 -0.002884    0.38    112.59   
    27. A(H   0,C   5,C   1)          109.35  0.000790   -0.54    108.81   
    28. A(C   1,S   7,H   3)           95.67  0.004331   -0.44     95.22   
    29. A(H   6,N   8,H   9)          108.29  0.001391   -0.72    107.57   
    30. A(C   5,N   8,H   9)          110.54  0.000619   -0.32    110.23   
    31. A(C   5,N   8,H   6)          110.47  0.000140   -0.24    110.23   
    32. A(O   4,C  10,C   5)          111.42  0.003877   -0.59    110.83   
    33. A(C   5,C  10,O  12)          125.91 -0.001519    0.33    126.23   
    34. A(O   4,C  10,O  12)          122.65 -0.002355    0.24    122.89   
    35. D(N   8,C   5,C   1,H   2)     72.69  0.002322   -1.11     71.58   
    36. D(N   8,C   5,C   1,S   7)   -165.79  0.000348   -0.05   -165.84   
    37. D(H   0,C   5,C   1,H   2)   -169.88  0.002350   -1.25   -171.13   
    38. D(H   0,C   5,C   1,H  11)     69.17 -0.001381    0.27     69.44   
    39. D(H   0,C   5,C   1,S   7)    -48.36  0.000376   -0.18    -48.54   
    40. D(N   8,C   5,C   1,H  11)    -48.25 -0.001409    0.40    -47.85   
    41. D(H   3,S   7,C   1,H   2)     52.97 -0.000706    1.71     54.68   
    42. D(H   3,S   7,C   1,H  11)    170.66 -0.000152    1.16    171.83   
    43. D(H   3,S   7,C   1,C   5)    -70.11 -0.000846    1.25    -68.86   
    44. D(H   9,N   8,C   5,C   1)    -63.68  0.001681   -1.22    -64.90   
    45. D(H   9,N   8,C   5,H   0)    177.73  0.001021   -0.68    177.05   
    46. D(H   6,N   8,C   5,C  10)    -59.80 -0.000634    0.46    -59.34   
    47. D(H   6,N   8,C   5,C   1)    176.48 -0.000545    0.03    176.51   
    48. D(H   6,N   8,C   5,H   0)     57.88 -0.001205    0.58     58.46   
    49. D(C   5,C  10,O   4,H  13)   -179.44 -0.000220    0.70   -178.74   
    50. D(O  12,C  10,C   5,C   1)     -1.96 -0.002051    4.23      2.27   
    51. D(O  12,C  10,C   5,H   0)    117.50  0.000473    3.52    121.03   
    52. D(O   4,C  10,C   5,N   8)     53.53 -0.000708    2.84     56.36   
    53. D(O   4,C  10,C   5,C   1)    176.24 -0.001952    3.27    179.51   
    54. D(O   4,C  10,C   5,H   0)    -64.30  0.000571    2.57    -61.73   
    55. D(O  12,C  10,O   4,H  13)     -1.18 -0.000113   -0.22     -1.39   
    ----------------------------------------------------------------------------

Geometry step timings:
Preparation and reading OPT file:      0.000 s ( 1.671 %)
Internal coordinates            :      0.000 s ( 1.393 %)
B/P matrices and projection     :      0.000 s (39.833 %)
Hessian update/contruction      :      0.000 s (10.724 %)
Making the step                 :      0.000 s (23.538 %)
Converting the step to Cartesian:      0.000 s ( 4.039 %)
Storing new data                :      0.000 s ( 1.671 %)
Checking convergence            :      0.000 s ( 1.811 %)
Final printing                  :      0.000 s (15.320 %)
Total time                      :      0.001 s

Time for energy+gradient        :      6.548 s
Time for complete geometry iter :      6.560 s

         *************************************************************
         *                GEOMETRY OPTIMIZATION CYCLE   2            *
         *************************************************************
---------------------------------
CARTESIAN COORDINATES (ANGSTROEM)
---------------------------------
  H     -1.623433    2.557194    1.459707
  C     -3.208648    1.810052    0.196475
  H     -3.324983    1.199428   -0.708499
  H     -3.438243   -0.193801    1.447187
  O      0.400369    1.021977    0.741538
  C     -1.721261    2.084700    0.469707
  H     -0.239663    3.269375   -0.324822
  S     -4.083248    0.976804    1.582257
  N     -1.209095    3.033823   -0.528151
  H     -1.235871    2.616189   -1.458347
  C     -0.910165    0.771456    0.511025
  H     -3.717157    2.769556    0.048975
  O     -1.345355   -0.350765    0.314742
  H      0.890018    0.180547    0.742679

----------------------------
CARTESIAN COORDINATES (A.U.)
----------------------------
  NO LB      ZA    FRAG     MASS         X           Y           Z
   0 H     1.0000    0     1.008   -3.067844    4.832396    2.758446
   1 C     6.0000    0    12.011   -6.063466    3.420503    0.371283
   2 H     1.0000    0     1.008   -6.283307    2.266590   -1.338868
   3 H     1.0000    0     1.008   -6.497338   -0.366231    2.734787
   4 O     8.0000    0    15.999    0.756589    1.931257    1.401304
   5 C     6.0000    0    12.011   -3.252713    3.939513    0.887617
   6 H     1.0000    0     1.008   -0.452897    6.178224   -0.613825
   7 S    16.0000    0    32.060   -7.716221    1.845893    2.990032
   8 N     7.0000    0    14.007   -2.284858    5.733094   -0.998060
   9 H     1.0000    0     1.008   -2.335458    4.943881   -2.755876
  10 C     6.0000    0    12.011   -1.719963    1.457840    0.965697
  11 H     1.0000    0     1.008   -7.024409    5.233702    0.092550
  12 O     8.0000    0    15.999   -2.542352   -0.662850    0.594777
  13 H     1.0000    0     1.008    1.681890    0.341183    1.403460

--------------------------------
INTERNAL COORDINATES (ANGSTROEM)
--------------------------------
 H      0   0   0     0.000000000000     0.00000000     0.00000000
 C      1   0   0     2.160296726986     0.00000000     0.00000000
 H      2   1   0     1.097894426689   138.77318547     0.00000000
 H      2   1   3     2.373272462920    93.14387302    89.63328376
 O      1   2   3     2.639778647929   101.67422847   343.44590220
 C      1   2   3     1.101326446492    42.33670738    12.68207494
 H      6   1   2     2.056663950492    92.07189943   141.76444338
 S      4   2   1     1.343351271536    50.48155037    92.01291215
 N      7   6   1     1.018148668444    42.09495999   234.37894520
 H      9   7   6     1.019999826594   107.56833931   239.79489799
 C      5   1   2     1.354030473151    53.97689200   342.34858645
 H      2   1   6     1.095894846154    96.68352188   243.40530180
 O     11   5   1     1.219547947665   122.89053278   203.09044787
 H      5   1   2     0.973530934388   152.61492557   283.98202811

---------------------------
INTERNAL COORDINATES (A.U.)
---------------------------
 H      0   0   0     0.000000000000     0.00000000     0.00000000
 C      1   0   0     4.082369182009     0.00000000     0.00000000
 H      2   1   0     2.074719790401   138.77318547     0.00000000
 H      2   1   3     4.484834996095    93.14387302    89.63328376
 O      1   2   3     4.988458698759   101.67422847   343.44590220
 C      1   2   3     2.081205367914    42.33670738    12.68207494
 H      6   1   2     3.886531615939    92.07189943   141.76444338
 S      4   2   1     2.538566004857    50.48155037    92.01291215
 N      7   6   1     1.924022146975    42.09495999   234.37894520
 H      9   7   6     1.927520328910   107.56833931   239.79489799
 C      5   1   2     2.558746771239    53.97689200   342.34858645
 H      2   1   6     2.070941130808    96.68352188   243.40530180
 O     11   5   1     2.304611628273   122.89053278   203.09044787
 H      5   1   2     1.839706848894   152.61492557   283.98202811

------------------------------------------------------------------------------
                   ___                                                        
                  /   \      - P O W E R E D   B Y -                         
                 /     \                                                     
                 |  |  |   _    _      __       _____    __    __             
                 |  |  |  | |  | |    /  \     |  _  \  |  |  /  |          
                  \  \/   | |  | |   /    \    | | | |  |  | /  /          
                 / \  \   | |__| |  /  /\  \   | |_| |  |  |/  /          
                |  |  |   |  __  | /  /__\  \  |    /   |      \           
                |  |  |   | |  | | |   __   |  |    \   |  |\   \          
                \     /   | |  | | |  |  |  |  | |\  \  |  | \   \       
                 \___/    |_|  |_| |__|  |__|  |_| \__\ |__|  \__/        
                                                                              
                      - O R C A' S   B I G   F R I E N D -                    
                                      &                                       
                       - I N T E G R A L  F E E D E R -                       
                                                                              
 v1 FN, 2020, v2 2021, v3 2022-2024                                           
------------------------------------------------------------------------------


----------------------
SHARK INTEGRAL PACKAGE
----------------------

Number of atoms                             ...     14
Number of basis functions                   ...    137
Number of shells                            ...     65
Maximum angular momentum                    ...      2
Integral batch strategy                     ... SHARK/LIBINT Hybrid
RI-J (if used) integral strategy            ... SPLIT-RIJ (Revised 2003 algorithm where possible)
Printlevel                                  ...      1
Contraction scheme used                     ... SEGMENTED contraction
Prescreening option                         ... SCHWARTZ
   Thresh                                   ... 2.500e-11
   Tcut                                     ... 2.500e-12
   Tpresel                                  ... 2.500e-12 
Coulomb Range Separation                    ... NOT USED
Exchange Range Separation                   ... NOT USED
Multipole approximations                    ... NOT USED
Finite Nucleus Model                        ... NOT USED
CABS basis                                  ... NOT available
Auxiliary Coulomb fitting basis             ... AVAILABLE
   # of basis functions in Aux-J            ...    422
   # of shells in Aux-J                     ...    142
   Maximum angular momentum in Aux-J        ...      4
Auxiliary J/K fitting basis                 ... NOT available
Auxiliary Correlation fitting basis         ... NOT available
Auxiliary 'external' fitting basis          ... NOT available

Checking pre-screening integrals            ... done (  0.0 sec) Dimension = 65
   => SHARK Basis and OBASIS are compatible. Storing Pre-screening
Shell pair information
Shell pair cut-off parameter TPreSel        ...   2.5e-12
Total number of shell pairs                 ...      2145
Shell pairs after pre-screening             ...      2012
Total number of primitive shell pairs       ...     11826
Primitive shell pairs kept                  ...      7477
          la=0 lb=0:    620 shell pairs
          la=1 lb=0:    739 shell pairs
          la=1 lb=1:    239 shell pairs
          la=2 lb=0:    239 shell pairs
          la=2 lb=1:    147 shell pairs
          la=2 lb=2:     28 shell pairs

Checking whether 4 symmetric matrices of dimension 137 fit in memory
:Max Core in MB      =   4096.00
 MB in use           =      6.36
 MB left             =   4089.64
 MB needed           =      0.29
 Data fit in memory  = YES
Calculating RI/J V-Matrix + Cholesky decomp.... done (  0.0 sec)
Calculating Nuclear repulsion               ... done (  0.0 sec) ENN=    377.389460776893 Eh

Diagonalization of the overlap matrix:
Smallest eigenvalue                        ... 3.626e-03
Time for diagonalization                   ...    0.001 sec
Threshold for overlap eigenvalues          ... 1.000e-07
Number of eigenvalues below threshold      ... 0
Time for construction of square roots      ...    0.000 sec
Total time needed                          ...    0.001 sec

-------------------
DFT GRID GENERATION
-------------------

General Integration Accuracy     IntAcc      ... 4.388
Radial Grid Type                 RadialGrid  ... OptM3 with GC (2021)
Angular Grid (max. ang.)         AngularGrid ... 4 (Lebedev-302)
Angular grid pruning method      GridPruning ... 4 (adaptive)
Weight generation scheme         WeightScheme... mBecke (2022)
Basis function cutoff            BFCut       ... 1.0000e-11
Integration weight cutoff        WCut        ... 1.0000e-14
Partially contracted basis set               ... off
Rotationally invariant grid construction     ... off
Angular grids for H and He will be reduced by one unit

Total number of grid points                  ...    66182
Total number of batches                      ...     1041
Average number of points per batch           ...       63
Average number of grid points per atom       ...     4727
Grids setup in   0.2 sec
Initializing property integral containers    ... done (  0.0 sec)

SHARK setup successfully completed in   0.3 seconds

Maximum memory used throughout the entire STARTUP-calculation: 28.0 MB
Occupation numbers will be reassigned to an Aufbau configuration
             **** ENERGY FILE WAS UPDATED (5.en.tmp) ****
Finished Guess after   0.0 sec
Maximum memory used throughout the entire GUESS-calculation: 10.5 MB
----------------------------------------D-I-I-S--------------------------------------------
Iteration    Energy (Eh)           Delta-E    RMSDP     MaxDP     DIISErr   Damp  Time(sec)
-------------------------------------------------------------------------------------------
               ***  Starting incremental Fock matrix formation  ***
    1    -721.7029320001374799     0.00e+00  2.56e-04  6.03e-03  2.31e-02  0.700   0.3
    2    -721.7037699932066062    -8.38e-04  2.44e-04  5.63e-03  1.78e-02  0.700   0.3
                               ***Turning on AO-DIIS***
    3    -721.7044016363220180    -6.32e-04  1.90e-04  4.40e-03  1.30e-02  0.700   0.3
    4    -721.7048438097897360    -4.42e-04  4.69e-04  1.06e-02  9.25e-03  0.000   0.3
                              *** Initializing SOSCF ***
---------------------------------------S-O-S-C-F--------------------------------------
Iteration    Energy (Eh)           Delta-E    RMSDP     MaxDP     MaxGrad    Time(sec)
--------------------------------------------------------------------------------------
    5    -721.7058809610009575    -1.04e-03  2.97e-05  4.37e-04  3.92e-04     0.3
               *** Restarting incremental Fock matrix formation ***
    6    -721.7058823512988965    -1.39e-06  2.58e-05  4.40e-04  9.10e-05     0.3
    7    -721.7058820420038501     3.09e-07  1.63e-05  3.10e-04  1.23e-04     0.3
    8    -721.7058827788318922    -7.37e-07  8.20e-06  2.80e-04  3.56e-05     0.3
    9    -721.7058826978898196     8.09e-08  5.43e-06  2.00e-04  9.08e-05     0.2
   10    -721.7058828031683788    -1.05e-07  3.79e-06  8.72e-05  1.79e-05     0.2
   11    -721.7058827922498949     1.09e-08  2.39e-06  6.02e-05  2.05e-05     0.2
   12    -721.7058828125327636    -2.03e-08  5.13e-07  1.38e-05  2.32e-06     0.2
                  *** Gradient check signals convergence ***

               *****************************************************
               *                     SUCCESS                       *
               *           SCF CONVERGED AFTER  12 CYCLES          *
               *****************************************************

             **** ENERGY FILE WAS UPDATED (5.en.tmp) ****

----------------
TOTAL SCF ENERGY
----------------

Total Energy       :       -721.70588281364212 Eh          -19638.61548 eV

Components:
Nuclear Repulsion  :        377.38946077689258 Eh           10269.28931 eV
Electronic Energy  :      -1099.09534359053464 Eh          -29907.90479 eV
[...]
  32   0.0000      -0.039407        -1.0723 
  33   0.0000       0.002048         0.0557 
  34   0.0000       0.041908         1.1404 
  35   0.0000       0.049038         1.3344 
  36   0.0000       0.075554         2.0559 
  37   0.0000       0.097350         2.6490 
  38   0.0000       0.104840         2.8528 
  39   0.0000       0.131561         3.5800 
  40   0.0000       0.145646         3.9632 
  41   0.0000       0.173921         4.7326 
  42   0.0000       0.176422         4.8007 
*Only the first 10 virtual orbitals were printed.

                    ********************************
                    * MULLIKEN POPULATION ANALYSIS *
                    ********************************

-----------------------
MULLIKEN ATOMIC CHARGES
-----------------------
   0 H :    0.144761
   1 C :   -0.335297
   2 H :    0.152475
   3 H :    0.090408
   4 O :   -0.465589
   5 C :   -0.016892
   6 H :    0.254946
   7 S :   -0.067193
   8 N :   -0.561045
   9 H :    0.246571
  10 C :    0.505329
  11 H :    0.161057
  12 O :   -0.430401
  13 H :    0.320870
Sum of atomic charges:    0.0000000

--------------------------------
MULLIKEN REDUCED ORBITAL CHARGES
--------------------------------
  0 H s       :     0.844466  s :     0.844466
      pz      :     0.005603  p :     0.010773
      px      :     0.002213
      py      :     0.002957

  1 C s       :     3.310551  s :     3.310551
      pz      :     0.981045  p :     2.989571
      px      :     0.951228
      py      :     1.057297
      dz2     :     0.009191  d :     0.035176
      dxz     :     0.004885
      dyz     :     0.006223
      dx2y2   :     0.006899
      dxy     :     0.007978

  2 H s       :     0.835994  s :     0.835994
      pz      :     0.005393  p :     0.011531
      px      :     0.002459
      py      :     0.003679

  3 H s       :     0.893826  s :     0.893826
      pz      :     0.003578  p :     0.015766
      px      :     0.005299
      py      :     0.006889

  4 O s       :     3.844352  s :     3.844352
      pz      :     1.709323  p :     4.598025
      px      :     1.353923
      py      :     1.534779
      dz2     :     0.004349  d :     0.023212
      dxz     :     0.004605
      dyz     :     0.002523
      dx2y2   :     0.005403
      dxy     :     0.006332

  5 C s       :     3.212520  s :     3.212520
      pz      :     0.960840  p :     2.748846
      px      :     0.904387
      py      :     0.883618
      dz2     :     0.011218  d :     0.055526
      dxz     :     0.008189
      dyz     :     0.013081
      dx2y2   :     0.011413
      dxy     :     0.011625

  6 H s       :     0.721496  s :     0.721496
      pz      :     0.004590  p :     0.023558
      px      :     0.011514
      py      :     0.007454

  7 S s       :     5.855370  s :     5.855370
      pz      :     3.433226  p :    10.156957
      px      :     3.672049
      py      :     3.051683
      dz2     :     0.011193  d :     0.054866
      dxz     :     0.009046
      dyz     :     0.012031
      dx2y2   :     0.007613
      dxy     :     0.014982

  8 N s       :     3.627480  s :     3.627480
      pz      :     1.095382  p :     3.904871
      px      :     1.316440
      py      :     1.493049
      dz2     :     0.006074  d :     0.028694
      dxz     :     0.001409
      dyz     :     0.010287
      dx2y2   :     0.008878
      dxy     :     0.002046

  9 H s       :     0.729942  s :     0.729942
      pz      :     0.010002  p :     0.023487
      px      :     0.005740
      py      :     0.007745

 10 C s       :     3.009812  s :     3.009812
      pz      :     0.763236  p :     2.367372
      px      :     0.759085
      py      :     0.845052
      dz2     :     0.016226  d :     0.117487
      dxz     :     0.019918
      dyz     :     0.017293
      dx2y2   :     0.033437
      dxy     :     0.030613

 11 H s       :     0.827463  s :     0.827463
      pz      :     0.002455  p :     0.011479
      px      :     0.003188
      py      :     0.005836

 12 O s       :     3.877962  s :     3.877962
      pz      :     1.427940  p :     4.525257
      px      :     1.682298
      py      :     1.415019
      dz2     :     0.005096  d :     0.027182
      dxz     :     0.002045
      dyz     :     0.007763
      dx2y2   :     0.005933
      dxy     :     0.006345

 13 H s       :     0.641697  s :     0.641697
      pz      :     0.008830  p :     0.037433
      px      :     0.010544
      py      :     0.018059



                     *******************************
                     * LOEWDIN POPULATION ANALYSIS *
                     *******************************

----------------------
LOEWDIN ATOMIC CHARGES
----------------------
   0 H :    0.089727
   1 C :   -0.207996
   2 H :    0.085203
   3 H :    0.056268
   4 O :   -0.157116
   5 C :   -0.049765
   6 H :    0.133504
   7 S :   -0.008291
   8 N :   -0.241502
   9 H :    0.129850
  10 C :    0.123906
  11 H :    0.096697
  12 O :   -0.235394
  13 H :    0.184908

-------------------------------
LOEWDIN REDUCED ORBITAL CHARGES
-------------------------------
  0 H s       :     0.870762  s :     0.870762
      pz      :     0.021517  p :     0.039511
      px      :     0.006786
      py      :     0.011207

  1 C s       :     2.960222  s :     2.960222
      pz      :     1.051969  p :     3.171073
      px      :     1.032742
      py      :     1.086363
      dz2     :     0.019491  d :     0.076701
      dxz     :     0.010906
      dyz     :     0.013691
      dx2y2   :     0.016456
      dxy     :     0.016158

  2 H s       :     0.873584  s :     0.873584
      pz      :     0.022332  p :     0.041212
      px      :     0.007112
      py      :     0.011769

  3 H s       :     0.896559  s :     0.896559
      pz      :     0.009003  p :     0.047172
      px      :     0.014502
      py      :     0.023667

  4 O s       :     3.496747  s :     3.496747
      pz      :     1.692173  p :     4.611762
      px      :     1.383132
      py      :     1.536457
      dz2     :     0.007557  d :     0.048607
      dxz     :     0.011315
      dyz     :     0.002990
      dx2y2   :     0.012756
      dxy     :     0.013990

  5 C s       :     2.899060  s :     2.899060
      pz      :     1.013082  p :     3.026070
      px      :     1.018078
      py      :     0.994911
      dz2     :     0.025095  d :     0.124635
      dxz     :     0.015975
      dyz     :     0.028578
      dx2y2   :     0.027847
      dxy     :     0.027140

  6 H s       :     0.788706  s :     0.788706
      pz      :     0.011768  p :     0.077790
      px      :     0.044190
      py      :     0.021831

  7 S s       :     5.661305  s :     5.661305
      pz      :     3.496399  p :    10.286607
      px      :     3.691636
      py      :     3.098572
      dz2     :     0.012079  d :     0.060379
      dxz     :     0.010153
      dyz     :     0.013786
      dx2y2   :     0.008221
      dxy     :     0.016140

  8 N s       :     3.226020  s :     3.226020
      pz      :     1.143600  p :     3.959296
      px      :     1.320958
      py      :     1.494739
      dz2     :     0.013960  d :     0.056186
      dxz     :     0.004606
      dyz     :     0.020129
      dx2y2   :     0.013577
      dxy     :     0.003912

  9 H s       :     0.792744  s :     0.792744
      pz      :     0.036063  p :     0.077406
      px      :     0.015100
      py      :     0.026243

 10 C s       :     2.872897  s :     2.872897
      pz      :     0.827628  p :     2.726589
      px      :     0.886841
      py      :     1.012120
      dz2     :     0.034397  d :     0.276608
      dxz     :     0.048807
      dyz     :     0.039594
      dx2y2   :     0.080853
      dxy     :     0.072957

 11 H s       :     0.862679  s :     0.862679
      pz      :     0.006754  p :     0.040623
      px      :     0.011014
      py      :     0.022855

 12 O s       :     3.570272  s :     3.570272
      pz      :     1.438741  p :     4.609435
      px      :     1.675004
      py      :     1.495690
      dz2     :     0.007784  d :     0.055687
      dxz     :     0.004205
      dyz     :     0.016907
      dx2y2   :     0.014396
      dxy     :     0.012395

 13 H s       :     0.701245  s :     0.701245
      pz      :     0.024869  p :     0.113847
      px      :     0.030764
      py      :     0.058214



                      *****************************
                      * MAYER POPULATION ANALYSIS *
                      *****************************

  NA   - Mulliken gross atomic population
  ZA   - Total nuclear charge
  QA   - Mulliken gross atomic charge
  VA   - Mayer's total valence
  BVA  - Mayer's bonded valence
  FA   - Mayer's free valence

  ATOM       NA         ZA         QA         VA         BVA        FA
  0 H      0.8552     1.0000     0.1448     0.9469     0.9469     0.0000
  1 C      6.3353     6.0000    -0.3353     3.8478     3.8478     0.0000
  2 H      0.8475     1.0000     0.1525     0.9472     0.9472    -0.0000
  3 H      0.9096     1.0000     0.0904     0.9790     0.9790     0.0000
  4 O      8.4656     8.0000    -0.4656     2.0428     2.0428    -0.0000
  5 C      6.0169     6.0000    -0.0169     3.8184     3.8184     0.0000
  6 H      0.7451     1.0000     0.2549     0.9166     0.9166    -0.0000
  7 S     16.0672    16.0000    -0.0672     1.9860     1.9860     0.0000
  8 N      7.5610     7.0000    -0.5610     2.8918     2.8918    -0.0000
  9 H      0.7534     1.0000     0.2466     0.9199     0.9199     0.0000
 10 C      5.4947     6.0000     0.5053     3.9107     3.9107    -0.0000
 11 H      0.8389     1.0000     0.1611     0.9458     0.9458     0.0000
 12 O      8.4304     8.0000    -0.4304     2.0841     2.0841     0.0000
 13 H      0.6791     1.0000     0.3209     0.9158     0.9158     0.0000

  Mayer bond orders larger than 0.100000
B(  0-H ,  5-C ) :   0.9240 B(  1-C ,  2-H ) :   0.9317 B(  1-C ,  5-C ) :   0.9646 
B(  1-C ,  7-S ) :   1.0021 B(  1-C , 11-H ) :   0.9377 B(  3-H ,  7-S ) :   0.9426 
B(  4-O , 10-C ) :   1.0788 B(  4-O , 13-H ) :   0.8519 B(  5-C ,  8-N ) :   0.9981 
B(  5-C , 10-C ) :   0.9039 B(  6-H ,  8-N ) :   0.8988 B(  8-N ,  9-H ) :   0.9006 
B( 10-C , 12-O ) :   1.8614 

-------
TIMINGS
-------

Total SCF time: 0 days 0 hours 0 min 1 sec 

Total time                  ....       1.404 sec
Sum of individual times     ....       1.130 sec  ( 80.5%)

SCF preparation             ....       0.027 sec  (  1.9%)
Fock matrix formation       ....       1.086 sec  ( 77.3%)
  Startup                   ....       0.000 sec  (  0.0% of F)
  Split-RI-J                ....       0.374 sec  ( 34.4% of F)
  XC integration            ....       0.944 sec  ( 86.9% of F)
    Basis function eval.    ....       0.334 sec  ( 35.4% of XC)
    Density eval.           ....       0.193 sec  ( 20.5% of XC)
    XC-Functional eval.     ....       0.202 sec  ( 21.4% of XC)
    XC-Potential eval.      ....       0.191 sec  ( 20.2% of XC)
Diagonalization             ....       0.000 sec  (  0.0%)
Density matrix formation    ....       0.001 sec  (  0.1%)
Total Energy calculation    ....       0.000 sec  (  0.0%)
Population analysis         ....       0.009 sec  (  0.7%)
Orbital Transformation      ....       0.001 sec  (  0.1%)
Orbital Orthonormalization  ....       0.000 sec  (  0.0%)
DIIS solution               ....       0.002 sec  (  0.1%)
SOSCF solution              ....       0.004 sec  (  0.3%)
Finished LeanSCF after   1.4 sec

Maximum memory used throughout the entire LEANSCF-calculation: 15.4 MB



-------------------------------------------------------------------------------
                          DFT DISPERSION CORRECTION                            
-------------------------------------------------------------------------------
Active option DFTDOPT                   ...         2   
Final C6-coefficient scaling factor     ...     1.250
Final VDW-radii scaling factor          ...     1.100
Damping factor alpha                    ...    20.000
-------------------------   ----------------
Dispersion correction           -0.016847722
-------------------------   ----------------


-------------------------   --------------------
FINAL SINGLE POINT ENERGY      -721.724201718074
-------------------------   --------------------

                                *** OPTIMIZATION RUN DONE ***


------------------------------------------------------------------------------
                              ORCA PROPERTY CALCULATIONS
------------------------------------------------------------------------------

GBWName                                 ... 5.gbw
Number of atoms                         ...     14
Number of basis functions               ...    137
Max core memory                         ...   4096 MB

Electric properties:
Dipole moment                           ... YES
Quadrupole moment                       ...  NO
Static polarizability (Dipole/Dipole)   ...  NO
Static polarizability (Dipole/Quad.)    ...  NO
Static polarizability (Quad./Quad.)     ...  NO
Static polarizability (Velocity)        ...  NO
Static hyperpolarizability              ...  NO

Atomic electric properties:
Dipole moment                           ...  NO
Quadrupole moment                       ...  NO
Static polarizability                   ...  NO

Choice of electric origin               ... Center of mass
Position of electric origin             ...    -3.785954     2.378240     1.182406

General magnetic properties:
Magnetizability                         ...  NO

EPR properties:
g-Tensor (aka g-matrix)                 ...  NO
Zero-Field splitting spin-orbit         ...  NO
Zero-field splitting spin-spin          ...  NO
Hyperfine couplings                     ...  NO (   0 nuclei)
Quadrupole couplings                    ...  NO (   0 nuclei)
Contact density                         ...  NO (   0 nuclei)

NMR properties:
Chemical shifts                         ...  NO (   0 nuclei)
Spin-rotation constants                 ...  NO (   0 nuclei)
Spin-spin couplings                     ...  NO (   0 nuclei,    0 pairs)

Choice of magnetic origin               ... GIAO
Position of magnetic origin             ...     0.000000     0.000000     0.000000

Properties with geometric perturbations:
SCF Hessian                             ...  NO
IR spectrum                             ...  NO
VCD spectrum                            ...  NO
X-ray spectroscopy properties:
SCF XES/XAS/RIXS spectra                ...  NO

SCF SOC stabilization energy            ...  NO
Diagonal Born-Oppenheimer correction    ...  NO

-------------
DIPOLE MOMENT
-------------

Method             : SCF
Type of density    : Electron Density
Multiplicity       :   1
Irrep              :   0
Energy             :  -721.7073539961154438 Eh
Basis              : AO
                                X                 Y                 Z
Electronic contribution:     -0.196762799      -3.195584033       2.581228665
Nuclear contribution   :      1.261225010       3.296557211      -2.955582303
                        -----------------------------------------
Total Dipole Moment    :      1.064462210       0.100973178      -0.374353639
                        -----------------------------------------
Magnitude (a.u.)       :      1.132879529
Magnitude (Debye)      :      2.879550920



--------------------
Rotational spectrum 
--------------------
 
Rotational constants in cm-1:             0.100209             0.049233             0.039203 
Rotational constants in MHz :          3004.191168          1475.965288          1175.273975 

Dipole components along the rotational axes: 
x,y,z [a.u.] :    -1.132206    -0.032084     0.022297 
x,y,z [Debye]:    -2.877838    -0.081551     0.056674 

 

Dipole moment calculation done in   0.0 sec 

Maximum memory used throughout the entire PROP-calculation: 8.9 MB

--------------------------------
SUGGESTED CITATIONS FOR THIS RUN
--------------------------------

Below you find a list of papers that are relevant to this ORCA run
We neither can nor want to force you to cite these papers, but we appreciate if you do
You receive ORCA, which is the product of decades of hard work by many enthusiastic individuals, for free
The only thing we kindly ask in return is that you cite our papers,
We deeply appreciate it, if you show your appreciation for ORCA by not just citing the generic ORCA reference.

Please note that relegating all ORCA citations to the supporting information does *not* help us.
SI sections are not indexed - citations you put there will not count into any citation statistics
But we need these citations in order to attract the funding resources that allow us to do what we are doing

Therefore, if you are a happy ORCA user, please consider citing a few of the papers listed below in the main body of your paper

In addition to the list printed below, the program has created the file 5.bibtex that contains the list in bibtex format
You can import this file easily into all common literature databanks and citation aid programs


List of essential papers. We consider these as the minimum necessary citations

  1. Neese, F.
     Software update: the ORCA program system, version 6.0
     WIRES Comput. Molec. Sci. 2025 15(1), e70019
     doi.org/10.1002/wcms.7019

List of papers to cite with high priority. The work reported in these papers was absolutely
necessary for this run to complete.
Our perspective: the developers of density functionals and basis sets usually get cited in chemistry papers
Good! But without the algorithms to do something with them, the functionals or basis sets would not do anything.
Hence, in our opinion, the algorithm design and method developments papers are equally worthy of getting cited

  1. Neese, F.
     An improvement of the resolution of the identity approximation for the formation of the Coulomb matrix
     J. Comp. Chem. 2003 24(14), 1740-1747
     doi.org/10.1002/jcc.10318
  2. Grimme, S.
     Semiempirical GGA-type density functional constructed with a long-range dispersion correction
     J.Comput.Chem. 2006 27(15), 1787-1799
     doi.org/10.1002/jcc.20495
  3. Neese, F.
     The SHARK Integral Generation and Digestion System
     J. Comp. Chem. 2022 44(3), 381
     doi.org/10.1002/jcc.26942

List of suggested additional citations. These are papers that are important in the 'surrounding' of 
of this run, or papers that preceded the highly important papers. If you like your results we are grateful for a citation.

  1. Neese, F.
     The ORCA program system
     WIRES Comput. Molec. Sci. 2012 2(1), 73-78
     doi.org/10.1002/wcms.81
  2. Neese, F.
     Software update: the ORCA program system, version 4.0
     WIRES Comput. Molec. Sci. 2018 8(1), 1-6
     doi.org/10.1002/wcms.1327
  3. Neese, F.; Wennmohs, F.; Becker, U.; Riplinger, C.
     The ORCA quantum chemistry program package
     J. Chem. Phys. 2020 152(22), 224108
     doi.org/10.1063/5.0004608
  4. Neese, F.
     Software update: The ORCA program system—Version 5.0
     WIRES Comput. Molec. Sci. 2022 12(1), e1606
     doi.org/10.1002/wcms.1606

List of optional additional citations

  1. Neese, F.
     Approximate second-order SCF convergence for spin unrestricted wavefunctions
     Chem. Phys. Lett. 2000 325(1-3), 93-98
     doi.org/10.1016/s0009-2614(00)00662-x

Timings for individual modules:

Sum of individual times          ...       63.287 sec (=   1.055 min)
Startup calculation              ...        3.980 sec (=   0.066 min)   6.3 %
SCF iterations                   ...       37.115 sec (=   0.619 min)  58.6 %
Property calculations            ...        0.034 sec (=   0.001 min)   0.1 %
SCF Gradient evaluation          ...       22.145 sec (=   0.369 min)  35.0 %
Geometry relaxation              ...        0.013 sec (=   0.000 min)   0.0 %
                             ****ORCA TERMINATED NORMALLY****
TOTAL RUN TIME: 0 days 0 hours 1 minutes 3 seconds 563 msec
