
                                 *****************
                                 * O   R   C   A *
                                 *****************

                                            #,                                       
                                            ###                                      
                                            ####                                     
                                            #####                                    
                                            ######                                   
                                           ########,                                 
                                     ,,################,,,,,                         
                               ,,#################################,,                 
                          ,,##########################################,,             
                       ,#########################################, ''#####,          
                    ,#############################################,,   '####,        
                  ,##################################################,,,,####,       
                ,###########''''           ''''###############################       
              ,#####''   ,,,,##########,,,,          '''####'''          '####       
            ,##' ,,,,###########################,,,                        '##       
           ' ,,###''''                  '''############,,,                           
         ,,##''                                '''############,,,,        ,,,,,,###''
      ,#''                                            '''#######################'''  
     '                                                          ''''####''''         
             ,#######,   #######,   ,#######,      ##                                
            ,#'     '#,  ##    ##  ,#'     '#,    #''#        ,####,    ,#,          
            ##       ##  ##   ,#'  ##            #'  '#       #'       ,# #          
            ##       ##  #######   ##           ,######,      #####,      #          
            '#,     ,#'  ##    ##  '#,     ,#' ,#      #,     #,   #      #          
             '#######'   ##     ##  '#######'  #'      '#     '####' #    #          



                #########################################################
                #                        -***-                          #
                #          Department of theory and spectroscopy        #
                #                                                       #
                #                      Frank Neese                      #
                #                                                       #
                #     Directorship, Architecture, Infrastructure        #
                #                    SHARK, DRIVERS                     #
                #        Core code/Algorithms in most modules           #
                #                                                       #
                #        Max Planck Institute fuer Kohlenforschung      #
                #                Kaiser Wilhelm Platz 1                 #
                #                 D-45470 Muelheim/Ruhr                 #
                #                      Germany                          #
                #                                                       #
                #                  All rights reserved                  #
                #                        -***-                          #
                #########################################################


                         Program Version 6.1.0  -  RELEASE   -
                                (GIT: $679e74b$)
                          ($2025-06-10 18:02:51 +0200$)


 With contributions from (in alphabetic order):
[Max-Planck-Institut fuer Kohlenforschung]                               
  Daniel Aravena         : Magnetic Suceptibility                        
  Michael Atanasov       : Ab Initio Ligand Field Theory (pilot matlab implementation)
  Alexander A. Auer      : GIAO ZORA, VPT2 properties, NMR spectrum      
  Ute Becker             : All parallelization in ORCA, NUMFREQ, NUMCALC 
  Giovanni Bistoni       : ED, misc. LED, open-shell LED, HFLD           
  Dmytro Bykov           : pre 5.0 version of the SCF Hessian            
  Marcos Casanova-Páez   : Triplet and SCS-CIS(D). UHF-(DLPNO)-IP/EA/STEOM-CCSD. UHF-CVS-IP/STEOM-CCSD   
  Vijay G. Chilkuri      : MRCI spin determinant printing, contributions to CSF-ICE 
  Pauline Colinet        : FMM embedding                                 
  Dipayan Datta          : RHF DLPNO-CCSD density                        
  Achintya Kumar Dutta   : EOM-CC, STEOM-CC                              
  Nicolas Foglia         : Exact transition moments, OPA infrastructure, MCD improvements    
  Dmitry Ganyushin       : Spin-Orbit,Spin-Spin,Magnetic field MRCI      
  Miquel Garcia-Rates    : C-PCM and meta-GGA Hessian, CCSD/C-PCM, Gaussian charge scheme 
  Tiago L. C. Gouveia    : GS-ROHF, GS-ROCIS                             
  Yang Guo               : DLPNO-NEVPT2, F12-NEVPT2, CIM, IAO-localization        
  Andreas Hansen         : Spin unrestricted coupled pair/coupled cluster methods 
  Ingolf Harden          : AUTO-CI MPn and infrastructure                
  Benjamin Helmich-Paris : MC-RPA, TRAH-(SCF,CASSCF), AVAS, COSX integrals, SCF dyn. polar., MC-PDFT, srDFT 
  Lee Huntington         : MR-EOM, pCC                                   
  Robert Izsak           : Overlap fitted RIJCOSX, COSX-SCS-MP3, EOM     
  Riya Kayal             : Wick's Theorem for AUTO-CI, AUTO-CI UHF-CCSDT 
  Emily Kempfer          : AUTO-CI RHF CISDT and CCSDT, approximate NEVPT4
  Christian Kollmar      : KDIIS, OOCD, Brueckner-CCSD(T), CCSD density, CASPT2, CASPT2-K, improved NEVPT2 
  Axel Koslowski         : Symmetry handling                             
  Simone Kossmann        : meta-GGA functionals, TD-DFT gradient, OOMP2, (MP2 Hessian; deprecated post 5.0) 
  Lucas Lang             : DCDCAS, Hyperfine gauge corrections, ICE-SOC+SSC
  Marvin Lechner         : AUTO-CI (C++ implementation), FIC-MRCC        
  Spencer Leger          : CASSCF response                               
  Dagmar Lenk            : GEPOL surface, SMD, ORCA-2-JSON               
  Dimitrios Liakos       : Extrapolation schemes; Compound Job, Property file
  Dimitrios Manganas     : Further ROCIS development; embedding schemes. LFT, Crystal Embedding 
  Dimitrios Pantazis     : SARC Basis sets                               
  Anastasios Papadopoulos: AUTO-CI, single reference methods and gradients 
  Taras Petrenko         : pre 6.0 DFT Hessian and TD-DFT gradient,  ECA, NRVS 
  Petra Pikulova         : Analytic Raman intensities                    
  Peter Pinski           : DLPNO-MP2, DLPNO-MP2 Gradient                 
  Shashank Vittal Rao    : ES-AILFT, MagRelax                            
  Christoph Reimann      : Effective Core Potentials                     
  Marius Retegan         : Local ZFS, SOC                                
  Christoph Riplinger    : Optimizer, TS searches, QM/MM, DLPNO-CCSD(T), (RO)-DLPNO pert. Triples 
  Michael Roemelt        : Original ROCIS implementation, recursive CI coupling coefficients
  Masaaki Saitow         : Open-shell DLPNO-CCSD energy and density      
  Barbara Sandhoefer     : DKH picture change effects                    
  Yorick L. A. Schmerwitz: GMF and freeze-and-release deltaSCF, NEB S-IDPP initial path                    
  Kantharuban Sivalingam : CASSCF convergence/infrastructure, NEVPT2, NEVPT3, NEVPT4(SD), FIC-MRCI and CEPA variants
  Bernardo de Souza      : ESD, SOC TD-DFT                               
  Georgi L. Stoychev     : AutoAux, RI-MP2 NMR, DLPNO-MP2 response, X2C  
  Van Anh Tran           : RI-MP2 g-tensors                              
  Willem Van den Heuvel  : Paramagnetic NMR                              
  Zikuan Wang            : NOTCH, Electric field optimization            
  Frank Wennmohs         : Technical directorship and infrastructure     
  Hang Xu                : AUTO-CI-Response properties                   
                                                                         
[FACCTs GmbH]                                                            
  Markus Bursch, Nicolas Foglia, Miquel Garcia-Rates, Ingolf Harden, Hagen Neugebauer, Anastasios Papadopoulos, 
  Christoph Riplinger, Bernardo de Souza, Georgi L. Stoychev                                                    
                                                                 
  APM, various basis sets, CI-OPT, improved COSX, DLPNO-Multilevel,           
  DOCKER, DRACO, updates on ESD, Fragmentator, GOAT, IRC, LR-CPCM, L-BFGS, MBIS, meta-GGA TD-DFT gradient, ML-optimized integration grids, 
  MM, NACMEs, nearIR, NEB, NEB-TS, NL-DFT gradient (VV10), 2- and 3-layer-ONIOM, interface openCOSMO-RS, QMMM,   
  Crystal-QMMM, RESP, rigid body optimization, SF, symmetry and pop. for TD-DFT, various functionals, SOLVATOR                                   
                                                                         
[Other institutions]                                                     
  V. Asgeirsson          : NEB                                           
  Christoph Bannwarth    : sTDA-DFT, sTD-DFT, PBEh-3c, B97-3c, D3        
  Giovanni Bistoni       : ETS/NOCV, ADLD/ADEX, COVALED                  
  Martin Brehm           : Molecular dynamics                            
  Ronald Cardenas        : ETS/NOCV                                      
  Martina Colucci        : COVALED                                       
  Sebastian Ehlert       : rSCAN, r2SCAN, r2SCAN-3c, D4, dhf basis sets  
  Marvin Friede          : D4 for Fr, Ra, Ac-Lr                          
  Lars Goerigk           : TD-DFT with DH, B97 family of functionals     
  Stefan Grimme          : VdW corrections, initial TS optimization, DFT functionals, gCP, sTDA/sTD-DF 
  Waldemar Hujo          : DFT-NL                                        
  H. Jonsson             : NEB                                           
  Holger Kruse           : gCP                                           
  Marcel Mueller         : wB97X-3c, vDZP basis set                      
  Hagen Neugebauer       : wr2SCAN, Native XTB                           
  Gianluca Regni         : ADLD/ADEX                                     
  Tobias Risthaus        : pre 6.0 range-separated hybrid DFT and stability analysis
  Lukas Wittmann         : regularized MP2, r2SCAN double-hybrids, wr2SCAN        
                                                                         
We gratefully acknowledge several colleagues who have allowed us to      
interface, adapt or use parts of their codes:                            
  Ed Valeev, F. Pavosevic, A. Kumar             : LibInt (2-el integral package), F12 methods 
  Garnet Chan, S. Sharma, J. Yang, R. Olivares  : DMRG                   
  Ulf Ekstrom                                   : XCFun DFT Library      
  Mihaly Kallay                                 : mrcc  (arbitrary order and MRCC methods)
  Frank Weinhold                                : gennbo (NPA and NBO analysis)           
  Simon Mueller                                 : openCOSMO-RS                            
  Christopher J. Cramer and Donald G. Truhlar   : smd solvation model                     
  S Lehtola, MJT Oliveira, MAL Marques          : LibXC Library                           
  Liviu Ungur et al                             : ANISO software                          


 Your calculation uses the libint2 library for the computation of 2-el integrals
 For citations please refer to: http://libint.valeyev.net

 Your ORCA version has been built with support for libXC version: 7.0.0
 For citations please refer to: https://libxc.gitlab.io

 This ORCA versions uses:
   CBLAS   interface :  Fast vector & matrix operations
   LAPACKE interface :  Fast linear algebra routines
   SCALAPACK package :  Parallel linear algebra routines
   Shared memory     :  Shared parallel matrices
   BLAS/LAPACK       :  OpenBLAS 0.3.29  USE64BITINT DYNAMIC_ARCH NO_AFFINITY Haswell SINGLE_THREADED
        Core in use  :  Haswell
   Copyright (c) 2011-2014, The OpenBLAS Project


  ***********************************
  * Starting time: Tue Sep  2 18:24:31 2025
  * Host name:     chemlab03
  * Process ID:    117791
  * Working dir.:  /home/vivek/mm-project/vivek/xtb-goat/MP2-opt/h/4
  ***********************************



***************************************
The coordinates will be read from file: /home/vivek/mm-project/vivek/xtb-goat/xtb-goat/h/H_CONF/4.xyz
***************************************


================================================================================

----- Orbital basis set information -----
Your calculation utilizes the basis: 6-31G**
   H-He, Li-Ne : W. J. Hehre, R. Ditchfield and J.A. Pople, J. Chem. Phys. 56, 2257 (1972).
                 Note: He and Ne are unpublished basis sets taken from the Gaussian program.
                 Note: Li and B from J. D. Dill and J. A. Pople, J. Chem. Phys. 62, 2921 (1975).
   Na - Ar     : M. M. Francl, W. J. Pietro, W. J. Hehre, J. S. Binkley, M. S. Gordon, 
                 D. J. DeFrees and J. A. Pople, J. Chem. Phys. 77, 3654 (1982).
   K - Zn      : V. A. Rassolov, J. A. Pople, M. A. Ratner, and T. L. Windus, J. Chem. Phys. 109, 1223 (1998).

================================================================================
                                        WARNINGS
                       Please study these warnings very carefully!
================================================================================


WARNING: The frozen-core approximation for MP2-gradient calculations is turned on by default.

WARNING: Geometry Optimization
  ===> : Switching off AutoStart
         For restart on a previous wavefunction, please use MOREAD

WARNING: Post HF methods need fully converged wavefunctions
  ===> : Setting SCFConvForced true
         You can overwrite this default with %scf ConvForced false 


================================================================================
                                       INPUT FILE
================================================================================
NAME = 4.inp
|  1> ! MP2 6-31G** opt
|  2> 
|  3> * xyzfile 0 1 /home/vivek/mm-project/vivek/xtb-goat/xtb-goat/h/H_CONF/4.xyz
|  4> 
|  5>                          ****END OF INPUT****
================================================================================

                       *****************************
                       * Geometry Optimization Run *
                       *****************************

Geometry optimization settings:
Update method            Update   .... BFGS
Choice of coordinates    CoordSys .... (2022) Redundant Internals
Initial Hessian          InHess   .... Almloef's Model
Max. no of cycles        MaxIter  .... 72

Convergence Tolerances:
Energy Change            TolE     ....  5.0000e-06 Eh
Max. Gradient            TolMAXG  ....  3.0000e-04 Eh/bohr
RMS Gradient             TolRMSG  ....  1.0000e-04 Eh/bohr
Max. Displacement        TolMAXD  ....  4.0000e-03 bohr
RMS Displacement         TolRMSD  ....  2.0000e-03 bohr
Strict Convergence                .... False

------------------------------------------------------------------------------
                        ORCA OPTIMIZATION COORDINATE SETUP
------------------------------------------------------------------------------

The optimization will be done in redundant internal coordinates (2022)
Making redundant internal coordinates   ...  (2022 redundants) done
Evaluating the initial hessian          ...  (Almloef) done
Evaluating the coordinates              ...  done
Calculating the B-matrix                .... done
Calculating the G-matrix                .... done
The number of degrees of freedom        ....  119

    -----------------------------------------------------------------
                    Redundant Internal Coordinates


    -----------------------------------------------------------------
         Definition                    Initial Value    Approx d2E/dq
    -----------------------------------------------------------------
      1. B(N   1,C   0)                  1.4566         0.438216   
      2. B(C   3,N   1)                  1.4610         0.431162   
      3. B(N   4,C   0)                  1.4575         0.436754   
      4. B(N   4,H   2)                  1.0174         0.421137   
      5. B(H   5,C   0)                  1.0888         0.361741   
      6. B(H   6,C   0)                  1.0974         0.350397   
      7. B(C   7,C   3)                  1.5660         0.327264   
      8. B(C   7,N   4)                  1.4543         0.441812   
      9. B(H   8,N   1)                  1.0186         0.419270   
     10. B(H   9,C   7)                  1.0888         0.361734   
     11. B(H  10,C   7)                  1.0932         0.355865   
     12. B(C  11,C   3)                  1.5314         0.371718   
     13. B(H  12,C   3)                  1.0981         0.349485   
     14. B(C  13,C  11)                  1.5397         0.360524   
     15. B(H  14,C  11)                  1.0914         0.358281   
     16. B(H  15,C  11)                  1.0923         0.357034   
     17. B(C  16,C  13)                  1.5253         0.380066   
     18. B(N  18,H   8)                  2.0395         0.010000   
     19. B(N  18,H  17)                  1.0167         0.422198   
     20. B(N  18,C  13)                  1.4523         0.445076   
     21. B(H  19,N  18)                  1.0154         0.424221   
     22. B(O  20,C  16)                  1.3362         0.681894   
     23. B(H  21,C  13)                  1.0959         0.352423   
     24. B(H  22,O  20)                  0.9709         0.499549   
     25. B(O  23,C  16)                  1.2025         1.114467   
     26. A(N   4,C   0,H   6)          107.3504         0.329294   
     27. A(N   1,C   0,N   4)          107.7470         0.378853   
     28. A(N   1,C   0,H   5)          111.9316         0.331216   
     29. A(N   4,C   0,H   5)          112.0540         0.331033   
     30. A(H   5,C   0,H   6)          109.3299         0.289802   
     31. A(N   1,C   0,H   6)          108.2531         0.329476   
     32. A(C   3,N   1,H   8)          108.6403         0.335618   
     33. A(C   0,N   1,H   8)          109.6058         0.336525   
     34. A(C   0,N   1,C   3)          104.9015         0.378008   
     35. A(C  11,C   3,H  12)          107.2683         0.322467   
     36. A(N   1,C   3,H  12)          108.0716         0.328453   
     37. A(C   7,C   3,C  11)          114.0745         0.354955   
     38. A(N   1,C   3,C   7)          104.9690         0.361773   
     39. A(N   1,C   3,C  11)          113.2650         0.369751   
     40. A(C   7,C   3,H  12)          109.0158         0.315833   
     41. A(C   0,N   4,H   2)          108.8152         0.336587   
     42. A(H   2,N   4,C   7)          109.8406         0.337233   
     43. A(C   0,N   4,C   7)          102.3125         0.379389   
     44. A(C   3,C   7,H   9)          113.1123         0.317608   
     45. A(C   3,C   7,N   4)          105.8646         0.363284   
     46. A(N   4,C   7,H  10)          107.7141         0.330767   
     47. A(C   3,C   7,H  10)          109.6274         0.316763   
     48. A(N   4,C   7,H   9)          111.8949         0.331663   
     49. A(H   9,C   7,H  10)          108.4781         0.290506   
     50. A(H  14,C  11,H  15)          108.5014         0.290218   
     51. A(C  13,C  11,H  15)          108.3925         0.321981   
     52. A(C   3,C  11,H  15)          108.4799         0.323599   
     53. A(C  13,C  11,H  14)          108.5986         0.322165   
     54. A(C   3,C  11,H  14)          108.2848         0.323784   
     55. A(C   3,C  11,C  13)          114.4452         0.360845   
     56. A(C  11,C  13,C  16)          108.3170         0.362215   
     57. A(N  18,C  13,H  21)          108.7698         0.330638   
     58. A(C  16,C  13,H  21)          107.3151         0.324089   
     59. A(C  11,C  13,H  21)          109.5583         0.321297   
     60. A(C  16,C  13,N  18)          111.7357         0.373202   
     61. A(C  11,C  13,N  18)          111.0589         0.369826   
     62. A(O  20,C  16,O  23)          123.1339         0.485024   
     63. A(C  13,C  16,O  23)          124.1121         0.438826   
     64. A(C  13,C  16,O  20)          112.7540         0.402014   
     65. A(H  17,N  18,H  19)          106.7720         0.301115   
     66. A(C  13,N  18,H  19)          110.3188         0.338058   
     67. A(C  13,N  18,H  17)          109.2038         0.337789   
     68. A(C  16,O  20,H  22)          110.6016         0.373645   
     69. D(C   3,N   1,C   0,N   4)     32.9271         0.016374   
     70. D(H   8,N   1,C   0,N   4)    -83.5533         0.016374   
     71. D(C   3,N   1,C   0,H   6)    -82.8747         0.016374   
     72. D(H   8,N   1,C   0,H   5)     40.0789         0.016374   
     73. D(C   3,N   1,C   0,H   5)    156.5593         0.016374   
     74. D(C  11,C   3,N   1,H   8)    -21.2385         0.015849   
     75. D(H  12,C   3,N   1,C   0)    102.9217         0.015849   
     76. D(C   7,C   3,N   1,C   0)    -13.3111         0.015849   
     77. D(C  11,C   3,N   1,C   0)   -138.3813         0.015849   
     78. D(C   7,C   3,N   1,H   8)    103.8318         0.015849   
     79. D(C   7,N   4,C   0,N   1)    -38.9560         0.016264   
     80. D(H   2,N   4,C   0,H   5)    -46.3222         0.016264   
     81. D(H   2,N   4,C   0,N   1)     77.2356         0.016264   
     82. D(C   7,N   4,C   0,H   5)   -162.5138         0.016264   
     83. D(H   2,N   4,C   0,H   6)   -166.3710         0.016264   
     84. D(H  10,C   7,N   4,C   0)    -88.3391         0.016646   
     85. D(H   9,C   7,N   4,H   2)     37.0722         0.016646   
     86. D(H   9,C   7,N   4,C   0)    152.5204         0.016646   
     87. D(C   3,C   7,N   4,C   0)     28.8776         0.016646   
     88. D(H   9,C   7,C   3,H  12)    111.5690         0.010000   
     89. D(H   9,C   7,C   3,C  11)     -8.2905         0.010000   
     90. D(C   3,C   7,N   4,H   2)    -86.5706         0.016646   
     91. D(N   4,C   7,C   3,H  12)   -125.5572         0.010000   
     92. D(N   4,C   7,C   3,C  11)    114.5833         0.010000   
     93. D(N   4,C   7,C   3,N   1)     -9.9766         0.010000   
     94. D(H   9,C   7,C   3,N   1)   -132.8504         0.010000   
     95. D(H  14,C  11,C   3,N   1)   -177.2053         0.011040   
     96. D(C  13,C  11,C   3,H  12)   -179.3220         0.011040   
     97. D(C  13,C  11,C   3,C   7)    -58.4845         0.011040   
     98. D(H  14,C  11,C   3,C   7)     62.7923         0.011040   
     99. D(C  13,C  11,C   3,N   1)     61.5179         0.011040   
    100. D(H  14,C  11,C   3,H  12)    -58.0452         0.011040   
    101. D(N  18,C  13,C  11,H  15)     50.9464         0.010426   
    102. D(N  18,C  13,C  11,H  14)    168.6392         0.010426   
    103. D(N  18,C  13,C  11,C   3)    -70.2569         0.010426   
    104. D(C  16,C  13,C  11,H  15)    -72.1108         0.010426   
    105. D(C  16,C  13,C  11,H  14)     45.5819         0.010426   
    106. D(C  16,C  13,C  11,C   3)    166.6859         0.010426   
    107. D(O  23,C  16,C  13,N  18)    -11.5969         0.010779   
    108. D(O  23,C  16,C  13,C  11)    111.0497         0.010779   
    109. D(O  20,C  16,C  13,H  21)     49.2535         0.010779   
    110. D(O  20,C  16,C  13,N  18)    168.4053         0.010779   
    111. D(O  20,C  16,C  13,C  11)    -68.9482         0.010779   
    112. D(H  19,N  18,C  13,H  21)     55.5974         0.018112   
    113. D(H  19,N  18,C  13,C  16)    -62.6895         0.018112   
    114. D(H  19,N  18,C  13,C  11)    176.2429         0.018112   
    115. D(H  17,N  18,C  13,H  21)    172.6505         0.018112   
    116. D(H  17,N  18,C  13,C  16)     54.3636         0.018112   
    117. D(H  17,N  18,C  13,C  11)    -66.7039         0.018112   
    118. D(H  22,O  20,C  16,O  23)     -1.0337         0.034650   
    119. D(H  22,O  20,C  16,C  13)    178.9642         0.034650   
    -----------------------------------------------------------------

Number of atoms                         .... 24
Number of degrees of freedom            .... 119


         *************************************************************
         *                GEOMETRY OPTIMIZATION CYCLE   1            *
         *************************************************************
---------------------------------
CARTESIAN COORDINATES (ANGSTROEM)
---------------------------------
  C     -9.662206    2.975719    0.370528
  N     -8.444015    2.208000    0.590021
  H     -8.940610    4.416480   -0.862041
  C     -7.517423    3.145584    1.219950
  N     -9.275443    4.353979    0.096625
  H    -10.269534    2.554922   -0.429151
  H    -10.240310    2.977247    1.303351
  C     -8.169789    4.555115    1.019748
  H     -8.055812    1.919267   -0.306334
  H     -7.467612    5.303177    0.655377
  H     -8.587323    4.904506    1.967757
  C     -6.087839    3.036774    0.681893
  H     -7.479852    2.917931    2.293581
  C     -5.947506    3.342788   -0.820531
  H     -5.458349    3.732701    1.239149
  H     -5.726358    2.021876    0.862145
  C     -4.466228    3.522725   -1.136776
  H     -6.009238    1.436002   -1.509481
  N     -6.545479    2.291991   -1.625212
  H     -6.501784    2.534189   -2.610327
  O     -3.954061    4.633324   -0.598562
  H     -6.447509    4.290518   -1.050155
  H     -3.008376    4.708365   -0.805184
  O     -3.819631    2.754195   -1.797994

----------------------------
CARTESIAN COORDINATES (A.U.)
----------------------------
  NO LB      ZA    FRAG     MASS         X           Y           Z
   0 C     6.0000    0    12.011  -18.258923    5.623293    0.700197
   1 N     7.0000    0    14.007  -15.956877    4.172516    1.114978
   2 H     1.0000    0     1.008  -16.895305    8.345937   -1.629021
   3 C     6.0000    0    12.011  -14.205870    5.944292    2.305370
   4 N     7.0000    0    14.007  -17.528047    8.227827    0.182594
   5 H     1.0000    0     1.008  -19.406607    4.828103   -0.810978
   6 H     1.0000    0     1.008  -19.351382    5.626181    2.462976
   7 C     6.0000    0    12.011  -15.438664    8.607921    1.927044
   8 H     1.0000    0     1.008  -15.223279    3.626889   -0.578887
   9 H     1.0000    0     1.008  -14.111741   10.021551    1.238482
  10 H     1.0000    0     1.008  -16.227689    9.268174    3.718522
  11 C     6.0000    0    12.011  -11.504349    5.738672    1.288591
  12 H     1.0000    0     1.008  -14.134872    5.514090    4.334240
  13 C     6.0000    0    12.011  -11.239158    6.316953   -1.550578
  14 H     1.0000    0     1.008  -10.314784    7.053783    2.341651
  15 H     1.0000    0     1.008  -10.821248    3.820791    1.629219
  16 C     6.0000    0    12.011   -8.439949    6.656985   -2.148196
  17 H     1.0000    0     1.008  -11.355815    2.713650   -2.852506
  18 N     7.0000    0    14.007  -12.369163    4.331235   -3.071206
  19 H     1.0000    0     1.008  -12.286592    4.788924   -4.932804
  20 O     8.0000    0    15.999   -7.472093    8.755713   -1.131119
  21 H     1.0000    0     1.008  -12.184026    8.107903   -1.984504
  22 H     1.0000    0     1.008   -5.685006    8.897520   -1.521577
  23 O     8.0000    0    15.999   -7.218056    5.204675   -3.397715

--------------------------------
INTERNAL COORDINATES (ANGSTROEM)
--------------------------------
 C      0   0   0     0.000000000000     0.00000000     0.00000000
 N      1   0   0     1.456556631626     0.00000000     0.00000000
 H      1   2   0     2.028723464416    99.69448895     0.00000000
 C      2   1   3     1.460974551953   104.90152593    60.93966267
 N      3   1   2     1.017378279598    42.84570155   250.44686297
 H      1   2   3     1.088762692203   111.93159977    95.61962810
 H      1   2   3     1.097435565643   108.25306769   216.18567743
 C      5   3   1     1.454332108072   109.84064137   111.25002787
 H      2   1   3     1.018587678002   109.60579582   304.45923962
 H      8   5   3     1.088767584916   111.89488076    37.07221606
 H      8   5   3     1.093220302930   107.71412722   156.21263349
 C      4   2   1     1.531356517983   113.26496554   221.61871225
 H      4   2   1     1.098144936689   108.07155665   102.92166950
 C     12   4   2     1.539679905106   114.44516761    61.51793027
 H     12   4   2     1.091378416798   108.28479485   182.79472612
 H     12   4   2     1.092327366325   108.47990047   300.36274645
 C     14  12   4     1.525310692196   108.31702452   166.68585783
 H     14  12   4     2.028372948147    98.15356302   263.69063906
 N     18  14  12     1.016693264688    42.54462419   120.01632634
 H     19  18  14     1.015392058667   106.77198710   119.27599579
 O     17  14  12     1.336195790475   112.75399792   291.05181659
 H     14  12   4     1.095865945952   109.55825633    49.92181789
 H     21  17  14     0.970899120644   110.60162504   178.96420375
 O     17  14  12     1.202470226470   124.11207489   111.04970184

---------------------------
INTERNAL COORDINATES (A.U.)
---------------------------
 C      0   0   0     0.000000000000     0.00000000     0.00000000
 N      1   0   0     2.752493132320     0.00000000     0.00000000
 H      1   2   0     3.833731749207    99.69448895     0.00000000
 C      2   1   3     2.760841791819   104.90152593    60.93966267
 N      3   1   2     1.922566323041    42.84570155   250.44686297
 H      1   2   3     2.057463313095   111.93159977    95.61962810
 H      1   2   3     2.073852668690   108.25306769   216.18567743
 C      5   3   1     2.748289392024   109.84064137   111.25002787
 H      2   1   3     1.924851754810   109.60579582   304.45923962
 H      8   5   3     2.057472558982   111.89488076    37.07221606
 H      8   5   3     2.065886976581   107.71412722   156.21263349
 C      4   2   1     2.893844432383   113.26496554   221.61871225
 H      4   2   1     2.075193185695   108.07155665   102.92166950
 C     12   4   2     2.909573354552   114.44516761    61.51793027
 H     12   4   2     2.062406316221   108.28479485   182.79472612
 H     12   4   2     2.064199570943   108.47990047   300.36274645
 C     14  12   4     2.882419477392   108.31702452   166.68585783
 H     14  12   4     3.833069369453    98.15356302   263.69063906
 N     18  14  12     1.921271832463    42.54462419   120.01632634
 H     19  18  14     1.918812909438   106.77198710   119.27599579
 O     17  14  12     2.525044105296   112.75399792   291.05181659
 H     14  12   4     2.070886517339   109.55825633    49.92181789
 H     21  17  14     1.834733441682   110.60162504   178.96420375
 O     17  14  12     2.272339412223   124.11207489   111.04970184

---------------------
BASIS SET INFORMATION
---------------------
There are 4 groups of distinct atoms

 Group   1 Type C   : 10s4p1d contracted to 3s2p1d pattern {631/31/1}
 Group   2 Type N   : 10s4p1d contracted to 3s2p1d pattern {631/31/1}
 Group   3 Type H   : 4s1p contracted to 2s1p pattern {31/1}
 Group   4 Type O   : 10s4p1d contracted to 3s2p1d pattern {631/31/1}

Atom   0C    basis set group =>   1
Atom   1N    basis set group =>   2
Atom   2H    basis set group =>   3
Atom   3C    basis set group =>   1
Atom   4N    basis set group =>   2
Atom   5H    basis set group =>   3
Atom   6H    basis set group =>   3
Atom   7C    basis set group =>   1
Atom   8H    basis set group =>   3
Atom   9H    basis set group =>   3
Atom  10H    basis set group =>   3
Atom  11C    basis set group =>   1
Atom  12H    basis set group =>   3
Atom  13C    basis set group =>   1
Atom  14H    basis set group =>   3
Atom  15H    basis set group =>   3
Atom  16C    basis set group =>   1
Atom  17H    basis set group =>   3
Atom  18N    basis set group =>   2
Atom  19H    basis set group =>   3
Atom  20O    basis set group =>   4
Atom  21H    basis set group =>   3
Atom  22H    basis set group =>   3
Atom  23O    basis set group =>   4
------------------------------------------------------------------------------
                             ORCA STARTUP CALCULATIONS
------------------------------------------------------------------------------
------------------------------------------------------------------------------
                   ___                                                        
                  /   \      - P O W E R E D   B Y -                         
                 /     \                                                     
                 |  |  |   _    _      __       _____    __    __             
                 |  |  |  | |  | |    /  \     |  _  \  |  |  /  |          
                  \  \/   | |  | |   /    \    | | | |  |  | /  /          
                 / \  \   | |__| |  /  /\  \   | |_| |  |  |/  /          
                |  |  |   |  __  | /  /__\  \  |    /   |      \           
                |  |  |   | |  | | |   __   |  |    \   |  |\   \          
                \     /   | |  | | |  |  |  |  | |\  \  |  | \   \       
                 \___/    |_|  |_| |__|  |__|  |_| \__\ |__|  \__/        
                                                                              
                      - O R C A' S   B I G   F R I E N D -                    
                                      &                                       
                       - I N T E G R A L  F E E D E R -                       
                                                                              
 v1 FN, 2020, v2 2021, v3 2022-2024                                           
------------------------------------------------------------------------------


----------------------
SHARK INTEGRAL PACKAGE
----------------------

Number of atoms                             ...     24
Number of basis functions                   ...    219
Number of shells                            ...    105
Maximum angular momentum                    ...      2
Integral batch strategy                     ... SHARK/LIBINT Hybrid
RI-J (if used) integral strategy            ... SPLIT-RIJ (Revised 2003 algorithm where possible)
Printlevel                                  ...      1
Contraction scheme used                     ... SEGMENTED contraction
Prescreening option                         ... SCHWARTZ
   Thresh                                   ... 2.500e-11
   Tcut                                     ... 2.500e-12
   Tpresel                                  ... 2.500e-12 
Coulomb Range Separation                    ... NOT USED
Exchange Range Separation                   ... NOT USED
Multipole approximations                    ... NOT USED
Finite Nucleus Model                        ... NOT USED
CABS basis                                  ... NOT available
Auxiliary Coulomb fitting basis             ... NOT available
Auxiliary J/K fitting basis                 ... NOT available
Auxiliary Correlation fitting basis         ... NOT available
Auxiliary 'external' fitting basis          ... NOT available

Checking pre-screening integrals            ... done (  0.0 sec) Dimension = 105
   => SHARK Basis and OBASIS are compatible. Storing Pre-screening
Shell pair information
Shell pair cut-off parameter TPreSel        ...   2.5e-12
Total number of shell pairs                 ...      5565
Shell pairs after pre-screening             ...      4907
Total number of primitive shell pairs       ...     26835
Primitive shell pairs kept                  ...     15325
          la=0 lb=0:   1568 shell pairs
          la=1 lb=0:   1821 shell pairs
          la=1 lb=1:    559 shell pairs
          la=2 lb=0:    566 shell pairs
          la=2 lb=1:    336 shell pairs
          la=2 lb=2:     57 shell pairs

Checking whether 4 symmetric matrices of dimension 219 fit in memory
:Max Core in MB      =   4096.00
 MB in use           =      7.77
 MB left             =   4088.23
 MB needed           =      0.74
 Data fit in memory  = YES
Calculating Nuclear repulsion               ... done (  0.0 sec) ENN=    674.024210712399 Eh

Diagonalization of the overlap matrix:
Smallest eigenvalue                        ... 2.527e-03
Time for diagonalization                   ...    0.003 sec
Threshold for overlap eigenvalues          ... 1.000e-07
Number of eigenvalues below threshold      ... 0
Time for construction of square roots      ...    0.001 sec
Total time needed                          ...    0.004 sec

-------------------
DFT GRID GENERATION
-------------------

General Integration Accuracy     IntAcc      ... 4.388
Radial Grid Type                 RadialGrid  ... OptM3 with GC (2021)
Angular Grid (max. ang.)         AngularGrid ... 4 (Lebedev-302)
Angular grid pruning method      GridPruning ... 4 (adaptive)
Weight generation scheme         WeightScheme... mBecke (2022)
Basis function cutoff            BFCut       ... 1.0000e-11
Integration weight cutoff        WCut        ... 1.0000e-14
Partially contracted basis set               ... off
Rotationally invariant grid construction     ... off
Angular grids for H and He will be reduced by one unit

Total number of grid points                  ...   107281
Total number of batches                      ...     1689
Average number of points per batch           ...       63
Average number of grid points per atom       ...     4470
Grids setup in   0.5 sec
Initializing property integral containers    ... done (  0.0 sec)

SHARK setup successfully completed in   0.6 seconds

Maximum memory used throughout the entire STARTUP-calculation: 43.9 MB
-------------------------------------------------------------------------------
                                 ORCA GUESS
                   Start orbitals & Density for SCF / CASSCF
-------------------------------------------------------------------------------

------------
SCF SETTINGS
------------
Hamiltonian:
 Ab initio Hamiltonian  Method          .... Hartree-Fock(GTOs)


General Settings:
 Integral files         IntName         .... 4
 Hartree-Fock type      HFTyp           .... RHF
 Total Charge           Charge          ....    0
 Multiplicity           Mult            ....    1
 Number of Electrons    NEL             ....   86
 Basis Dimension        Dim             ....  219
 Nuclear Repulsion      ENuc            ....    674.0242107124 Eh

Convergence Acceleration:
 AO-DIIS                CNVDIIS         .... on
   Start iteration      DIISMaxIt       ....    12
   Startup error        DIISStart       ....  0.200000
   # of expansion vecs  DIISMaxEq       ....     5
   Bias factor          DIISBfac        ....   1.050
   Max. coefficient     DIISMaxC        ....  10.000
 MO-DIIS                CNVKDIIS        .... off
 Trust-Rad. Augm. Hess. CNVTRAH         .... auto
   Auto Start mean grad. ratio tolernc. ....  1.125000
   Auto Start start iteration           ....    50
   Auto Start num. interpolation iter.  ....    10
   Max. Number of Micro iterations      ....    24
   Max. Number of Macro iterations      .... Maxiter - #DIIS iter
   Number of Davidson start vectors     ....     2
   Converg. threshold    (grad. norm)   ....   1.000e-05
   Grad. Scal. Fac. for Micro threshold ....   0.100
   Minimum threshold for Micro iter.    ....   1.000e-02
   NR start threshold (gradient norm)   ....   1.000e-04
   Initial trust radius                 ....   0.400
   Minimum AH scaling param. (alpha)    ....   1.000
   Maximum AH scaling param. (alpha)    .... 1000.000
   Quad. conv. algorithm                .... NR
   White noise on init. David. guess    .... on
   Maximum white noise                  ....   0.010
   Pseudo random numbers                .... off
   Inactive MOs                         .... canonical
   Orbital update algorithm             .... Taylor
   Preconditioner                       .... Diag
   Full preconditioner red. dimension   ....   250
 SOSCF                 CNVSOSCF           .... on
   Start iteration     SOSCFMaxIt         ....   150
   Startup grad/error  SOSCFStart         ....  0.003300
   Hessian update      SOSCFHessUp        .... L-BFGS
   Autom. constraints  SOSCFAutoConstrain .... off
 Level Shifting         CNVShift        .... on
   Level shift para.    LevelShift      ....    0.2500
   Turn off err/grad.   ShiftErr        ....    0.0010
 Zerner damping         CNVZerner       .... off
 Static damping         CNVDamp         .... on
   Fraction old density DampFac         ....    0.7000
   Max. Damping (<1)    DampMax         ....    0.9800
   Min. Damping (>=0)   DampMin         ....    0.0000
   Turn off err/grad.   DampErr         ....    0.1000

SCF Procedure:
 Maximum # iterations   MaxIter         ....   125
 SCF integral mode      SCFMode         .... Direct
   Integral package                     .... SHARK and LIBINT hybrid scheme
 Reset frequency        DirectResetFreq ....    20
 Integral Threshold     Thresh          ....  2.500e-11 Eh
 Primitive CutOff       TCut            ....  2.500e-12 Eh

Convergence Tolerance:
 Convergence Check Mode ConvCheckMode   .... Total+1el-Energy
 Convergence forced     ConvForced      .... 1
 Energy Change          TolE            ....  1.000e-08 Eh
 1-El. energy change                    ....  1.000e-05 Eh
 Orbital Gradient       TolG            ....  1.000e-05
 Orbital Rotation angle TolX            ....  1.000e-05
 DIIS Error             TolErr          ....  5.000e-07

------------------------------
INITIAL GUESS: MODEL POTENTIAL
------------------------------
Loading Hartree-Fock densities                     ... done
Calculating cut-offs                               ... done
Initializing the effective Hamiltonian             ... done
Setting up the integral package (SHARK)            ... done
Starting the Coulomb interaction                   ... done (   0.1 sec)
Making the grid                                    ... done (   0.1 sec)
Mapping shells                                     ... done
Starting the XC term evaluation                    ... done (   0.1 sec)
Transforming the Hamiltonian                       ... done (   0.0 sec)
Diagonalizing the Hamiltonian                      ... done (   0.0 sec)
Back transforming the eigenvectors                 ... done (   0.0 sec)
Now organizing SCF variables                       ... done
                      ------------------
                      INITIAL GUESS DONE (   0.3 sec)
                      ------------------
             **** ENERGY FILE WAS UPDATED (4.en.tmp) ****
Finished Guess after   0.3 sec
Maximum memory used throughout the entire GUESS-calculation: 14.0 MB

-------------------------------------------------------------------------------------------
                                      ORCA LEAN-SCF
                              memory conserving SCF solver
-------------------------------------------------------------------------------------------

----------------------------------------D-I-I-S--------------------------------------------
Iteration    Energy (Eh)           Delta-E    RMSDP     MaxDP     DIISErr   Damp  Time(sec)
-------------------------------------------------------------------------------------------
               ***  Starting incremental Fock matrix formation  ***
    1    -547.3944637840940004     0.00e+00  2.33e-03  6.06e-02  2.43e-01  0.700   3.2
    2    -547.5632711864549265    -1.69e-01  1.75e-03  4.29e-02  1.47e-01  0.700   3.0
                               ***Turning on AO-DIIS***
    3    -547.6620501272985848    -9.88e-02  9.49e-04  2.00e-02  8.46e-02  0.700   2.9
    4    -547.7244852768625378    -6.24e-02  2.19e-03  4.30e-02  5.86e-02  0.000   3.0
    5    -547.8640039945900071    -1.40e-01  2.51e-04  5.91e-03  5.99e-03  0.000   3.0
                              *** Initializing SOSCF ***
---------------------------------------S-O-S-C-F--------------------------------------
Iteration    Energy (Eh)           Delta-E    RMSDP     MaxDP     MaxGrad    Time(sec)
--------------------------------------------------------------------------------------
    6    -547.8645617978489781    -5.58e-04  1.27e-04  2.79e-03  2.77e-03     2.8
               *** Restarting incremental Fock matrix formation ***
    7    -547.8646788428194441    -1.17e-04  7.08e-05  2.39e-03  1.37e-03     3.2
    8    -547.8647100141691908    -3.12e-05  7.05e-05  1.99e-03  4.35e-04     2.6
    9    -547.8647205700218592    -1.06e-05  1.30e-05  2.53e-04  1.57e-04     2.5
   10    -547.8647213816649355    -8.12e-07  6.31e-06  1.35e-04  4.57e-05     2.3
   11    -547.8647215080958404    -1.26e-07  1.71e-06  5.93e-05  1.40e-05     2.2
   12    -547.8647215216593622    -1.36e-08  4.79e-07  1.59e-05  5.56e-06     1.9
   13    -547.8647215255849687    -3.93e-09  1.49e-07  3.24e-06  7.44e-07     1.8
                 **** Energy Check signals convergence ****

               *****************************************************
               *                     SUCCESS                       *
               *           SCF CONVERGED AFTER  13 CYCLES          *
               *****************************************************

             **** ENERGY FILE WAS UPDATED (4.en.tmp) ****

----------------
TOTAL SCF ENERGY
----------------

Total Energy       :       -547.86472152850308 Eh          -14908.15699 eV

Components:
Nuclear Repulsion  :        674.02421071239871 Eh           18341.13122 eV
Electronic Energy  :      -1221.88893224090180 Eh          -33249.28821 eV
One Electron Energy:      -2085.84988976801378 Eh          -56758.86107 eV
Two Electron Energy:        863.96095752711199 Eh           23509.57286 eV

Virial components:
Potential Energy   :      -1095.20599155997343 Eh          -29802.07014 eV
Kinetic Energy     :        547.34127003147023 Eh           14893.91315 eV
Virial Ratio       :          2.00095635305739

---------------
SCF CONVERGENCE
---------------

  Last Energy change         ...    3.9256e-09  Tolerance :   1.0000e-08
  Last MAX-Density change    ...    3.2420e-06  Tolerance :   1.0000e-07
  Last RMS-Density change    ...    1.4885e-07  Tolerance :   5.0000e-09
  Last DIIS Error            ...    2.7683e-03  Tolerance :   5.0000e-07
  Last Orbital Gradient      ...    7.4437e-07  Tolerance :   1.0000e-05
  Last Orbital Rotation      ...    1.2407e-06  Tolerance :   1.0000e-05


----------------
ORBITAL ENERGIES
----------------

  NO   OCC          E(Eh)            E(eV) 
   0   2.0000     -20.628848      -561.3395 
   1   2.0000     -20.565135      -559.6058 
   2   2.0000     -15.567408      -423.6107 
   3   2.0000     -15.536462      -422.7686 
   4   2.0000     -15.518169      -422.2708 
   5   2.0000     -11.393611      -310.0359 
   6   2.0000     -11.289186      -307.1944 
   7   2.0000     -11.259993      -306.4000 
   8   2.0000     -11.247435      -306.0583 
   9   2.0000     -11.241547      -305.8981 
  10   2.0000     -11.239429      -305.8404 
  11   2.0000      -1.479896       -40.2700 
  12   2.0000      -1.374117       -37.3916 
  13   2.0000      -1.262636       -34.3581 
  14   2.0000      -1.214383       -33.0450 
  15   2.0000      -1.129273       -30.7291 
  16   2.0000      -1.052551       -28.6414 
  17   2.0000      -0.979060       -26.6416 
  18   2.0000      -0.905403       -24.6373 
  19   2.0000      -0.837025       -22.7766 
  20   2.0000      -0.822069       -22.3696 
  21   2.0000      -0.776992       -21.1430 
  22   2.0000      -0.727398       -19.7935 
  23   2.0000      -0.711818       -19.3695 
  24   2.0000      -0.692395       -18.8410 
  25   2.0000      -0.672638       -18.3034 
  26   2.0000      -0.649583       -17.6760 
  27   2.0000      -0.635318       -17.2879 
  28   2.0000      -0.620692       -16.8899 
  29   2.0000      -0.603238       -16.4149 
  30   2.0000      -0.593980       -16.1630 
  31   2.0000      -0.581395       -15.8206 
  32   2.0000      -0.550149       -14.9703 
  33   2.0000      -0.528832       -14.3903 
  34   2.0000      -0.518919       -14.1205 
  35   2.0000      -0.495579       -13.4854 
  36   2.0000      -0.492001       -13.3880 
  37   2.0000      -0.482708       -13.1351 
  38   2.0000      -0.473816       -12.8932 
  39   2.0000      -0.461584       -12.5603 
  40   2.0000      -0.419804       -11.4234 
  41   2.0000      -0.376227       -10.2377 
  42   2.0000      -0.355285        -9.6678 
  43   0.0000       0.173361         4.7174 
  44   0.0000       0.202876         5.5205 
  45   0.0000       0.214312         5.8317 
  46   0.0000       0.236282         6.4296 
  47   0.0000       0.250052         6.8043 
  48   0.0000       0.269777         7.3410 
  49   0.0000       0.278168         7.5693 
  50   0.0000       0.295941         8.0530 
  51   0.0000       0.310255         8.4425 
  52   0.0000       0.324075         8.8185 
  53   0.0000       0.338355         9.2071 
*Only the first 10 virtual orbitals were printed.

                    ********************************
                    * MULLIKEN POPULATION ANALYSIS *
                    ********************************

-----------------------
MULLIKEN ATOMIC CHARGES
-----------------------
   0 C :    0.122299
   1 N :   -0.661539
   2 H :    0.255228
   3 C :    0.067366
   4 N :   -0.614639
   5 H :    0.119976
   6 H :    0.123872
   7 C :   -0.075182
   8 H :    0.317555
   9 H :    0.114386
  10 H :    0.131450
  11 C :   -0.251207
  12 H :    0.124007
  13 C :   -0.033114
  14 H :    0.149833
  15 H :    0.136983
  16 C :    0.786185
  17 H :    0.294664
  18 N :   -0.708512
  19 H :    0.286507
  20 O :   -0.635494
  21 H :    0.154707
  22 H :    0.375946
  23 O :   -0.581275
Sum of atomic charges:   -0.0000000

--------------------------------
MULLIKEN REDUCED ORBITAL CHARGES
--------------------------------
  0 C s       :     3.143941  s :     3.143941
      pz      :     1.074222  p :     2.652566
      px      :     0.840253
      py      :     0.738091
      dz2     :     0.012490  d :     0.081194
      dxz     :     0.017946
      dyz     :     0.009690
      dx2y2   :     0.019775
      dxy     :     0.021294

  1 N s       :     3.626638  s :     3.626638
      pz      :     1.389226  p :     3.995370
      px      :     1.102196
      py      :     1.503947
      dz2     :     0.009854  d :     0.039532
      dxz     :     0.008241
      dyz     :     0.003746
      dx2y2   :     0.003812
      dxy     :     0.013879

  2 H s       :     0.718985  s :     0.718985
      pz      :     0.014312  p :     0.025787
      px      :     0.006180
      py      :     0.005296

  3 C s       :     3.169486  s :     3.169486
      pz      :     1.011931  p :     2.694382
      px      :     0.836262
      py      :     0.846188
      dz2     :     0.019543  d :     0.068767
      dxz     :     0.010747
      dyz     :     0.008133
      dx2y2   :     0.014577
      dxy     :     0.015766

  4 N s       :     3.625817  s :     3.625817
      pz      :     1.133960  p :     3.947019
      px      :     1.442583
      py      :     1.370476
      dz2     :     0.009567  d :     0.041804
      dxz     :     0.012731
      dyz     :     0.003370
      dx2y2   :     0.012494
      dxy     :     0.003641

  5 H s       :     0.867878  s :     0.867878
      pz      :     0.005707  p :     0.012147
      px      :     0.003997
      py      :     0.002443

  6 H s       :     0.864752  s :     0.864752
      pz      :     0.007109  p :     0.011376
      px      :     0.003277
      py      :     0.000991

  7 C s       :     3.199685  s :     3.199685
      pz      :     0.971663  p :     2.813148
      px      :     0.890719
      py      :     0.950766
      dz2     :     0.012690  d :     0.062349
      dxz     :     0.016462
      dyz     :     0.008738
      dx2y2   :     0.008651
      dxy     :     0.015809

  8 H s       :     0.654757  s :     0.654757
      pz      :     0.014932  p :     0.027688
      px      :     0.005586
      py      :     0.007171

  9 H s       :     0.873182  s :     0.873182
      pz      :     0.002274  p :     0.012432
      px      :     0.004702
      py      :     0.005456

 10 H s       :     0.856597  s :     0.856597
      pz      :     0.006971  p :     0.011954
      px      :     0.002526
      py      :     0.002457

 11 C s       :     3.241916  s :     3.241916
      pz      :     0.879865  p :     2.961685
      px      :     0.999292
      py      :     1.082529
      dz2     :     0.013364  d :     0.047606
      dxz     :     0.008594
      dyz     :     0.006313
      dx2y2   :     0.009891
      dxy     :     0.009444

 12 H s       :     0.864172  s :     0.864172
      pz      :     0.008646  p :     0.011822
      px      :     0.001367
      py      :     0.001808

 13 C s       :     3.205704  s :     3.205704
      pz      :     0.936726  p :     2.757724
      px      :     0.866299
      py      :     0.954700
      dz2     :     0.017320  d :     0.069686
      dxz     :     0.008097
      dyz     :     0.013680
      dx2y2   :     0.017343
      dxy     :     0.013246

 14 H s       :     0.837508  s :     0.837508
      pz      :     0.003616  p :     0.012659
      px      :     0.004237
      py      :     0.004806

 15 H s       :     0.850573  s :     0.850573
      pz      :     0.001840  p :     0.012444
      px      :     0.002444
      py      :     0.008160

 16 C s       :     2.944160  s :     2.944160
      pz      :     0.652332  p :     2.123285
      px      :     0.851318
      py      :     0.619634
      dz2     :     0.023843  d :     0.146370
      dxz     :     0.020854
      dyz     :     0.026417
      dx2y2   :     0.044368
      dxy     :     0.030888

 17 H s       :     0.679471  s :     0.679471
      pz      :     0.003920  p :     0.025865
      px      :     0.009045
      py      :     0.012900

 18 N s       :     3.608950  s :     3.608950
      pz      :     1.208501  p :     4.065739
      px      :     1.692893
      py      :     1.164344
      dz2     :     0.011544  d :     0.033823
      dxz     :     0.003327
      dyz     :     0.005469
      dx2y2   :     0.001915
      dxy     :     0.011569

 19 H s       :     0.687509  s :     0.687509
      pz      :     0.015080  p :     0.025984
      px      :     0.006768
      py      :     0.004136

 20 O s       :     3.836827  s :     3.836827
      pz      :     1.784507  p :     4.773334
      px      :     1.407657
      py      :     1.581170
      dz2     :     0.003755  d :     0.025332
      dxz     :     0.002899
      dyz     :     0.005938
      dx2y2   :     0.010131
      dxy     :     0.002610

 21 H s       :     0.833054  s :     0.833054
      pz      :     0.001792  p :     0.012239
      px      :     0.003182
      py      :     0.007265

 22 H s       :     0.582468  s :     0.582468
      pz      :     0.008878  p :     0.041586
      px      :     0.025876
      py      :     0.006831

 23 O s       :     3.872563  s :     3.872563
      pz      :     1.444999  p :     4.675805
      px      :     1.678581
      py      :     1.552225
      dz2     :     0.008436  d :     0.032908
      dxz     :     0.005480
      dyz     :     0.006310
      dx2y2   :     0.005137
      dxy     :     0.007545



                     *******************************
                     * LOEWDIN POPULATION ANALYSIS *
                     *******************************

----------------------
LOEWDIN ATOMIC CHARGES
----------------------
   0 C :    0.026101
   1 N :   -0.268651
   2 H :    0.117810
   3 C :   -0.005931
   4 N :   -0.255999
   5 H :    0.062323
   6 H :    0.055892
   7 C :   -0.054025
   8 H :    0.126573
   9 H :    0.057570
  10 H :    0.063408
  11 C :   -0.111263
  12 H :    0.058531
  13 C :   -0.027646
  14 H :    0.077452
  15 H :    0.071611
  16 C :    0.227968
  17 H :    0.140129
  18 N :   -0.265603
  19 H :    0.135620
  20 O :   -0.207676
  21 H :    0.078637
  22 H :    0.203875
  23 O :   -0.306705

-------------------------------
LOEWDIN REDUCED ORBITAL CHARGES
-------------------------------
  0 C s       :     2.872183  s :     2.872183
      pz      :     1.074815  p :     2.940273
      px      :     0.963889
      py      :     0.901569
      dz2     :     0.022629  d :     0.161443
      dxz     :     0.033802
      dyz     :     0.018758
      dx2y2   :     0.041844
      dxy     :     0.044410

  1 N s       :     3.181864  s :     3.181864
      pz      :     1.363751  p :     4.010071
      px      :     1.147392
      py      :     1.498928
      dz2     :     0.015725  d :     0.076715
      dxz     :     0.016479
      dyz     :     0.008307
      dx2y2   :     0.009651
      dxy     :     0.026554

  2 H s       :     0.800819  s :     0.800819
      pz      :     0.042046  p :     0.081371
      px      :     0.021329
      py      :     0.017996

  3 C s       :     2.875387  s :     2.875387
      pz      :     1.039334  p :     2.992641
      px      :     0.972821
      py      :     0.980487
      dz2     :     0.037923  d :     0.137903
      dxz     :     0.021463
      dyz     :     0.015480
      dx2y2   :     0.030287
      dxy     :     0.032750

  4 N s       :     3.192990  s :     3.192990
      pz      :     1.154876  p :     3.982003
      px      :     1.442192
      py      :     1.384935
      dz2     :     0.020344  d :     0.081007
      dxz     :     0.021611
      dyz     :     0.008639
      dx2y2   :     0.021646
      dxy     :     0.008766

  5 H s       :     0.899612  s :     0.899612
      pz      :     0.017396  p :     0.038065
      px      :     0.012866
      py      :     0.007803

  6 H s       :     0.906972  s :     0.906972
      pz      :     0.021173  p :     0.037137
      px      :     0.011648
      py      :     0.004315

  7 C s       :     2.893052  s :     2.893052
      pz      :     1.023550  p :     3.039986
      px      :     0.982463
      py      :     1.033973
      dz2     :     0.024455  d :     0.120987
      dxz     :     0.030460
      dyz     :     0.017487
      dx2y2   :     0.017585
      dxy     :     0.031000

  8 H s       :     0.780134  s :     0.780134
      pz      :     0.048761  p :     0.093293
      px      :     0.019555
      py      :     0.024977

  9 H s       :     0.902866  s :     0.902866
      pz      :     0.008346  p :     0.039565
      px      :     0.014181
      py      :     0.017038

 10 H s       :     0.897633  s :     0.897633
      pz      :     0.021257  p :     0.038959
      px      :     0.008703
      py      :     0.008999

 11 C s       :     2.893732  s :     2.893732
      pz      :     0.993244  p :     3.126984
      px      :     1.054607
      py      :     1.079133
      dz2     :     0.026833  d :     0.090547
      dxz     :     0.017706
      dyz     :     0.011799
      dx2y2   :     0.018024
      dxy     :     0.016185

 12 H s       :     0.903157  s :     0.903157
      pz      :     0.025480  p :     0.038311
      px      :     0.005861
      py      :     0.006971

 13 C s       :     2.870098  s :     2.870098
      pz      :     1.021938  p :     3.017912
      px      :     0.987485
      py      :     1.008490
      dz2     :     0.035117  d :     0.139636
      dxz     :     0.016860
      dyz     :     0.026553
      dx2y2   :     0.034742
      dxy     :     0.026363

 14 H s       :     0.881880  s :     0.881880
      pz      :     0.011832  p :     0.040668
      px      :     0.013930
      py      :     0.014906

 15 H s       :     0.887950  s :     0.887950
      pz      :     0.007032  p :     0.040438
      px      :     0.009283
      py      :     0.024124

 16 C s       :     2.846513  s :     2.846513
      pz      :     0.762696  p :     2.607948
      px      :     1.000799
      py      :     0.844454
      dz2     :     0.046542  d :     0.317571
      dxz     :     0.044470
      dyz     :     0.062277
      dx2y2   :     0.099123
      dxy     :     0.065159

 17 H s       :     0.777299  s :     0.777299
      pz      :     0.012731  p :     0.082572
      px      :     0.030850
      py      :     0.038991

 18 N s       :     3.186842  s :     3.186842
      pz      :     1.198199  p :     4.018601
      px      :     1.645006
      py      :     1.175397
      dz2     :     0.020494  d :     0.060159
      dxz     :     0.005127
      dyz     :     0.011652
      dx2y2   :     0.005390
      dxy     :     0.017497

 19 H s       :     0.782502  s :     0.782502
      pz      :     0.045852  p :     0.081878
      px      :     0.022881
      py      :     0.013146

 20 O s       :     3.456157  s :     3.456157
      pz      :     1.747852  p :     4.703462
      px      :     1.380419
      py      :     1.575191
      dz2     :     0.006370  d :     0.048056
      dxz     :     0.004759
      dyz     :     0.009808
      dx2y2   :     0.018044
      dxy     :     0.009077

 21 H s       :     0.881234  s :     0.881234
      pz      :     0.007459  p :     0.040128
      px      :     0.010895
      py      :     0.021774

 22 H s       :     0.675685  s :     0.675685
      pz      :     0.027800  p :     0.120440
      px      :     0.071102
      py      :     0.021539

 23 O s       :     3.547841  s :     3.547841
      pz      :     1.453438  p :     4.701377
      px      :     1.682683
      py      :     1.565255
      dz2     :     0.009331  d :     0.057487
      dxz     :     0.011178
      dyz     :     0.013361
      dx2y2   :     0.009238
      dxy     :     0.014380



                      *****************************
                      * MAYER POPULATION ANALYSIS *
                      *****************************

  NA   - Mulliken gross atomic population
  ZA   - Total nuclear charge
  QA   - Mulliken gross atomic charge
  VA   - Mayer's total valence
  BVA  - Mayer's bonded valence
  FA   - Mayer's free valence

  ATOM       NA         ZA         QA         VA         BVA        FA
  0 C      5.8777     6.0000     0.1223     3.7849     3.7849     0.0000
  1 N      7.6615     7.0000    -0.6615     2.6905     2.6905     0.0000
  2 H      0.7448     1.0000     0.2552     0.9114     0.9114     0.0000
  3 C      5.9326     6.0000     0.0674     3.7387     3.7387    -0.0000
  4 N      7.6146     7.0000    -0.6146     2.7278     2.7278     0.0000
  5 H      0.8800     1.0000     0.1200     0.9563     0.9563     0.0000
  6 H      0.8761     1.0000     0.1239     0.9412     0.9412     0.0000
  7 C      6.0752     6.0000    -0.0752     3.7658     3.7658    -0.0000
  8 H      0.6824     1.0000     0.3176     0.8968     0.8968     0.0000
  9 H      0.8856     1.0000     0.1144     0.9545     0.9545     0.0000
 10 H      0.8686     1.0000     0.1314     0.9464     0.9464    -0.0000
 11 C      6.2512     6.0000    -0.2512     3.7865     3.7865     0.0000
 12 H      0.8760     1.0000     0.1240     0.9431     0.9431    -0.0000
 13 C      6.0331     6.0000    -0.0331     3.7202     3.7202    -0.0000
 14 H      0.8502     1.0000     0.1498     0.9475     0.9475     0.0000
 15 H      0.8630     1.0000     0.1370     0.9470     0.9470     0.0000
 16 C      5.2138     6.0000     0.7862     3.7141     3.7141    -0.0000
 17 H      0.7053     1.0000     0.2947     0.8995     0.8995     0.0000
 18 N      7.7085     7.0000    -0.7085     2.7668     2.7668     0.0000
 19 H      0.7135     1.0000     0.2865     0.9014     0.9014     0.0000
 20 O      8.6355     8.0000    -0.6355     1.8214     1.8214     0.0000
 21 H      0.8453     1.0000     0.1547     0.9432     0.9432     0.0000
 22 H      0.6241     1.0000     0.3759     0.8688     0.8688    -0.0000
 23 O      8.5813     8.0000    -0.5813     1.9066     1.9066     0.0000

  Mayer bond orders larger than 0.100000
B(  0-C ,  1-N ) :   0.9470 B(  0-C ,  4-N ) :   0.9339 B(  0-C ,  5-H ) :   0.9808 
B(  0-C ,  6-H ) :   0.9693 B(  1-N ,  3-C ) :   0.9533 B(  1-N ,  8-H ) :   0.8625 
B(  2-H ,  4-N ) :   0.9112 B(  3-C ,  7-C ) :   0.9290 B(  3-C , 11-C ) :   0.9813 
B(  3-C , 12-H ) :   0.9722 B(  4-N ,  7-C ) :   0.9481 B(  7-C ,  9-H ) :   0.9764 
B(  7-C , 10-H ) :   0.9719 B( 11-C , 13-C ) :   0.9437 B( 11-C , 14-H ) :   0.9646 
B( 11-C , 15-H ) :   0.9645 B( 13-C , 16-C ) :   0.9294 B( 13-C , 18-N ) :   0.9632 
B( 13-C , 21-H ) :   0.9537 B( 16-C , 20-O ) :   0.9713 B( 16-C , 23-O ) :   1.8403 
B( 17-H , 18-N ) :   0.8918 B( 18-N , 19-H ) :   0.9045 B( 20-O , 22-H ) :   0.8379 


-------
TIMINGS
-------

Total SCF time: 0 days 0 hours 0 min 35 sec 

Total time                  ....      35.788 sec
Sum of individual times     ....      34.246 sec  ( 95.7%)

SCF preparation             ....       0.019 sec  (  0.1%)
Fock matrix formation       ....      34.148 sec  ( 95.4%)
  Startup                   ....       0.001 sec  (  0.0% of F)
  Coulomb+Exchange Fock     ....      35.671 sec  (104.5% of F)
Diagonalization             ....       0.000 sec  (  0.0%)
Density matrix formation    ....       0.006 sec  (  0.0%)
Total Energy calculation    ....       0.001 sec  (  0.0%)
Population analysis         ....       0.003 sec  (  0.0%)
Orbital Transformation      ....       0.008 sec  (  0.0%)
Orbital Orthonormalization  ....       0.000 sec  (  0.0%)
DIIS solution               ....       0.036 sec  (  0.1%)
SOSCF solution              ....       0.023 sec  (  0.1%)
Finished LeanSCF after  35.8 sec

Maximum memory used throughout the entire LEANSCF-calculation: 17.6 MB

------------------------------------------------------------------------------
                                ORCA  MP2 
------------------------------------------------------------------------------

Freezing NCore=22 chemical core electrons
MP2 will be done in the AO integral direct mode
The Q1-step will be done using symmetric double matrices
Dimension of the basis                    ...  219
Memory devoted for MP2                    ... 4096 MB   
Memory needed for all in one shot         ... 1289 MB
Number of MOs that can be treated together...  100      
MP2 density construction                  ... relaxed
The MP2 gradient is requested => amplitudes will be stored on disk
Total number of MOs              ...   32
Number of MOs treated per batch  ...   32 
Number of batches necessary      ...    1 
OPERATORS   0/  0 PASS   0
-----------------------------------------------
 MP2 CORRELATION ENERGY   :     -1.682906305 Eh
-----------------------------------------------


---------------------
MP2 DENSITY FORMATION
---------------------

Completing the external part of the density      ... done
Storing the unrelaxed density                    ... done

Calculating G(D)                                 ... done
Completing the Lagrangian                        ... done
Solving the Z-vector equations                   ... 
-------------------
SHARK CP-SCF DRIVER
-------------------

Dimension of the orbital basis          ...    219
Dimension of the CPSCF-problem          ...   7568
Number of operators                     ...      1
Max. number of iterations               ...    128
Convergence Tolerance                   ... 1.0e-04
Number of perturbations                 ...      1
Perturbation type                       ... REAL

----------------------------
POPLE LINEAR EQUATION SOLVER
----------------------------

  ITERATION   0:   ||err||_max =   1.3889e-01 (   4.0 sec)
  ITERATION   1:   ||err||_max =   3.5668e-02 (   4.1 sec)
  ITERATION   2:   ||err||_max =   1.4984e-02 (   4.2 sec)
  ITERATION   3:   ||err||_max =   3.6280e-03 (   4.1 sec)
  ITERATION   4:   ||err||_max =   1.2697e-03 (   4.2 sec)
  ITERATION   5:   ||err||_max =   3.2288e-04 (   4.1 sec)
  ITERATION   6:   ||err||_max =   1.0353e-04 (   4.2 sec)
  ITERATION   7:   ||err||_max =   3.4467e-05 (   4.1 sec)
                                                 ... done
Finalizing the relaxed density                   ... done
Transforming P to the AO basis                   ... done
Storing the relaxed density                      ... done

------------------------------------
ENERGY WEIGHTED DENSITY FINALIZATION
------------------------------------

Gathering the parts of the W-matrix              ...                                                      done
Forming the Z-density                            ... done
Transforming Z to the AO basis                   ... done
Calculating G(Z)                                 ... done
Finalizing the W-matrix                          ...                                                      done
Transforming W to the AO basis and storing       ... done

                *********************************************
                * UNRELAXED MP2 DENSITY POPULATION ANALYSIS *
                *********************************************

------------------------------------------------------------------------------
                           ORCA POPULATION ANALYSIS
------------------------------------------------------------------------------
Input electron density              ... 4.pmp2ur
BaseName (.gbw .S,...)              ... 4

                    ********************************
                    * MULLIKEN POPULATION ANALYSIS *
                    ********************************

-----------------------
MULLIKEN ATOMIC CHARGES
-----------------------
   0 C :    0.110965
   1 N :   -0.649560
   2 H :    0.253823
   3 C :    0.059981
   4 N :   -0.603996
   5 H :    0.121025
   6 H :    0.124874
   7 C :   -0.081054
   8 H :    0.314760
   9 H :    0.115414
  10 H :    0.132358
  11 C :   -0.252685
  12 H :    0.125029
  13 C :   -0.038211
  14 H :    0.150411
  15 H :    0.137762
  16 C :    0.752908
  17 H :    0.292994
  18 N :   -0.699699
  19 H :    0.285162
  20 O :   -0.621891
  21 H :    0.155230
  22 H :    0.372770
  23 O :   -0.558371
Sum of atomic charges:   -0.0000000

--------------------------------
MULLIKEN REDUCED ORBITAL CHARGES
--------------------------------
  0 C s       :     3.142529  s :     3.142529
      pz      :     1.070578  p :     2.651579
      px      :     0.840861
      py      :     0.740140
      dz2     :     0.015235  d :     0.094927
      dxz     :     0.020796
      dyz     :     0.012715
      dx2y2   :     0.022416
      dxy     :     0.023766
  1 N s       :     3.621050  s :     3.621050
      pz      :     1.379385  p :     3.965516
      px      :     1.095037
      py      :     1.491094
      dz2     :     0.014451  d :     0.062994
      dxz     :     0.012855
      dyz     :     0.008669
      dx2y2   :     0.008815
      dxy     :     0.018204
  2 H s       :     0.718190  s :     0.718190
      pz      :     0.014703  p :     0.027987
      px      :     0.007080
      py      :     0.006204
  3 C s       :     3.166815  s :     3.166815
      pz      :     1.008917  p :     2.688818
      px      :     0.834671
      py      :     0.845231
      dz2     :     0.022502  d :     0.084386
      dxz     :     0.013937
      dyz     :     0.011369
      dx2y2   :     0.017687
      dxy     :     0.018892
  4 N s       :     3.620309  s :     3.620309
      pz      :     1.127971  p :     3.919000
      px      :     1.431141
      py      :     1.359888
      dz2     :     0.013998  d :     0.064686
      dxz     :     0.016922
      dyz     :     0.008097
      dx2y2   :     0.017056
      dxy     :     0.008614
  5 H s       :     0.864105  s :     0.864105
      pz      :     0.006506  p :     0.014870
      px      :     0.004914
      py      :     0.003449
  6 H s       :     0.860931  s :     0.860931
      pz      :     0.007865  p :     0.014195
      px      :     0.004243
      py      :     0.002087
  7 C s       :     3.196990  s :     3.196990
      pz      :     0.969445  p :     2.806476
      px      :     0.889330
      py      :     0.947701
      dz2     :     0.015732  d :     0.077588
      dxz     :     0.019077
      dyz     :     0.012056
      dx2y2   :     0.011921
      dxy     :     0.018802
  8 H s       :     0.655523  s :     0.655523
      pz      :     0.015313  p :     0.029717
      px      :     0.006408
      py      :     0.007997
  9 H s       :     0.869322  s :     0.869322
      pz      :     0.003293  p :     0.015264
      px      :     0.005625
      py      :     0.006347
 10 H s       :     0.852888  s :     0.852888
      pz      :     0.007749  p :     0.014754
      px      :     0.003524
      py      :     0.003480
 11 C s       :     3.238728  s :     3.238728
      pz      :     0.877397  p :     2.949914
      px      :     0.994870
      py      :     1.077646
      dz2     :     0.016316  d :     0.064044
      dxz     :     0.012106
      dyz     :     0.009701
      dx2y2   :     0.013031
      dxy     :     0.012889
 12 H s       :     0.860313  s :     0.860313
      pz      :     0.009367  p :     0.014658
      px      :     0.002433
      py      :     0.002859
 13 C s       :     3.202364  s :     3.202364
      pz      :     0.932542  p :     2.750503
      px      :     0.865597
      py      :     0.952364
      dz2     :     0.020298  d :     0.085344
      dxz     :     0.011744
      dyz     :     0.016790
      dx2y2   :     0.020087
      dxy     :     0.016424
 14 H s       :     0.834164  s :     0.834164
      pz      :     0.004578  p :     0.015425
      px      :     0.005174
      py      :     0.005673
 15 H s       :     0.846998  s :     0.846998
      pz      :     0.002902  p :     0.015240
      px      :     0.003480
      py      :     0.008859
 16 C s       :     2.945948  s :     2.945948
      pz      :     0.664645  p :     2.144243
      px      :     0.851375
      py      :     0.628224
      dz2     :     0.025660  d :     0.156900
      dxz     :     0.023316
      dyz     :     0.028204
      dx2y2   :     0.046573
      dxy     :     0.033147
 17 H s       :     0.679150  s :     0.679150
      pz      :     0.004760  p :     0.027856
      px      :     0.009806
      py      :     0.013290
 18 N s       :     3.604209  s :     3.604209
      pz      :     1.201964  p :     4.039348
      px      :     1.679436
      py      :     1.157948
      dz2     :     0.015921  d :     0.056141
      dxz     :     0.008026
      dyz     :     0.009591
      dx2y2   :     0.006629
      dxy     :     0.015973
 19 H s       :     0.686864  s :     0.686864
      pz      :     0.015385  p :     0.027974
      px      :     0.007641
      py      :     0.004949
 20 O s       :     3.832656  s :     3.832656
      pz      :     1.771515  p :     4.740907
      px      :     1.399185
      py      :     1.570208
      dz2     :     0.008400  d :     0.048328
      dxz     :     0.007516
      dyz     :     0.010490
      dx2y2   :     0.014712
      dxy     :     0.007210
 21 H s       :     0.829765  s :     0.829765
      pz      :     0.002841  p :     0.015005
      px      :     0.004153
      py      :     0.008011
 22 H s       :     0.584511  s :     0.584511
      pz      :     0.009495  p :     0.042719
      px      :     0.025786
      py      :     0.007438
 23 O s       :     3.867977  s :     3.867977
      pz      :     1.431099  p :     4.635912
      px      :     1.665191
      py      :     1.539622
      dz2     :     0.012656  d :     0.054482
      dxz     :     0.009781
      dyz     :     0.010451
      dx2y2   :     0.009795
      dxy     :     0.011800


                     *******************************
                     * LOEWDIN POPULATION ANALYSIS *
                     *******************************

----------------------
LOEWDIN ATOMIC CHARGES
----------------------
   0 C :    0.020594
   1 N :   -0.262714
   2 H :    0.117005
   3 C :   -0.009734
   4 N :   -0.250352
   5 H :    0.062782
   6 H :    0.056280
   7 C :   -0.056854
   8 H :    0.125118
   9 H :    0.057939
  10 H :    0.063719
  11 C :   -0.111511
  12 H :    0.058900
  13 C :   -0.031117
  14 H :    0.077542
  15 H :    0.071870
  16 C :    0.203851
  17 H :    0.139208
  18 N :   -0.260315
  19 H :    0.134912
  20 O :   -0.199082
  21 H :    0.078675
  22 H :    0.201541
  23 O :   -0.288257

-------------------------------
LOEWDIN REDUCED ORBITAL CHARGES
-------------------------------
  0 C s       :     2.872382  s :     2.872382
      pz      :     1.069661  p :     2.930180
      px      :     0.960790
      py      :     0.899729
      dz2     :     0.025955  d :     0.176844
      dxz     :     0.037100
      dyz     :     0.021980
      dx2y2   :     0.044662
      dxy     :     0.047147
  1 N s       :     3.180518  s :     3.180518
      pz      :     1.353852  p :     3.979463
      px      :     1.139476
      py      :     1.486135
      dz2     :     0.020914  d :     0.102733
      dxz     :     0.021555
      dyz     :     0.013605
      dx2y2   :     0.014818
      dxy     :     0.031840
  2 H s       :     0.797558  s :     0.797558
      pz      :     0.043922  p :     0.085437
      px      :     0.022508
      py      :     0.019006
  3 C s       :     2.875722  s :     2.875722
      pz      :     1.034194  p :     2.978089
      px      :     0.967710
      py      :     0.976185
      dz2     :     0.041474  d :     0.155922
      dxz     :     0.025072
      dyz     :     0.019109
      dx2y2   :     0.033820
      dxy     :     0.036446
  4 N s       :     3.191381  s :     3.191381
      pz      :     1.148101  p :     3.952730
      px      :     1.430490
      py      :     1.374139
      dz2     :     0.025315  d :     0.106241
      dxz     :     0.026551
      dyz     :     0.013421
      dx2y2   :     0.026958
      dxy     :     0.013996
  5 H s       :     0.894524  s :     0.894524
      pz      :     0.019058  p :     0.042694
      px      :     0.014414
      py      :     0.009222
  6 H s       :     0.901817  s :     0.901817
      pz      :     0.023022  p :     0.041903
      px      :     0.013231
      py      :     0.005651
  7 C s       :     2.892848  s :     2.892848
      pz      :     1.019106  p :     3.025606
      px      :     0.978264
      py      :     1.028236
      dz2     :     0.027814  d :     0.138400
      dxz     :     0.033832
      dyz     :     0.021081
      dx2y2   :     0.021220
      dxy     :     0.034452
  8 H s       :     0.777835  s :     0.777835
      pz      :     0.050322  p :     0.097047
      px      :     0.020793
      py      :     0.025933
  9 H s       :     0.897637  s :     0.897637
      pz      :     0.009771  p :     0.044423
      px      :     0.015865
      py      :     0.018788
 10 H s       :     0.892534  s :     0.892534
      pz      :     0.023198  p :     0.043747
      px      :     0.010124
      py      :     0.010425
 11 C s       :     2.893406  s :     2.893406
      pz      :     0.987722  p :     3.108476
      px      :     1.047780
      py      :     1.072974
      dz2     :     0.030446  d :     0.109629
      dxz     :     0.021679
      dyz     :     0.015585
      dx2y2   :     0.021825
      dxy     :     0.020095
 12 H s       :     0.897715  s :     0.897715
      pz      :     0.027674  p :     0.043385
      px      :     0.007311
      py      :     0.008401
 13 C s       :     2.870406  s :     2.870406
      pz      :     1.015700  p :     3.002923
      px      :     0.983528
      py      :     1.003696
      dz2     :     0.038753  d :     0.157787
      dxz     :     0.020834
      dyz     :     0.030193
      dx2y2   :     0.037944
      dxy     :     0.030064
 14 H s       :     0.876995  s :     0.876995
      pz      :     0.013383  p :     0.045464
[...]
      dxz     :     0.019808
      dyz     :     0.012134
      dx2y2   :     0.014737
      dxy     :     0.030819
  2 H s       :     0.798442  s :     0.798442
      pz      :     0.043098  p :     0.084046
      px      :     0.022078
      py      :     0.018870
  3 C s       :     2.883171  s :     2.883171
      pz      :     1.043374  p :     2.995838
      px      :     0.971677
      py      :     0.980787
      dz2     :     0.039053  d :     0.146058
      dxz     :     0.022908
      dyz     :     0.017441
      dx2y2   :     0.032295
      dxy     :     0.034360
  4 N s       :     3.215175  s :     3.215175
      pz      :     1.147882  p :     3.913066
      px      :     1.395999
      py      :     1.369185
      dz2     :     0.024088  d :     0.102455
      dxz     :     0.024425
      dyz     :     0.013195
      dx2y2   :     0.026869
      dxy     :     0.013879
  5 H s       :     0.890991  s :     0.890991
      pz      :     0.017697  p :     0.042681
      px      :     0.015414
      py      :     0.009571
  6 H s       :     0.896773  s :     0.896773
      pz      :     0.023533  p :     0.042353
      px      :     0.012724
      py      :     0.006095
  7 C s       :     2.901666  s :     2.901666
      pz      :     1.036125  p :     3.047862
      px      :     0.977428
      py      :     1.034309
      dz2     :     0.024963  d :     0.128296
      dxz     :     0.028606
      dyz     :     0.021836
      dx2y2   :     0.021358
      dxy     :     0.031532
  8 H s       :     0.784313  s :     0.784313
      pz      :     0.050261  p :     0.093760
      px      :     0.019315
      py      :     0.024184
  9 H s       :     0.892969  s :     0.892969
      pz      :     0.010896  p :     0.044500
      px      :     0.015467
      py      :     0.018136
 10 H s       :     0.888673  s :     0.888673
      pz      :     0.023294  p :     0.043924
      px      :     0.009274
      py      :     0.011356
 11 C s       :     2.895864  s :     2.895864
      pz      :     0.995988  p :     3.121113
      px      :     1.046347
      py      :     1.078778
      dz2     :     0.027267  d :     0.103751
      dxz     :     0.022139
      dyz     :     0.014949
      dx2y2   :     0.020510
      dxy     :     0.018887
 12 H s       :     0.891815  s :     0.891815
      pz      :     0.027534  p :     0.043774
      px      :     0.007755
      py      :     0.008485
 13 C s       :     2.874393  s :     2.874393
      pz      :     1.012571  p :     3.026641
      px      :     1.004622
      py      :     1.009448
      dz2     :     0.036745  d :     0.150014
      dxz     :     0.020895
      dyz     :     0.028834
      dx2y2   :     0.034794
      dxy     :     0.028745
 14 H s       :     0.874117  s :     0.874117
      pz      :     0.013805  p :     0.045227
      px      :     0.015934
      py      :     0.015487
 15 H s       :     0.878651  s :     0.878651
      pz      :     0.008470  p :     0.044866
      px      :     0.010588
      py      :     0.025808
 16 C s       :     2.859569  s :     2.859569
      pz      :     0.818698  p :     2.691227
      px      :     0.999220
      py      :     0.873308
      dz2     :     0.039523  d :     0.306075
      dxz     :     0.040535
      dyz     :     0.060568
      dx2y2   :     0.101213
      dxy     :     0.064236
 17 H s       :     0.779260  s :     0.779260
      pz      :     0.013507  p :     0.084519
      px      :     0.032842
      py      :     0.038170
 18 N s       :     3.198638  s :     3.198638
      pz      :     1.180207  p :     3.968371
      px      :     1.612880
      py      :     1.175285
      dz2     :     0.024273  d :     0.082579
      dxz     :     0.010484
      dyz     :     0.015683
      dx2y2   :     0.009811
      dxy     :     0.022329
 19 H s       :     0.782804  s :     0.782804
      pz      :     0.045243  p :     0.083798
      px      :     0.023523
      py      :     0.015033
 20 O s       :     3.479969  s :     3.479969
      pz      :     1.712964  p :     4.623302
      px      :     1.364885
      py      :     1.545453
      dz2     :     0.011514  d :     0.072168
      dxz     :     0.008711
      dyz     :     0.014959
      dx2y2   :     0.023895
      dxy     :     0.013088
 21 H s       :     0.874323  s :     0.874323
      pz      :     0.009155  p :     0.045361
      px      :     0.012724
      py      :     0.023482
 22 H s       :     0.688758  s :     0.688758
      pz      :     0.028575  p :     0.120445
      px      :     0.069801
      py      :     0.022069
 23 O s       :     3.561269  s :     3.561269
      pz      :     1.406467  p :     4.584417
      px      :     1.636131
      py      :     1.541820
      dz2     :     0.013011  d :     0.078929
      dxz     :     0.015168
      dyz     :     0.016449
      dx2y2   :     0.014647
      dxy     :     0.019654


                      *****************************
                      * MAYER POPULATION ANALYSIS *
                      *****************************

  NA   - Mulliken gross atomic population
  ZA   - Total nuclear charge
  QA   - Mulliken gross atomic charge
  VA   - Mayer's total valence
  BVA  - Mayer's bonded valence
  FA   - Mayer's free valence

  ATOM       NA         ZA         QA         VA         BVA        FA
  0 C      5.9731     6.0000     0.0269     3.9397     3.6795     0.2602
  1 N      7.5363     7.0000    -0.5363     3.0097     2.6623     0.3474
  2 H      0.7608     1.0000     0.2392     0.9267     0.8768     0.0499
  3 C      5.9718     6.0000     0.0282     3.9005     3.6157     0.2848
  4 N      7.5070     7.0000    -0.5070     3.0288     2.6841     0.3447
  5 H      0.8835     1.0000     0.1165     0.9638     0.9175     0.0463
  6 H      0.8776     1.0000     0.1224     0.9515     0.9047     0.0468
  7 C      6.1104     6.0000    -0.1104     3.8964     3.6262     0.2701
  8 H      0.7182     1.0000     0.2818     0.9308     0.8837     0.0471
  9 H      0.8899     1.0000     0.1101     0.9647     0.9162     0.0485
 10 H      0.8749     1.0000     0.1251     0.9570     0.9093     0.0477
 11 C      6.2354     6.0000    -0.2354     3.9201     3.6486     0.2715
 12 H      0.8830     1.0000     0.1170     0.9529     0.9030     0.0499
 13 C      6.0569     6.0000    -0.0569     3.8744     3.5976     0.2768
 14 H      0.8617     1.0000     0.1383     0.9604     0.9114     0.0489
 15 H      0.8703     1.0000     0.1297     0.9589     0.9097     0.0492
 16 C      5.4381     6.0000     0.5619     3.9704     3.6911     0.2793
 17 H      0.7262     1.0000     0.2738     0.9198     0.8742     0.0455
 18 N      7.6219     7.0000    -0.6219     3.0549     2.7282     0.3267
 19 H      0.7327     1.0000     0.2673     0.9156     0.8696     0.0460
 20 O      8.5237     8.0000    -0.5237     2.1992     1.8474     0.3518
 21 H      0.8579     1.0000     0.1421     0.9573     0.9085     0.0489
 22 H      0.6536     1.0000     0.3464     0.8983     0.8549     0.0435
 23 O      8.4351     8.0000    -0.4351     2.3265     1.9371     0.3894

  Mayer bond orders larger than 0.100000
B(  0-C ,  1-N ) :   0.9311 B(  0-C ,  4-N ) :   0.9149 B(  0-C ,  5-H ) :   0.9327 
B(  0-C ,  6-H ) :   0.9221 B(  1-N ,  3-C ) :   0.9423 B(  1-N ,  8-H ) :   0.8233 
B(  2-H ,  4-N ) :   0.8684 B(  3-C ,  7-C ) :   0.8703 B(  3-C , 11-C ) :   0.9342 
B(  3-C , 12-H ) :   0.9181 B(  4-N ,  7-C ) :   0.9344 B(  7-C ,  9-H ) :   0.9254 
B(  7-C , 10-H ) :   0.9246 B( 11-C , 13-C ) :   0.9091 B( 11-C , 14-H ) :   0.9155 
B( 11-C , 15-H ) :   0.9147 B( 13-C , 16-C ) :   0.8737 B( 13-C , 18-N ) :   0.9453 
B( 13-C , 21-H ) :   0.9017 B( 16-C , 20-O ) :   0.9890 B( 16-C , 23-O ) :   1.8194 
B( 17-H , 18-N ) :   0.8580 B( 18-N , 19-H ) :   0.8688 B( 20-O , 22-H ) :   0.8110 



----------------------------------
MP2 DERIVATIVE INTEGRAL GENERATION
----------------------------------

Input SCF Electron Density              ... 4.scfp
Input Correlated Electron Density       ... 4.pmp2re
Input Energy Weighted Density           ... 4.wmp2.tmp
Input Wavefunction Amplitudes           ... 4.mp2tsaa.tmp

Nuclear repulsion gradient              ... done (  0.0 sec)
HCore & Overlap gradient  (SHARK)       ... done (  0.2 sec)
Analytic two-electron gradient terms    ... 
  Batch handling in the gradient evaluation:
  General contraction                   ... not used
  Memory available                      ... 4078.2 MB
  Memory per occupied orbital in Q2     ...   11.7 MB
  Memory per occupied orbital in Q3     ...    0.0 MB
  Total memory requirement per |i>      ...   11.8 MB
  Number of orbitals treated per batch  ...     32
  Number of batches to be done          ...      1
done ( 40.3 sec)

---------------------------------------
MP2 TOTAL ENERGY:     -549.551012340 Eh
---------------------------------------

The final MP2 gradient
  0:   0.00001729  -0.00007598  -0.00001056
  1:  -0.00001026  -0.00001831  -0.00001775
  2:   0.00002738  -0.00003803  -0.00000532
  3:   0.00002356   0.00004863   0.00004725
  4:  -0.00009395   0.00011838  -0.00003002
  5:  -0.00001328   0.00001600   0.00000498
  6:   0.00001755   0.00001309   0.00000798
  7:   0.00010778  -0.00008397   0.00001483
  8:  -0.00001454  -0.00001167   0.00000665
  9:  -0.00001936   0.00002798   0.00000991
 10:  -0.00003090  -0.00000780  -0.00000850
 11:   0.00003899   0.00002539  -0.00002041
 12:  -0.00000437  -0.00000801  -0.00000690
 13:  -0.00006157   0.00002110   0.00002561
 14:   0.00000723  -0.00000686  -0.00001142
 15:  -0.00003175  -0.00001375   0.00001097
 16:  -0.00004004   0.00001079  -0.00000775
 17:  -0.00002058  -0.00000069   0.00003098
 18:   0.00004053   0.00001883  -0.00004412
 19:  -0.00000365  -0.00000827   0.00000491
 20:   0.00001909   0.00003401   0.00002899
 21:  -0.00001167  -0.00001187  -0.00000105
 22:   0.00000175  -0.00000038  -0.00000125
 23:   0.00005477  -0.00004860  -0.00002800

-----------------------------------
NORM OF THE MP2 GRADIENT:  0.000293
-----------------------------------

Maximum memory used throughout the entire MP2-calculation: 1372.9 MB

-------------------------   --------------------
FINAL SINGLE POINT ENERGY      -549.551012340492
-------------------------   --------------------

                                *** OPTIMIZATION RUN DONE ***


------------------------------------------------------------------------------
                              ORCA PROPERTY CALCULATIONS
------------------------------------------------------------------------------

GBWName                                 ... 4.gbw
Number of atoms                         ...     24
Number of basis functions               ...    219
Max core memory                         ...   4096 MB

Electric properties:
Dipole moment                           ... YES
Quadrupole moment                       ...  NO
Static polarizability (Dipole/Dipole)   ...  NO
Static polarizability (Dipole/Quad.)    ...  NO
Static polarizability (Quad./Quad.)     ...  NO
Static polarizability (Velocity)        ...  NO
Static hyperpolarizability              ...  NO

Atomic electric properties:
Dipole moment                           ...  NO
Quadrupole moment                       ...  NO
Static polarizability                   ...  NO

Choice of electric origin               ... Center of mass
Position of electric origin             ...   -12.603544     6.333762    -0.397399

General magnetic properties:
Magnetizability                         ...  NO

EPR properties:
g-Tensor (aka g-matrix)                 ...  NO
Zero-Field splitting spin-orbit         ...  NO
Zero-field splitting spin-spin          ...  NO
Hyperfine couplings                     ...  NO (   0 nuclei)
Quadrupole couplings                    ...  NO (   0 nuclei)
Contact density                         ...  NO (   0 nuclei)

NMR properties:
Chemical shifts                         ...  NO (   0 nuclei)
Spin-rotation constants                 ...  NO (   0 nuclei)
Spin-spin couplings                     ...  NO (   0 nuclei,    0 pairs)

Choice of magnetic origin               ... GIAO
Position of magnetic origin             ...     0.000000     0.000000     0.000000

Properties with geometric perturbations:
SCF Hessian                             ...  NO
IR spectrum                             ...  NO
VCD spectrum                            ...  NO
X-ray spectroscopy properties:
SCF XES/XAS/RIXS spectra                ...  NO

SCF SOC stabilization energy            ...  NO
Diagonal Born-Oppenheimer correction    ...  NO

-------------
DIPOLE MOMENT
-------------

Method             : SCF
Type of density    : Electron Density
Multiplicity       :   1
Irrep              :   0
Energy             :  -547.8628234480313495 Eh
Basis              : AO
                                X                 Y                 Z
Electronic contribution:      7.813792910       0.366214912      -3.472395559
Nuclear contribution   :     -6.967115462       0.144605079       3.160024517
                        -----------------------------------------
Total Dipole Moment    :      0.846677448       0.510819990      -0.312371041
                        -----------------------------------------
Magnitude (a.u.)       :      1.037003100
Magnitude (Debye)      :      2.635852407



--------------------
Rotational spectrum 
--------------------
 
Rotational constants in cm-1:             0.077402             0.020456             0.018733 
Rotational constants in MHz :          2320.457639           613.245639           561.592712 

Dipole components along the rotational axes: 
x,y,z [a.u.] :    -0.906506    -0.425603    -0.269230 
x,y,z [Debye]:    -2.304155    -1.081797    -0.684327 

 

-------------
DIPOLE MOMENT
-------------

Method             : MP2
Type of density    : Electron Density
Multiplicity       :   1
Level              : Unrelaxed density
Irrep              :   0
Energy             :     0.0000000000000000 Eh
Basis              : AO
                                X                 Y                 Z
Electronic contribution:      7.829933741       0.343499379      -3.492260968
Nuclear contribution   :     -6.967115462       0.144605079       3.160024517
                        -----------------------------------------
Total Dipole Moment    :      0.862818279       0.488104458      -0.332236450
                        -----------------------------------------
Magnitude (a.u.)       :      1.045505812
Magnitude (Debye)      :      2.657464582



--------------------
Rotational spectrum 
--------------------
 
Rotational constants in cm-1:             0.077402             0.020456             0.018733 
Rotational constants in MHz :          2320.457639           613.245639           561.592712 

Dipole components along the rotational axes: 
x,y,z [a.u.] :    -0.928429    -0.399377    -0.267583 
x,y,z [Debye]:    -2.359878    -1.015135    -0.680142 

 

-------------
DIPOLE MOMENT
-------------

Method             : MP2
Type of density    : Electron Density
Multiplicity       :   1
Level              : Relaxed density
Irrep              :   0
Energy             :     0.0000000000000000 Eh
Basis              : AO
                                X                 Y                 Z
Electronic contribution:      7.935177108       0.279816951      -3.590676036
Nuclear contribution   :     -6.967115462       0.144605079       3.160024517
                        -----------------------------------------
Total Dipole Moment    :      0.968061645       0.424422029      -0.430651519
                        -----------------------------------------
Magnitude (a.u.)       :      1.141375547
Magnitude (Debye)      :      2.901146082



--------------------
Rotational spectrum 
--------------------
 
Rotational constants in cm-1:             0.077402             0.020456             0.018733 
Rotational constants in MHz :          2320.457639           613.245639           561.592712 

Dipole components along the rotational axes: 
x,y,z [a.u.] :    -1.061087    -0.315111    -0.278457 
x,y,z [Debye]:    -2.697068    -0.800948    -0.707782 

 

Dipole moment calculation done in   0.0 sec 

Maximum memory used throughout the entire PROP-calculation: 12.7 MB

--------------------------------
SUGGESTED CITATIONS FOR THIS RUN
--------------------------------

Below you find a list of papers that are relevant to this ORCA run
We neither can nor want to force you to cite these papers, but we appreciate if you do
You receive ORCA, which is the product of decades of hard work by many enthusiastic individuals, for free
The only thing we kindly ask in return is that you cite our papers,
We deeply appreciate it, if you show your appreciation for ORCA by not just citing the generic ORCA reference.

Please note that relegating all ORCA citations to the supporting information does *not* help us.
SI sections are not indexed - citations you put there will not count into any citation statistics
But we need these citations in order to attract the funding resources that allow us to do what we are doing

Therefore, if you are a happy ORCA user, please consider citing a few of the papers listed below in the main body of your paper

In addition to the list printed below, the program has created the file 4.bibtex that contains the list in bibtex format
You can import this file easily into all common literature databanks and citation aid programs


List of essential papers. We consider these as the minimum necessary citations

  1. Neese, F.
     Software update: the ORCA program system, version 6.0
     WIRES Comput. Molec. Sci. 2025 15(1), e70019
     doi.org/10.1002/wcms.7019

List of papers to cite with high priority. The work reported in these papers was absolutely
necessary for this run to complete.
Our perspective: the developers of density functionals and basis sets usually get cited in chemistry papers
Good! But without the algorithms to do something with them, the functionals or basis sets would not do anything.
Hence, in our opinion, the algorithm design and method developments papers are equally worthy of getting cited

  1. Neese, F.
     The SHARK Integral Generation and Digestion System
     J. Comp. Chem. 2022 44(3), 381
     doi.org/10.1002/jcc.26942

List of suggested additional citations. These are papers that are important in the 'surrounding' of 
of this run, or papers that preceded the highly important papers. If you like your results we are grateful for a citation.

  1. Neese, F.
     The ORCA program system
     WIRES Comput. Molec. Sci. 2012 2(1), 73-78
     doi.org/10.1002/wcms.81
  2. Neese, F.
     Software update: the ORCA program system, version 4.0
     WIRES Comput. Molec. Sci. 2018 8(1), 1-6
     doi.org/10.1002/wcms.1327
  3. Neese, F.; Wennmohs, F.; Becker, U.; Riplinger, C.
     The ORCA quantum chemistry program package
     J. Chem. Phys. 2020 152(22), 224108
     doi.org/10.1063/5.0004608
  4. Neese, F.
     Software update: The ORCA program system—Version 5.0
     WIRES Comput. Molec. Sci. 2022 12(1), e1606
     doi.org/10.1002/wcms.1606

List of optional additional citations

  1. Neese, F.
     Approximate second-order SCF convergence for spin unrestricted wavefunctions
     Chem. Phys. Lett. 2000 325(1-3), 93-98
     doi.org/10.1016/s0009-2614(00)00662-x

Timings for individual modules:

Sum of individual times          ...     1379.755 sec (=  22.996 min)
Startup calculation              ...        5.767 sec (=   0.096 min)   0.4 %
SCF iterations                   ...      250.808 sec (=   4.180 min)  18.2 %
Property calculations            ...        0.044 sec (=   0.001 min)   0.0 %
MP2 module                       ...     1123.115 sec (=  18.719 min)  81.4 %
Geometry relaxation              ...        0.021 sec (=   0.000 min)   0.0 %
                             ****ORCA TERMINATED NORMALLY****
TOTAL RUN TIME: 0 days 0 hours 22 minutes 59 seconds 995 msec
