
                                 *****************
                                 * O   R   C   A *
                                 *****************

                                            #,                                       
                                            ###                                      
                                            ####                                     
                                            #####                                    
                                            ######                                   
                                           ########,                                 
                                     ,,################,,,,,                         
                               ,,#################################,,                 
                          ,,##########################################,,             
                       ,#########################################, ''#####,          
                    ,#############################################,,   '####,        
                  ,##################################################,,,,####,       
                ,###########''''           ''''###############################       
              ,#####''   ,,,,##########,,,,          '''####'''          '####       
            ,##' ,,,,###########################,,,                        '##       
           ' ,,###''''                  '''############,,,                           
         ,,##''                                '''############,,,,        ,,,,,,###''
      ,#''                                            '''#######################'''  
     '                                                          ''''####''''         
             ,#######,   #######,   ,#######,      ##                                
            ,#'     '#,  ##    ##  ,#'     '#,    #''#        ,####,    ,#,          
            ##       ##  ##   ,#'  ##            #'  '#       #'       ,# #          
            ##       ##  #######   ##           ,######,      #####,      #          
            '#,     ,#'  ##    ##  '#,     ,#' ,#      #,     #,   #      #          
             '#######'   ##     ##  '#######'  #'      '#     '####' #    #          



                #########################################################
                #                        -***-                          #
                #          Department of theory and spectroscopy        #
                #                                                       #
                #                      Frank Neese                      #
                #                                                       #
                #     Directorship, Architecture, Infrastructure        #
                #                    SHARK, DRIVERS                     #
                #        Core code/Algorithms in most modules           #
                #                                                       #
                #        Max Planck Institute fuer Kohlenforschung      #
                #                Kaiser Wilhelm Platz 1                 #
                #                 D-45470 Muelheim/Ruhr                 #
                #                      Germany                          #
                #                                                       #
                #                  All rights reserved                  #
                #                        -***-                          #
                #########################################################


                         Program Version 6.1.0  -  RELEASE   -
                                (GIT: $679e74b$)
                          ($2025-06-10 18:02:51 +0200$)


 With contributions from (in alphabetic order):
[Max-Planck-Institut fuer Kohlenforschung]                               
  Daniel Aravena         : Magnetic Suceptibility                        
  Michael Atanasov       : Ab Initio Ligand Field Theory (pilot matlab implementation)
  Alexander A. Auer      : GIAO ZORA, VPT2 properties, NMR spectrum      
  Ute Becker             : All parallelization in ORCA, NUMFREQ, NUMCALC 
  Giovanni Bistoni       : ED, misc. LED, open-shell LED, HFLD           
  Dmytro Bykov           : pre 5.0 version of the SCF Hessian            
  Marcos Casanova-Páez   : Triplet and SCS-CIS(D). UHF-(DLPNO)-IP/EA/STEOM-CCSD. UHF-CVS-IP/STEOM-CCSD   
  Vijay G. Chilkuri      : MRCI spin determinant printing, contributions to CSF-ICE 
  Pauline Colinet        : FMM embedding                                 
  Dipayan Datta          : RHF DLPNO-CCSD density                        
  Achintya Kumar Dutta   : EOM-CC, STEOM-CC                              
  Nicolas Foglia         : Exact transition moments, OPA infrastructure, MCD improvements    
  Dmitry Ganyushin       : Spin-Orbit,Spin-Spin,Magnetic field MRCI      
  Miquel Garcia-Rates    : C-PCM and meta-GGA Hessian, CCSD/C-PCM, Gaussian charge scheme 
  Tiago L. C. Gouveia    : GS-ROHF, GS-ROCIS                             
  Yang Guo               : DLPNO-NEVPT2, F12-NEVPT2, CIM, IAO-localization        
  Andreas Hansen         : Spin unrestricted coupled pair/coupled cluster methods 
  Ingolf Harden          : AUTO-CI MPn and infrastructure                
  Benjamin Helmich-Paris : MC-RPA, TRAH-(SCF,CASSCF), AVAS, COSX integrals, SCF dyn. polar., MC-PDFT, srDFT 
  Lee Huntington         : MR-EOM, pCC                                   
  Robert Izsak           : Overlap fitted RIJCOSX, COSX-SCS-MP3, EOM     
  Riya Kayal             : Wick's Theorem for AUTO-CI, AUTO-CI UHF-CCSDT 
  Emily Kempfer          : AUTO-CI RHF CISDT and CCSDT, approximate NEVPT4
  Christian Kollmar      : KDIIS, OOCD, Brueckner-CCSD(T), CCSD density, CASPT2, CASPT2-K, improved NEVPT2 
  Axel Koslowski         : Symmetry handling                             
  Simone Kossmann        : meta-GGA functionals, TD-DFT gradient, OOMP2, (MP2 Hessian; deprecated post 5.0) 
  Lucas Lang             : DCDCAS, Hyperfine gauge corrections, ICE-SOC+SSC
  Marvin Lechner         : AUTO-CI (C++ implementation), FIC-MRCC        
  Spencer Leger          : CASSCF response                               
  Dagmar Lenk            : GEPOL surface, SMD, ORCA-2-JSON               
  Dimitrios Liakos       : Extrapolation schemes; Compound Job, Property file
  Dimitrios Manganas     : Further ROCIS development; embedding schemes. LFT, Crystal Embedding 
  Dimitrios Pantazis     : SARC Basis sets                               
  Anastasios Papadopoulos: AUTO-CI, single reference methods and gradients 
  Taras Petrenko         : pre 6.0 DFT Hessian and TD-DFT gradient,  ECA, NRVS 
  Petra Pikulova         : Analytic Raman intensities                    
  Peter Pinski           : DLPNO-MP2, DLPNO-MP2 Gradient                 
  Shashank Vittal Rao    : ES-AILFT, MagRelax                            
  Christoph Reimann      : Effective Core Potentials                     
  Marius Retegan         : Local ZFS, SOC                                
  Christoph Riplinger    : Optimizer, TS searches, QM/MM, DLPNO-CCSD(T), (RO)-DLPNO pert. Triples 
  Michael Roemelt        : Original ROCIS implementation, recursive CI coupling coefficients
  Masaaki Saitow         : Open-shell DLPNO-CCSD energy and density      
  Barbara Sandhoefer     : DKH picture change effects                    
  Yorick L. A. Schmerwitz: GMF and freeze-and-release deltaSCF, NEB S-IDPP initial path                    
  Kantharuban Sivalingam : CASSCF convergence/infrastructure, NEVPT2, NEVPT3, NEVPT4(SD), FIC-MRCI and CEPA variants
  Bernardo de Souza      : ESD, SOC TD-DFT                               
  Georgi L. Stoychev     : AutoAux, RI-MP2 NMR, DLPNO-MP2 response, X2C  
  Van Anh Tran           : RI-MP2 g-tensors                              
  Willem Van den Heuvel  : Paramagnetic NMR                              
  Zikuan Wang            : NOTCH, Electric field optimization            
  Frank Wennmohs         : Technical directorship and infrastructure     
  Hang Xu                : AUTO-CI-Response properties                   
                                                                         
[FACCTs GmbH]                                                            
  Markus Bursch, Nicolas Foglia, Miquel Garcia-Rates, Ingolf Harden, Hagen Neugebauer, Anastasios Papadopoulos, 
  Christoph Riplinger, Bernardo de Souza, Georgi L. Stoychev                                                    
                                                                 
  APM, various basis sets, CI-OPT, improved COSX, DLPNO-Multilevel,           
  DOCKER, DRACO, updates on ESD, Fragmentator, GOAT, IRC, LR-CPCM, L-BFGS, MBIS, meta-GGA TD-DFT gradient, ML-optimized integration grids, 
  MM, NACMEs, nearIR, NEB, NEB-TS, NL-DFT gradient (VV10), 2- and 3-layer-ONIOM, interface openCOSMO-RS, QMMM,   
  Crystal-QMMM, RESP, rigid body optimization, SF, symmetry and pop. for TD-DFT, various functionals, SOLVATOR                                   
                                                                         
[Other institutions]                                                     
  V. Asgeirsson          : NEB                                           
  Christoph Bannwarth    : sTDA-DFT, sTD-DFT, PBEh-3c, B97-3c, D3        
  Giovanni Bistoni       : ETS/NOCV, ADLD/ADEX, COVALED                  
  Martin Brehm           : Molecular dynamics                            
  Ronald Cardenas        : ETS/NOCV                                      
  Martina Colucci        : COVALED                                       
  Sebastian Ehlert       : rSCAN, r2SCAN, r2SCAN-3c, D4, dhf basis sets  
  Marvin Friede          : D4 for Fr, Ra, Ac-Lr                          
  Lars Goerigk           : TD-DFT with DH, B97 family of functionals     
  Stefan Grimme          : VdW corrections, initial TS optimization, DFT functionals, gCP, sTDA/sTD-DF 
  Waldemar Hujo          : DFT-NL                                        
  H. Jonsson             : NEB                                           
  Holger Kruse           : gCP                                           
  Marcel Mueller         : wB97X-3c, vDZP basis set                      
  Hagen Neugebauer       : wr2SCAN, Native XTB                           
  Gianluca Regni         : ADLD/ADEX                                     
  Tobias Risthaus        : pre 6.0 range-separated hybrid DFT and stability analysis
  Lukas Wittmann         : regularized MP2, r2SCAN double-hybrids, wr2SCAN        
                                                                         
We gratefully acknowledge several colleagues who have allowed us to      
interface, adapt or use parts of their codes:                            
  Ed Valeev, F. Pavosevic, A. Kumar             : LibInt (2-el integral package), F12 methods 
  Garnet Chan, S. Sharma, J. Yang, R. Olivares  : DMRG                   
  Ulf Ekstrom                                   : XCFun DFT Library      
  Mihaly Kallay                                 : mrcc  (arbitrary order and MRCC methods)
  Frank Weinhold                                : gennbo (NPA and NBO analysis)           
  Simon Mueller                                 : openCOSMO-RS                            
  Christopher J. Cramer and Donald G. Truhlar   : smd solvation model                     
  S Lehtola, MJT Oliveira, MAL Marques          : LibXC Library                           
  Liviu Ungur et al                             : ANISO software                          


 Your calculation uses the libint2 library for the computation of 2-el integrals
 For citations please refer to: http://libint.valeyev.net

 Your ORCA version has been built with support for libXC version: 7.0.0
 For citations please refer to: https://libxc.gitlab.io

 This ORCA versions uses:
   CBLAS   interface :  Fast vector & matrix operations
   LAPACKE interface :  Fast linear algebra routines
   SCALAPACK package :  Parallel linear algebra routines
   Shared memory     :  Shared parallel matrices
   BLAS/LAPACK       :  OpenBLAS 0.3.29  USE64BITINT DYNAMIC_ARCH NO_AFFINITY Haswell SINGLE_THREADED
        Core in use  :  Haswell
   Copyright (c) 2011-2014, The OpenBLAS Project


  ***********************************
  * Starting time: Sat Aug 16 15:51:41 2025
  * Host name:     CHEMLAB02
  * Process ID:    1906771
  * Working dir.:  /home/vivek/mm-project/vivek/xtb-goat/MP2/a/2
  ***********************************



***************************************
The coordinates will be read from file: /home/vivek/mm-project/vivek/xtb-goat/xtb-goat/a/A_CONF/2.xyz
***************************************


================================================================================

----- Orbital basis set information -----
Your calculation utilizes the basis: 6-31G**
   H-He, Li-Ne : W. J. Hehre, R. Ditchfield and J.A. Pople, J. Chem. Phys. 56, 2257 (1972).
                 Note: He and Ne are unpublished basis sets taken from the Gaussian program.
                 Note: Li and B from J. D. Dill and J. A. Pople, J. Chem. Phys. 62, 2921 (1975).
   Na - Ar     : M. M. Francl, W. J. Pietro, W. J. Hehre, J. S. Binkley, M. S. Gordon, 
                 D. J. DeFrees and J. A. Pople, J. Chem. Phys. 77, 3654 (1982).
   K - Zn      : V. A. Rassolov, J. A. Pople, M. A. Ratner, and T. L. Windus, J. Chem. Phys. 109, 1223 (1998).

================================================================================
                                        WARNINGS
                       Please study these warnings very carefully!
================================================================================


WARNING: No MP2 level density has been requested!
         To calculate MP2 level properties use
         %mp2 Density relaxed end
         or
         %mp2 Density unrelaxed end

WARNING: Post HF methods need fully converged wavefunctions
  ===> : Setting SCFConvForced true
         You can overwrite this default with %scf ConvForced false 


================================================================================
                                       INPUT FILE
================================================================================
NAME = 2.inp
|  1> ! MP2 6-31G** 
|  2> 
|  3> * xyzfile 0 1 /home/vivek/mm-project/vivek/xtb-goat/xtb-goat/a/A_CONF/2.xyz
|  4> 
|  5>                          ****END OF INPUT****
================================================================================

                       ****************************
                       * Single Point Calculation *
                       ****************************

---------------------------------
CARTESIAN COORDINATES (ANGSTROEM)
---------------------------------
  C     -4.455223   -0.010951   -1.940510
  O     -3.525471   -0.487196   -2.533096
  O     -4.392975    1.170321   -1.320650
  C     -5.838102   -0.629036   -1.854975
  H     -3.508081    1.558077   -1.417870
  C     -6.646790   -0.073526   -3.044344
  H     -7.653540   -0.485976   -3.027050
  N     -5.705345   -2.071550   -1.840786
  H     -6.712307    1.009799   -2.986086
  H     -6.168226   -0.349733   -3.982531
  H     -6.309346   -0.308062   -0.918993
  H     -6.579339   -2.514509   -2.100283
  H     -4.990975   -2.353229   -2.505249

----------------------------
CARTESIAN COORDINATES (A.U.)
----------------------------
  NO LB      ZA    FRAG     MASS         X           Y           Z
   0 C     6.0000    0    12.011   -8.419151   -0.020694   -3.667033
   1 O     8.0000    0    15.999   -6.662175   -0.920667   -4.786857
   2 O     8.0000    0    15.999   -8.301520    2.211587   -2.495667
   3 C     6.0000    0    12.011  -11.032414   -1.188706   -3.505395
   4 H     1.0000    0     1.008   -6.629313    2.944338   -2.679387
   5 C     6.0000    0    12.011  -12.560612   -0.138943   -5.752977
   6 H     1.0000    0     1.008  -14.463095   -0.918362   -5.720296
   7 N     7.0000    0    14.007  -10.781540   -3.914663   -3.478581
   8 H     1.0000    0     1.008  -12.684423    1.908243   -5.642884
   9 H     1.0000    0     1.008  -11.656257   -0.660900   -7.525893
  10 H     1.0000    0     1.008  -11.922936   -0.582153   -1.736645
  11 H     1.0000    0     1.008  -12.433149   -4.751733   -3.968959
  12 H     1.0000    0     1.008   -9.431577   -4.446959   -4.734235

--------------------------------
INTERNAL COORDINATES (ANGSTROEM)
--------------------------------
 C      0   0   0     0.000000000000     0.00000000     0.00000000
 O      1   0   0     1.201001728894     0.00000000     0.00000000
 O      1   2   0     1.335479309352   122.93468625     0.00000000
 C      1   2   3     1.517135446652   124.88328887   177.11578839
 H      3   1   2     0.971000851485   110.44022191   359.49599359
 C      4   1   2     1.541806575338   106.72706082   269.73061275
 H      6   4   1     1.088099657666   109.66128615   180.18167783
 N      4   1   2     1.448679511082   108.82575608    33.75944971
 H      6   4   1     1.086866386573   110.45018479   300.00010344
 H      6   4   1     1.088810404699   110.04517696    60.39050933
 H      4   1   2     1.095973859680   108.70899911   152.14294224
 H      8   4   1     1.013615326866   110.70917691   199.32919276
 H      8   4   1     1.015469825864   109.52788062   318.97396167

---------------------------
INTERNAL COORDINATES (A.U.)
---------------------------
 C      0   0   0     0.000000000000     0.00000000     0.00000000
 O      1   0   0     2.269564353975     0.00000000     0.00000000
 O      1   2   0     2.523690152193   122.93468625     0.00000000
 C      1   2   3     2.866970502237   124.88328887   177.11578839
 H      3   1   2     1.834925685110   110.44022191   359.49599359
 C      4   1   2     2.913592178868   106.72706082   269.73061275
 H      6   4   1     2.056210359402   109.66128615   180.18167783
 N      4   1   2     2.737607531768   108.82575608    33.75944971
 H      6   4   1     2.053879814788   110.45018479   300.00010344
 H      6   4   1     2.057553476645   110.04517696    60.39050933
 H      4   1   2     2.071090444732   108.70899911   152.14294224
 H      8   4   1     1.915455372921   110.70917691   199.32919276
 H      8   4   1     1.918959868144   109.52788062   318.97396167

---------------------
BASIS SET INFORMATION
---------------------
There are 4 groups of distinct atoms

 Group   1 Type C   : 10s4p1d contracted to 3s2p1d pattern {631/31/1}
 Group   2 Type O   : 10s4p1d contracted to 3s2p1d pattern {631/31/1}
 Group   3 Type H   : 4s1p contracted to 2s1p pattern {31/1}
 Group   4 Type N   : 10s4p1d contracted to 3s2p1d pattern {631/31/1}

Atom   0C    basis set group =>   1
Atom   1O    basis set group =>   2
Atom   2O    basis set group =>   2
Atom   3C    basis set group =>   1
Atom   4H    basis set group =>   3
Atom   5C    basis set group =>   1
Atom   6H    basis set group =>   3
Atom   7N    basis set group =>   4
Atom   8H    basis set group =>   3
Atom   9H    basis set group =>   3
Atom  10H    basis set group =>   3
Atom  11H    basis set group =>   3
Atom  12H    basis set group =>   3
------------------------------------------------------------------------------
                             ORCA STARTUP CALCULATIONS
------------------------------------------------------------------------------
------------------------------------------------------------------------------
                   ___                                                        
                  /   \      - P O W E R E D   B Y -                         
                 /     \                                                     
                 |  |  |   _    _      __       _____    __    __             
                 |  |  |  | |  | |    /  \     |  _  \  |  |  /  |          
                  \  \/   | |  | |   /    \    | | | |  |  | /  /          
                 / \  \   | |__| |  /  /\  \   | |_| |  |  |/  /          
                |  |  |   |  __  | /  /__\  \  |    /   |      \           
                |  |  |   | |  | | |   __   |  |    \   |  |\   \          
                \     /   | |  | | |  |  |  |  | |\  \  |  | \   \       
                 \___/    |_|  |_| |__|  |__|  |_| \__\ |__|  \__/        
                                                                              
                      - O R C A' S   B I G   F R I E N D -                    
                                      &                                       
                       - I N T E G R A L  F E E D E R -                       
                                                                              
 v1 FN, 2020, v2 2021, v3 2022-2024                                           
------------------------------------------------------------------------------


----------------------
SHARK INTEGRAL PACKAGE
----------------------

Number of atoms                             ...     13
Number of basis functions                   ...    119
Number of shells                            ...     57
Maximum angular momentum                    ...      2
Integral batch strategy                     ... SHARK/LIBINT Hybrid
RI-J (if used) integral strategy            ... SPLIT-RIJ (Revised 2003 algorithm where possible)
Printlevel                                  ...      1
Contraction scheme used                     ... SEGMENTED contraction
Prescreening option                         ... SCHWARTZ
   Thresh                                   ... 1.000e-10
   Tcut                                     ... 1.000e-11
   Tpresel                                  ... 1.000e-11 
Coulomb Range Separation                    ... NOT USED
Exchange Range Separation                   ... NOT USED
Multipole approximations                    ... NOT USED
Finite Nucleus Model                        ... NOT USED
CABS basis                                  ... NOT available
Auxiliary Coulomb fitting basis             ... NOT available
Auxiliary J/K fitting basis                 ... NOT available
Auxiliary Correlation fitting basis         ... NOT available
Auxiliary 'external' fitting basis          ... NOT available

Checking pre-screening integrals            ... done (  0.0 sec) Dimension = 57
   => SHARK Basis and OBASIS are compatible. Storing Pre-screening
Shell pair information
Shell pair cut-off parameter TPreSel        ...   1.0e-11
Total number of shell pairs                 ...      1653
Shell pairs after pre-screening             ...      1585
Total number of primitive shell pairs       ...      8022
Primitive shell pairs kept                  ...      5498
          la=0 lb=0:    502 shell pairs
          la=1 lb=0:    577 shell pairs
          la=1 lb=1:    182 shell pairs
          la=2 lb=0:    190 shell pairs
          la=2 lb=1:    113 shell pairs
          la=2 lb=2:     21 shell pairs

Checking whether 4 symmetric matrices of dimension 119 fit in memory
:Max Core in MB      =   4096.00
 MB in use           =      3.41
 MB left             =   4092.59
 MB needed           =      0.22
 Data fit in memory  = YES
Calculating Nuclear repulsion               ... done (  0.0 sec) ENN=    250.586711460954 Eh

Diagonalization of the overlap matrix:
Smallest eigenvalue                        ... 3.702e-03
Time for diagonalization                   ...    0.001 sec
Threshold for overlap eigenvalues          ... 1.000e-07
Number of eigenvalues below threshold      ... 0
Time for construction of square roots      ...    0.000 sec
Total time needed                          ...    0.001 sec

-------------------
DFT GRID GENERATION
-------------------

General Integration Accuracy     IntAcc      ... 4.388
Radial Grid Type                 RadialGrid  ... OptM3 with GC (2021)
Angular Grid (max. ang.)         AngularGrid ... 4 (Lebedev-302)
Angular grid pruning method      GridPruning ... 4 (adaptive)
Weight generation scheme         WeightScheme... mBecke (2022)
Basis function cutoff            BFCut       ... 1.0000e-10
Integration weight cutoff        WCut        ... 1.0000e-14
Partially contracted basis set               ... off
Rotationally invariant grid construction     ... off
Angular grids for H and He will be reduced by one unit

Total number of grid points                  ...    58941
Total number of batches                      ...      928
Average number of points per batch           ...       63
Average number of grid points per atom       ...     4534
Grids setup in   0.2 sec
Initializing property integral containers    ... done (  0.0 sec)

SHARK setup successfully completed in   0.2 seconds

Maximum memory used throughout the entire STARTUP-calculation: 22.6 MB
-------------------------------------------------------------------------------
                                 ORCA GUESS
                   Start orbitals & Density for SCF / CASSCF
-------------------------------------------------------------------------------

------------
SCF SETTINGS
------------
Hamiltonian:
 Ab initio Hamiltonian  Method          .... Hartree-Fock(GTOs)


General Settings:
 Integral files         IntName         .... 2
 Hartree-Fock type      HFTyp           .... RHF
 Total Charge           Charge          ....    0
 Multiplicity           Mult            ....    1
 Number of Electrons    NEL             ....   48
 Basis Dimension        Dim             ....  119
 Nuclear Repulsion      ENuc            ....    250.5867114610 Eh

Convergence Acceleration:
 AO-DIIS                CNVDIIS         .... on
   Start iteration      DIISMaxIt       ....    12
   Startup error        DIISStart       ....  0.200000
   # of expansion vecs  DIISMaxEq       ....     5
   Bias factor          DIISBfac        ....   1.050
   Max. coefficient     DIISMaxC        ....  10.000
 MO-DIIS                CNVKDIIS        .... off
 Trust-Rad. Augm. Hess. CNVTRAH         .... auto
   Auto Start mean grad. ratio tolernc. ....  1.125000
   Auto Start start iteration           ....    50
   Auto Start num. interpolation iter.  ....    10
   Max. Number of Micro iterations      ....    24
   Max. Number of Macro iterations      .... Maxiter - #DIIS iter
   Number of Davidson start vectors     ....     2
   Converg. threshold    (grad. norm)   ....   5.000e-05
   Grad. Scal. Fac. for Micro threshold ....   0.100
   Minimum threshold for Micro iter.    ....   1.000e-02
   NR start threshold (gradient norm)   ....   1.000e-04
   Initial trust radius                 ....   0.400
   Minimum AH scaling param. (alpha)    ....   1.000
   Maximum AH scaling param. (alpha)    .... 1000.000
   Quad. conv. algorithm                .... NR
   White noise on init. David. guess    .... on
   Maximum white noise                  ....   0.010
   Pseudo random numbers                .... off
   Inactive MOs                         .... canonical
   Orbital update algorithm             .... Taylor
   Preconditioner                       .... Diag
   Full preconditioner red. dimension   ....   250
 SOSCF                 CNVSOSCF           .... on
   Start iteration     SOSCFMaxIt         ....   150
   Startup grad/error  SOSCFStart         ....  0.003300
   Hessian update      SOSCFHessUp        .... L-BFGS
   Autom. constraints  SOSCFAutoConstrain .... off
 Level Shifting         CNVShift        .... on
   Level shift para.    LevelShift      ....    0.2500
   Turn off err/grad.   ShiftErr        ....    0.0010
 Zerner damping         CNVZerner       .... off
 Static damping         CNVDamp         .... on
   Fraction old density DampFac         ....    0.7000
   Max. Damping (<1)    DampMax         ....    0.9800
   Min. Damping (>=0)   DampMin         ....    0.0000
   Turn off err/grad.   DampErr         ....    0.1000

SCF Procedure:
 Maximum # iterations   MaxIter         ....   125
 SCF integral mode      SCFMode         .... Direct
   Integral package                     .... SHARK and LIBINT hybrid scheme
 Reset frequency        DirectResetFreq ....    20
 Integral Threshold     Thresh          ....  1.000e-10 Eh
 Primitive CutOff       TCut            ....  1.000e-11 Eh

Convergence Tolerance:
 Convergence Check Mode ConvCheckMode   .... Total+1el-Energy
 Convergence forced     ConvForced      .... 1
 Energy Change          TolE            ....  1.000e-06 Eh
 1-El. energy change                    ....  1.000e-03 Eh
 Orbital Gradient       TolG            ....  5.000e-05
 Orbital Rotation angle TolX            ....  5.000e-05
 DIIS Error             TolErr          ....  1.000e-06

------------------------------
INITIAL GUESS: MODEL POTENTIAL
------------------------------
Loading Hartree-Fock densities                     ... done
Calculating cut-offs                               ... done
Initializing the effective Hamiltonian             ... done
Setting up the integral package (SHARK)            ... done
Starting the Coulomb interaction                   ... done (   0.0 sec)
Making the grid                                    ... done (   0.0 sec)
Mapping shells                                     ... done
Starting the XC term evaluation                    ... done (   0.0 sec)
Transforming the Hamiltonian                       ... done (   0.0 sec)
Diagonalizing the Hamiltonian                      ... done (   0.0 sec)
Back transforming the eigenvectors                 ... done (   0.0 sec)
Now organizing SCF variables                       ... done
                      ------------------
                      INITIAL GUESS DONE (   0.1 sec)
                      ------------------
             **** ENERGY FILE WAS UPDATED (2.en.tmp) ****
Finished Guess after   0.1 sec
Maximum memory used throughout the entire GUESS-calculation: 7.3 MB

-------------------------------------------------------------------------------------------
                                      ORCA LEAN-SCF
                              memory conserving SCF solver
-------------------------------------------------------------------------------------------

----------------------------------------D-I-I-S--------------------------------------------
Iteration    Energy (Eh)           Delta-E    RMSDP     MaxDP     DIISErr   Damp  Time(sec)
-------------------------------------------------------------------------------------------
               ***  Starting incremental Fock matrix formation  ***
    1    -321.5913482745928604     0.00e+00  3.17e-03  6.81e-02  2.59e-01  0.700   0.5
    2    -321.6969046661324683    -1.06e-01  2.34e-03  4.89e-02  1.62e-01  0.700   0.4
                               ***Turning on AO-DIIS***
    3    -321.7581915262466055    -6.13e-02  1.24e-03  2.17e-02  9.19e-02  0.700   0.4
    4    -321.7966214318194034    -3.84e-02  2.81e-03  4.61e-02  6.20e-02  0.000   0.4
    5    -321.8816293655053187    -8.50e-02  3.50e-04  5.73e-03  5.43e-03  0.000   0.4
                              *** Initializing SOSCF ***
---------------------------------------S-O-S-C-F--------------------------------------
Iteration    Energy (Eh)           Delta-E    RMSDP     MaxDP     MaxGrad    Time(sec)
--------------------------------------------------------------------------------------
    6    -321.8819826663703907    -3.53e-04  1.78e-04  2.25e-03  2.88e-03     0.4
               *** Restarting incremental Fock matrix formation ***
    7    -321.8820666015169536    -8.39e-05  1.11e-04  2.24e-03  1.87e-03     0.5
    8    -321.8820934578895958    -2.69e-05  1.22e-04  1.54e-03  4.74e-04     0.4
    9    -321.8821029777687954    -9.52e-06  2.22e-05  2.47e-04  2.82e-04     0.4
   10    -321.8821037681290136    -7.90e-07  8.52e-06  9.27e-05  7.39e-05     0.4
                 **** Energy Check signals convergence ****

               *****************************************************
               *                     SUCCESS                       *
               *           SCF CONVERGED AFTER  10 CYCLES          *
               *****************************************************

             **** ENERGY FILE WAS UPDATED (2.en.tmp) ****

----------------
TOTAL SCF ENERGY
----------------

Total Energy       :       -321.88210386236381 Eh           -8758.85734 eV

Components:
Nuclear Repulsion  :        250.58671146095401 Eh            6818.81108 eV
Electronic Energy  :       -572.46881532331781 Eh          -15577.66842 eV
One Electron Energy:       -936.52664575263293 Eh          -25484.18562 eV
Two Electron Energy:        364.05783042931512 Eh            9906.51720 eV

Virial components:
Potential Energy   :       -643.34316278026131 Eh          -17506.25746 eV
Kinetic Energy     :        321.46105891789750 Eh            8747.40012 eV
Virial Ratio       :          2.00130978522215

---------------
SCF CONVERGENCE
---------------

  Last Energy change         ...    7.9036e-07  Tolerance :   1.0000e-06
  Last MAX-Density change    ...    9.2746e-05  Tolerance :   1.0000e-05
  Last RMS-Density change    ...    8.5164e-06  Tolerance :   1.0000e-06
  Last DIIS Error            ...    2.8804e-03  Tolerance :   1.0000e-06
  Last Orbital Gradient      ...    7.3922e-05  Tolerance :   5.0000e-05
  Last Orbital Rotation      ...    1.2866e-04  Tolerance :   5.0000e-05


----------------
ORBITAL ENERGIES
----------------

  NO   OCC          E(Eh)            E(eV) 
   0   2.0000     -20.619556      -561.0866 
   1   2.0000     -20.555752      -559.3504 
   2   2.0000     -15.544927      -422.9990 
   3   2.0000     -11.387021      -309.8566 
   4   2.0000     -11.275243      -306.8150 
   5   2.0000     -11.230842      -305.6068 
   6   2.0000      -1.471622       -40.0449 
   7   2.0000      -1.365499       -37.1571 
   8   2.0000      -1.195832       -32.5402 
   9   2.0000      -1.019370       -27.7385 
  10   2.0000      -0.911786       -24.8109 
  11   2.0000      -0.798974       -21.7412 
  12   2.0000      -0.721454       -19.6318 
  13   2.0000      -0.700915       -19.0729 
  14   2.0000      -0.646671       -17.5968 
  15   2.0000      -0.624317       -16.9885 
  16   2.0000      -0.609031       -16.5726 
  17   2.0000      -0.582735       -15.8570 
  18   2.0000      -0.568488       -15.4693 
  19   2.0000      -0.538032       -14.6406 
  20   2.0000      -0.518890       -14.1197 
  21   2.0000      -0.480327       -13.0704 
  22   2.0000      -0.446719       -12.1558 
  23   2.0000      -0.391491       -10.6530 
  24   0.0000       0.185164         5.0386 
  25   0.0000       0.220693         6.0054 
  26   0.0000       0.229458         6.2439 
  27   0.0000       0.285216         7.7611 
  28   0.0000       0.290511         7.9052 
  29   0.0000       0.311662         8.4808 
  30   0.0000       0.318605         8.6697 
  31   0.0000       0.345510         9.4018 
  32   0.0000       0.389061        10.5869 
  33   0.0000       0.410118        11.1599 
  34   0.0000       0.469950        12.7880 
*Only the first 10 virtual orbitals were printed.

                    ********************************
                    * MULLIKEN POPULATION ANALYSIS *
                    ********************************

-----------------------
MULLIKEN ATOMIC CHARGES
-----------------------
   0 C :    0.811306
   1 O :   -0.587422
   2 O :   -0.637361
   3 C :   -0.013385
   4 H :    0.372234
   5 C :   -0.354887
   6 H :    0.123660
   7 N :   -0.699163
   8 H :    0.133420
   9 H :    0.132094
  10 H :    0.158875
  11 H :    0.268037
  12 H :    0.292590
Sum of atomic charges:    0.0000000

--------------------------------
MULLIKEN REDUCED ORBITAL CHARGES
--------------------------------
  0 C s       :     2.940285  s :     2.940285
      pz      :     0.623430  p :     2.100527
      px      :     0.841760
      py      :     0.635337
      dz2     :     0.023727  d :     0.147882
      dxz     :     0.020583
      dyz     :     0.026728
      dx2y2   :     0.045581
      dxy     :     0.031264

  1 O s       :     3.874653  s :     3.874653
      pz      :     1.473631  p :     4.679875
      px      :     1.517747
      py      :     1.688498
      dz2     :     0.007279  d :     0.032893
      dxz     :     0.008804
      dyz     :     0.003052
      dx2y2   :     0.005630
      dxy     :     0.008128

  2 O s       :     3.838610  s :     3.838610
      pz      :     1.772177  p :     4.773111
      px      :     1.546593
      py      :     1.454341
      dz2     :     0.004381  d :     0.025640
      dxz     :     0.001780
      dyz     :     0.006534
      dx2y2   :     0.009245
      dxy     :     0.003700

  3 C s       :     3.200534  s :     3.200534
      pz      :     1.032891  p :     2.742070
      px      :     0.917839
      py      :     0.791340
      dz2     :     0.014437  d :     0.070781
      dxz     :     0.009458
      dyz     :     0.016043
      dx2y2   :     0.017497
      dxy     :     0.013346

  4 H s       :     0.586276  s :     0.586276
      pz      :     0.008151  p :     0.041490
      px      :     0.023381
      py      :     0.009958

  5 C s       :     3.262744  s :     3.262744
      pz      :     0.973047  p :     3.051144
      px      :     1.025363
      py      :     1.052735
      dz2     :     0.011165  d :     0.040998
      dxz     :     0.009099
      dyz     :     0.004066
      dx2y2   :     0.011609
      dxy     :     0.005059

  6 H s       :     0.863587  s :     0.863587
      pz      :     0.001821  p :     0.012753
      px      :     0.008129
      py      :     0.002802

  7 N s       :     3.604120  s :     3.604120
      pz      :     1.694660  p :     4.061447
      px      :     1.235903
      py      :     1.130884
      dz2     :     0.004497  d :     0.033596
      dxz     :     0.009308
      dyz     :     0.003894
      dx2y2   :     0.010249
      dxy     :     0.005648

  8 H s       :     0.853823  s :     0.853823
      pz      :     0.001812  p :     0.012757
      px      :     0.001790
      py      :     0.009156

  9 H s       :     0.855294  s :     0.855294
      pz      :     0.007257  p :     0.012613
      px      :     0.003115
      py      :     0.002240

 10 H s       :     0.829083  s :     0.829083
      pz      :     0.007499  p :     0.012042
      px      :     0.002938
      py      :     0.001605

 11 H s       :     0.705700  s :     0.705700
      pz      :     0.007231  p :     0.026263
      px      :     0.012406
      py      :     0.006626

 12 H s       :     0.680787  s :     0.680787
      pz      :     0.010515  p :     0.026623
      px      :     0.011351
      py      :     0.004757



                     *******************************
                     * LOEWDIN POPULATION ANALYSIS *
                     *******************************

----------------------
LOEWDIN ATOMIC CHARGES
----------------------
   0 C :    0.247693
   1 O :   -0.307441
   2 O :   -0.205144
   3 C :   -0.020341
   4 H :    0.202129
   5 C :   -0.187045
   6 H :    0.068596
   7 N :   -0.285896
   8 H :    0.073193
   9 H :    0.071897
  10 H :    0.077723
  11 H :    0.126707
  12 H :    0.137930

-------------------------------
LOEWDIN REDUCED ORBITAL CHARGES
-------------------------------
  0 C s       :     2.839823  s :     2.839823
      pz      :     0.741603  p :     2.593477
      px      :     1.013433
      py      :     0.838441
      dz2     :     0.046276  d :     0.319006
      dxz     :     0.042919
      dyz     :     0.062255
      dx2y2   :     0.100554
      dxy     :     0.067003

  1 O s       :     3.546000  s :     3.546000
      pz      :     1.472641  p :     4.703858
      px      :     1.563927
      py      :     1.667290
      dz2     :     0.008547  d :     0.057584
      dxz     :     0.016507
      dyz     :     0.006406
      dx2y2   :     0.012233
      dxy     :     0.013891

  2 O s       :     3.457330  s :     3.457330
      pz      :     1.734699  p :     4.699523
      px      :     1.512965
      py      :     1.451860
      dz2     :     0.006905  d :     0.048291
      dxz     :     0.002425
      dyz     :     0.012123
      dx2y2   :     0.016009
      dxy     :     0.010829

  3 C s       :     2.869915  s :     2.869915
      pz      :     1.060972  p :     3.009737
      px      :     1.009138
      py      :     0.939627
      dz2     :     0.027020  d :     0.140689
      dxz     :     0.018579
      dyz     :     0.031909
      dx2y2   :     0.035996
      dxy     :     0.027186

  4 H s       :     0.677776  s :     0.677776
      pz      :     0.025642  p :     0.120096
      px      :     0.065814
      py      :     0.028640

  5 C s       :     2.917488  s :     2.917488
      pz      :     1.048581  p :     3.196706
      px      :     1.064636
      py      :     1.083489
      dz2     :     0.020127  d :     0.072851
      dxz     :     0.016565
      dyz     :     0.007811
      dx2y2   :     0.019493
      dxy     :     0.008854

  6 H s       :     0.891350  s :     0.891350
      pz      :     0.006621  p :     0.040053
      px      :     0.024067
      py      :     0.009365

  7 N s       :     3.182396  s :     3.182396
      pz      :     1.651425  p :     4.043369
      px      :     1.212949
      py      :     1.178995
      dz2     :     0.006257  d :     0.060132
      dxz     :     0.012187
      dyz     :     0.008010
      dx2y2   :     0.019746
      dxy     :     0.013932

  8 H s       :     0.886115  s :     0.886115
      pz      :     0.006509  p :     0.040692
      px      :     0.006842
      py      :     0.027341

  9 H s       :     0.887584  s :     0.887584
      pz      :     0.022403  p :     0.040519
      px      :     0.010284
      py      :     0.007832

 10 H s       :     0.882874  s :     0.882874
      pz      :     0.022639  p :     0.039402
      px      :     0.010381
      py      :     0.006383

 11 H s       :     0.791632  s :     0.791632
      pz      :     0.024266  p :     0.081662
      px      :     0.037521
      py      :     0.019875

 12 H s       :     0.778047  s :     0.778047
      pz      :     0.035691  p :     0.084023
      px      :     0.033132
      py      :     0.015200



                      *****************************
                      * MAYER POPULATION ANALYSIS *
                      *****************************

  NA   - Mulliken gross atomic population
  ZA   - Total nuclear charge
  QA   - Mulliken gross atomic charge
  VA   - Mayer's total valence
  BVA  - Mayer's bonded valence
  FA   - Mayer's free valence

  ATOM       NA         ZA         QA         VA         BVA        FA
  0 C      5.1887     6.0000     0.8113     3.6861     3.6861     0.0000
  1 O      8.5874     8.0000    -0.5874     1.8948     1.8948     0.0000
  2 O      8.6374     8.0000    -0.6374     1.8370     1.8370     0.0000
  3 C      6.0134     6.0000    -0.0134     3.7594     3.7594    -0.0000
  4 H      0.6278     1.0000     0.3722     0.8717     0.8717    -0.0000
  5 C      6.3549     6.0000    -0.3549     3.8238     3.8238    -0.0000
  6 H      0.8763     1.0000     0.1237     0.9544     0.9544    -0.0000
  7 N      7.6992     7.0000    -0.6992     2.7406     2.7406    -0.0000
  8 H      0.8666     1.0000     0.1334     0.9500     0.9500     0.0000
  9 H      0.8679     1.0000     0.1321     0.9528     0.9528    -0.0000
 10 H      0.8411     1.0000     0.1589     0.9373     0.9373     0.0000
 11 H      0.7320     1.0000     0.2680     0.9085     0.9085    -0.0000
 12 H      0.7074     1.0000     0.2926     0.9040     0.9040    -0.0000

  Mayer bond orders larger than 0.100000
B(  0-C ,  1-O ) :   1.8196 B(  0-C ,  2-O ) :   0.9796 B(  0-C ,  3-C ) :   0.9290 
B(  2-O ,  4-H ) :   0.8404 B(  3-C ,  5-C ) :   0.9536 B(  3-C ,  7-N ) :   0.9707 
B(  3-C , 10-H ) :   0.9584 B(  5-C ,  6-H ) :   0.9734 B(  5-C ,  8-H ) :   0.9627 
B(  5-C ,  9-H ) :   0.9666 B(  7-N , 11-H ) :   0.9119 B(  7-N , 12-H ) :   0.8869 


-------
TIMINGS
-------

Total SCF time: 0 days 0 hours 0 min 4 sec 

Total time                  ....       4.554 sec
Sum of individual times     ....       4.204 sec  ( 92.3%)

SCF preparation             ....       0.013 sec  (  0.3%)
Fock matrix formation       ....       4.172 sec  ( 91.6%)
  Startup                   ....       0.000 sec  (  0.0% of F)
  Coulomb+Exchange Fock     ....       4.515 sec  (108.2% of F)
Diagonalization             ....       0.000 sec  (  0.0%)
Density matrix formation    ....       0.001 sec  (  0.0%)
Total Energy calculation    ....       0.000 sec  (  0.0%)
Population analysis         ....       0.001 sec  (  0.0%)
Orbital Transformation      ....       0.002 sec  (  0.0%)
Orbital Orthonormalization  ....       0.000 sec  (  0.0%)
DIIS solution               ....       0.009 sec  (  0.2%)
SOSCF solution              ....       0.004 sec  (  0.1%)
Finished LeanSCF after   4.6 sec

Maximum memory used throughout the entire LEANSCF-calculation: 10.5 MB

------------------------------------------------------------------------------
                                ORCA  MP2 
------------------------------------------------------------------------------

Freezing NCore=12 chemical core electrons

----------
MP2 ENERGY (disk based algorithm)
----------

Dimension of the basis                      ...  119
Memory devoted to MP2                       ... 4096 MB   
Data format for buffers                     ... DOUBLE
Compression type for matrix containers      ... UNCOMPRESSED

-------------------------
SHARK HALF TRANSFORMATION (Exchange order)
-------------------------

Number of basis functions                   ...    119
Number of operators                         ...      1
   Operator  0:    6-  23 (p-index in (p*|q*))
   Operator  0:    6-  23 (q-index in (p*|q*)
Integral generator used                     ... SHARK
Contraction scheme used                     ... SEGMENTED CONTRACTION
MaxCore in resort                           ...   4096 MB

Half transformed integrals for op=   0      ... 2.SHARK_MNPQ0.tmp
Resorted half transformed integrals         ... 2.KAO_aa.tmp

Half trafo (segmented) done. Total time =  2.5 sec. integrals=  2.3 sec trafo=  0.1 sec

----------------------
SHARK INTEGRAL SORTING (Exchange)
----------------------

Input container                             ... 2.SHARK_MNPQ0.tmp
Output container                            ... 2.KAO_aa.tmp
Range of AO-indices                         ...    0 -  118
Range of bra indices i                      ...    6 -   23
Range of ket indices j                      ...    6 -   23
Symmetric i,j range                         ... YES
Number of (i,j) pairs generated             ...  171
Max Core memory in MB                       ...   4096

Available core memory in MB                 ...   4091.01
MB needed for one item                      ...      0.11
Fixed MB needed                             ...      0.00
Number of items                             ...       171
Number of batches                           ...         1
Items treated per batch                     ...       171
Batch   0                                   ...      0-   170 (   171)
   => Closing output file and leaving
done (  0.0 sec)

SHARK half integral transformation done. Total time =  2.5 sec.


Finished integral transformation - now doing MP2 part

OPERATOR COMBINATION   0   0: ij=(  6.. 23,  6.. 23)
  Internal MO   8
  Internal MO  11
  Internal MO  14
  Internal MO  17
  Internal MO  20
  Internal MO  23
-----------------------------------------------
 MP2 CORRELATION ENERGY   :     -0.934479008 Eh
-----------------------------------------------


-------
TIMINGS
-------
Total time                :    2.506 sec
Integral trafo            :    2.487 sec ( 99.2%)
K(i,j)                    :    0.015 sec (  0.6%)
T(i,j)                    :    0.001 sec (  0.0%)

---------------------------------------
MP2 TOTAL ENERGY:     -322.816582871 Eh
---------------------------------------

Maximum memory used throughout the entire MP2-calculation: 29.8 MB

-------------------------   --------------------
FINAL SINGLE POINT ENERGY      -322.816582870519
-------------------------   --------------------


------------------------------------------------------------------------------
                              ORCA PROPERTY CALCULATIONS
------------------------------------------------------------------------------

GBWName                                 ... 2.gbw
Number of atoms                         ...     13
Number of basis functions               ...    119
Max core memory                         ...   4096 MB

Electric properties:
Dipole moment                           ... YES
Quadrupole moment                       ...  NO
Static polarizability (Dipole/Dipole)   ...  NO
Static polarizability (Dipole/Quad.)    ...  NO
Static polarizability (Quad./Quad.)     ...  NO
Static polarizability (Velocity)        ...  NO
Static hyperpolarizability              ...  NO

Atomic electric properties:
Dipole moment                           ...  NO
Quadrupole moment                       ...  NO
Static polarizability                   ...  NO

Choice of electric origin               ... Center of mass
Position of electric origin             ...    -9.594069    -0.639030    -3.959290

General magnetic properties:
Magnetizability                         ...  NO

EPR properties:
g-Tensor (aka g-matrix)                 ...  NO
Zero-Field splitting spin-orbit         ...  NO
Zero-field splitting spin-spin          ...  NO
Hyperfine couplings                     ...  NO (   0 nuclei)
Quadrupole couplings                    ...  NO (   0 nuclei)
Contact density                         ...  NO (   0 nuclei)

NMR properties:
Chemical shifts                         ...  NO (   0 nuclei)
Spin-rotation constants                 ...  NO (   0 nuclei)
Spin-spin couplings                     ...  NO (   0 nuclei,    0 pairs)

Choice of magnetic origin               ... GIAO
Position of magnetic origin             ...     0.000000     0.000000     0.000000

Properties with geometric perturbations:
SCF Hessian                             ...  NO
IR spectrum                             ...  NO
VCD spectrum                            ...  NO
X-ray spectroscopy properties:
SCF XES/XAS/RIXS spectra                ...  NO

SCF SOC stabilization energy            ...  NO
Diagonal Born-Oppenheimer correction    ...  NO

-------------
DIPOLE MOMENT
-------------

Method             : SCF
Type of density    : Electron Density
Multiplicity       :   1
Irrep              :   0
Energy             :  -321.8821038623638060 Eh
Basis              : AO
                                X                 Y                 Z
Electronic contribution:      5.303263757       1.514297640       1.893589137
Nuclear contribution   :     -5.958852016      -0.999397370      -2.125063407
                        -----------------------------------------
Total Dipole Moment    :     -0.655588259       0.514900270      -0.231474270
                        -----------------------------------------
Magnitude (a.u.)       :      0.865158130
Magnitude (Debye)      :      2.199057206



--------------------
Rotational spectrum 
--------------------
 
Rotational constants in cm-1:             0.171267             0.099975             0.080206 
Rotational constants in MHz :          5134.455701          2997.165251          2404.506105 

Dipole components along the rotational axes: 
x,y,z [a.u.] :    -0.228635    -0.821476    -0.146292 
x,y,z [Debye]:    -0.581144    -2.088026    -0.371846 

 

Dipole moment calculation done in   0.0 sec 

Maximum memory used throughout the entire PROP-calculation: 5.1 MB

--------------------------------
SUGGESTED CITATIONS FOR THIS RUN
--------------------------------

Below you find a list of papers that are relevant to this ORCA run
We neither can nor want to force you to cite these papers, but we appreciate if you do
You receive ORCA, which is the product of decades of hard work by many enthusiastic individuals, for free
The only thing we kindly ask in return is that you cite our papers,
We deeply appreciate it, if you show your appreciation for ORCA by not just citing the generic ORCA reference.

Please note that relegating all ORCA citations to the supporting information does *not* help us.
SI sections are not indexed - citations you put there will not count into any citation statistics
But we need these citations in order to attract the funding resources that allow us to do what we are doing

Therefore, if you are a happy ORCA user, please consider citing a few of the papers listed below in the main body of your paper

In addition to the list printed below, the program has created the file 2.bibtex that contains the list in bibtex format
You can import this file easily into all common literature databanks and citation aid programs


List of essential papers. We consider these as the minimum necessary citations

  1. Neese, F.
     Software update: the ORCA program system, version 6.0
     WIRES Comput. Molec. Sci. 2025 15(1), e70019
     doi.org/10.1002/wcms.7019

List of papers to cite with high priority. The work reported in these papers was absolutely
necessary for this run to complete.
Our perspective: the developers of density functionals and basis sets usually get cited in chemistry papers
Good! But without the algorithms to do something with them, the functionals or basis sets would not do anything.
Hence, in our opinion, the algorithm design and method developments papers are equally worthy of getting cited

  1. Neese, F.
     The SHARK Integral Generation and Digestion System
     J. Comp. Chem. 2022 44(3), 381
     doi.org/10.1002/jcc.26942

List of suggested additional citations. These are papers that are important in the 'surrounding' of 
of this run, or papers that preceded the highly important papers. If you like your results we are grateful for a citation.

  1. Neese, F.
     The ORCA program system
     WIRES Comput. Molec. Sci. 2012 2(1), 73-78
     doi.org/10.1002/wcms.81
  2. Neese, F.
     Software update: the ORCA program system, version 4.0
     WIRES Comput. Molec. Sci. 2018 8(1), 1-6
     doi.org/10.1002/wcms.1327
  3. Neese, F.; Wennmohs, F.; Becker, U.; Riplinger, C.
     The ORCA quantum chemistry program package
     J. Chem. Phys. 2020 152(22), 224108
     doi.org/10.1063/5.0004608
  4. Neese, F.
     Software update: The ORCA program system—Version 5.0
     WIRES Comput. Molec. Sci. 2022 12(1), e1606
     doi.org/10.1002/wcms.1606

List of optional additional citations

  1. Neese, F.
     Approximate second-order SCF convergence for spin unrestricted wavefunctions
     Chem. Phys. Lett. 2000 325(1-3), 93-98
     doi.org/10.1016/s0009-2614(00)00662-x

Timings for individual modules:

Sum of individual times          ...        7.464 sec (=   0.124 min)
Startup calculation              ...        0.237 sec (=   0.004 min)   3.2 %
SCF iterations                   ...        4.677 sec (=   0.078 min)  62.7 %
Property calculations            ...        0.021 sec (=   0.000 min)   0.3 %
MP2 module                       ...        2.529 sec (=   0.042 min)  33.9 %
                             ****ORCA TERMINATED NORMALLY****
TOTAL RUN TIME: 0 days 0 hours 0 minutes 7 seconds 500 msec
