
                                 *****************
                                 * O   R   C   A *
                                 *****************

                                            #,                                       
                                            ###                                      
                                            ####                                     
                                            #####                                    
                                            ######                                   
                                           ########,                                 
                                     ,,################,,,,,                         
                               ,,#################################,,                 
                          ,,##########################################,,             
                       ,#########################################, ''#####,          
                    ,#############################################,,   '####,        
                  ,##################################################,,,,####,       
                ,###########''''           ''''###############################       
              ,#####''   ,,,,##########,,,,          '''####'''          '####       
            ,##' ,,,,###########################,,,                        '##       
           ' ,,###''''                  '''############,,,                           
         ,,##''                                '''############,,,,        ,,,,,,###''
      ,#''                                            '''#######################'''  
     '                                                          ''''####''''         
             ,#######,   #######,   ,#######,      ##                                
            ,#'     '#,  ##    ##  ,#'     '#,    #''#        ,####,    ,#,          
            ##       ##  ##   ,#'  ##            #'  '#       #'       ,# #          
            ##       ##  #######   ##           ,######,      #####,      #          
            '#,     ,#'  ##    ##  '#,     ,#' ,#      #,     #,   #      #          
             '#######'   ##     ##  '#######'  #'      '#     '####' #    #          



                #########################################################
                #                        -***-                          #
                #          Department of theory and spectroscopy        #
                #                                                       #
                #                      Frank Neese                      #
                #                                                       #
                #     Directorship, Architecture, Infrastructure        #
                #                    SHARK, DRIVERS                     #
                #        Core code/Algorithms in most modules           #
                #                                                       #
                #        Max Planck Institute fuer Kohlenforschung      #
                #                Kaiser Wilhelm Platz 1                 #
                #                 D-45470 Muelheim/Ruhr                 #
                #                      Germany                          #
                #                                                       #
                #                  All rights reserved                  #
                #                        -***-                          #
                #########################################################


                         Program Version 6.1.0  -  RELEASE   -
                                (GIT: $679e74b$)
                          ($2025-06-10 18:02:51 +0200$)


 With contributions from (in alphabetic order):
[Max-Planck-Institut fuer Kohlenforschung]                               
  Daniel Aravena         : Magnetic Suceptibility                        
  Michael Atanasov       : Ab Initio Ligand Field Theory (pilot matlab implementation)
  Alexander A. Auer      : GIAO ZORA, VPT2 properties, NMR spectrum      
  Ute Becker             : All parallelization in ORCA, NUMFREQ, NUMCALC 
  Giovanni Bistoni       : ED, misc. LED, open-shell LED, HFLD           
  Dmytro Bykov           : pre 5.0 version of the SCF Hessian            
  Marcos Casanova-Páez   : Triplet and SCS-CIS(D). UHF-(DLPNO)-IP/EA/STEOM-CCSD. UHF-CVS-IP/STEOM-CCSD   
  Vijay G. Chilkuri      : MRCI spin determinant printing, contributions to CSF-ICE 
  Pauline Colinet        : FMM embedding                                 
  Dipayan Datta          : RHF DLPNO-CCSD density                        
  Achintya Kumar Dutta   : EOM-CC, STEOM-CC                              
  Nicolas Foglia         : Exact transition moments, OPA infrastructure, MCD improvements    
  Dmitry Ganyushin       : Spin-Orbit,Spin-Spin,Magnetic field MRCI      
  Miquel Garcia-Rates    : C-PCM and meta-GGA Hessian, CCSD/C-PCM, Gaussian charge scheme 
  Tiago L. C. Gouveia    : GS-ROHF, GS-ROCIS                             
  Yang Guo               : DLPNO-NEVPT2, F12-NEVPT2, CIM, IAO-localization        
  Andreas Hansen         : Spin unrestricted coupled pair/coupled cluster methods 
  Ingolf Harden          : AUTO-CI MPn and infrastructure                
  Benjamin Helmich-Paris : MC-RPA, TRAH-(SCF,CASSCF), AVAS, COSX integrals, SCF dyn. polar., MC-PDFT, srDFT 
  Lee Huntington         : MR-EOM, pCC                                   
  Robert Izsak           : Overlap fitted RIJCOSX, COSX-SCS-MP3, EOM     
  Riya Kayal             : Wick's Theorem for AUTO-CI, AUTO-CI UHF-CCSDT 
  Emily Kempfer          : AUTO-CI RHF CISDT and CCSDT, approximate NEVPT4
  Christian Kollmar      : KDIIS, OOCD, Brueckner-CCSD(T), CCSD density, CASPT2, CASPT2-K, improved NEVPT2 
  Axel Koslowski         : Symmetry handling                             
  Simone Kossmann        : meta-GGA functionals, TD-DFT gradient, OOMP2, (MP2 Hessian; deprecated post 5.0) 
  Lucas Lang             : DCDCAS, Hyperfine gauge corrections, ICE-SOC+SSC
  Marvin Lechner         : AUTO-CI (C++ implementation), FIC-MRCC        
  Spencer Leger          : CASSCF response                               
  Dagmar Lenk            : GEPOL surface, SMD, ORCA-2-JSON               
  Dimitrios Liakos       : Extrapolation schemes; Compound Job, Property file
  Dimitrios Manganas     : Further ROCIS development; embedding schemes. LFT, Crystal Embedding 
  Dimitrios Pantazis     : SARC Basis sets                               
  Anastasios Papadopoulos: AUTO-CI, single reference methods and gradients 
  Taras Petrenko         : pre 6.0 DFT Hessian and TD-DFT gradient,  ECA, NRVS 
  Petra Pikulova         : Analytic Raman intensities                    
  Peter Pinski           : DLPNO-MP2, DLPNO-MP2 Gradient                 
  Shashank Vittal Rao    : ES-AILFT, MagRelax                            
  Christoph Reimann      : Effective Core Potentials                     
  Marius Retegan         : Local ZFS, SOC                                
  Christoph Riplinger    : Optimizer, TS searches, QM/MM, DLPNO-CCSD(T), (RO)-DLPNO pert. Triples 
  Michael Roemelt        : Original ROCIS implementation, recursive CI coupling coefficients
  Masaaki Saitow         : Open-shell DLPNO-CCSD energy and density      
  Barbara Sandhoefer     : DKH picture change effects                    
  Yorick L. A. Schmerwitz: GMF and freeze-and-release deltaSCF, NEB S-IDPP initial path                    
  Kantharuban Sivalingam : CASSCF convergence/infrastructure, NEVPT2, NEVPT3, NEVPT4(SD), FIC-MRCI and CEPA variants
  Bernardo de Souza      : ESD, SOC TD-DFT                               
  Georgi L. Stoychev     : AutoAux, RI-MP2 NMR, DLPNO-MP2 response, X2C  
  Van Anh Tran           : RI-MP2 g-tensors                              
  Willem Van den Heuvel  : Paramagnetic NMR                              
  Zikuan Wang            : NOTCH, Electric field optimization            
  Frank Wennmohs         : Technical directorship and infrastructure     
  Hang Xu                : AUTO-CI-Response properties                   
                                                                         
[FACCTs GmbH]                                                            
  Markus Bursch, Nicolas Foglia, Miquel Garcia-Rates, Ingolf Harden, Hagen Neugebauer, Anastasios Papadopoulos, 
  Christoph Riplinger, Bernardo de Souza, Georgi L. Stoychev                                                    
                                                                 
  APM, various basis sets, CI-OPT, improved COSX, DLPNO-Multilevel,           
  DOCKER, DRACO, updates on ESD, Fragmentator, GOAT, IRC, LR-CPCM, L-BFGS, MBIS, meta-GGA TD-DFT gradient, ML-optimized integration grids, 
  MM, NACMEs, nearIR, NEB, NEB-TS, NL-DFT gradient (VV10), 2- and 3-layer-ONIOM, interface openCOSMO-RS, QMMM,   
  Crystal-QMMM, RESP, rigid body optimization, SF, symmetry and pop. for TD-DFT, various functionals, SOLVATOR                                   
                                                                         
[Other institutions]                                                     
  V. Asgeirsson          : NEB                                           
  Christoph Bannwarth    : sTDA-DFT, sTD-DFT, PBEh-3c, B97-3c, D3        
  Giovanni Bistoni       : ETS/NOCV, ADLD/ADEX, COVALED                  
  Martin Brehm           : Molecular dynamics                            
  Ronald Cardenas        : ETS/NOCV                                      
  Martina Colucci        : COVALED                                       
  Sebastian Ehlert       : rSCAN, r2SCAN, r2SCAN-3c, D4, dhf basis sets  
  Marvin Friede          : D4 for Fr, Ra, Ac-Lr                          
  Lars Goerigk           : TD-DFT with DH, B97 family of functionals     
  Stefan Grimme          : VdW corrections, initial TS optimization, DFT functionals, gCP, sTDA/sTD-DF 
  Waldemar Hujo          : DFT-NL                                        
  H. Jonsson             : NEB                                           
  Holger Kruse           : gCP                                           
  Marcel Mueller         : wB97X-3c, vDZP basis set                      
  Hagen Neugebauer       : wr2SCAN, Native XTB                           
  Gianluca Regni         : ADLD/ADEX                                     
  Tobias Risthaus        : pre 6.0 range-separated hybrid DFT and stability analysis
  Lukas Wittmann         : regularized MP2, r2SCAN double-hybrids, wr2SCAN        
                                                                         
We gratefully acknowledge several colleagues who have allowed us to      
interface, adapt or use parts of their codes:                            
  Ed Valeev, F. Pavosevic, A. Kumar             : LibInt (2-el integral package), F12 methods 
  Garnet Chan, S. Sharma, J. Yang, R. Olivares  : DMRG                   
  Ulf Ekstrom                                   : XCFun DFT Library      
  Mihaly Kallay                                 : mrcc  (arbitrary order and MRCC methods)
  Frank Weinhold                                : gennbo (NPA and NBO analysis)           
  Simon Mueller                                 : openCOSMO-RS                            
  Christopher J. Cramer and Donald G. Truhlar   : smd solvation model                     
  S Lehtola, MJT Oliveira, MAL Marques          : LibXC Library                           
  Liviu Ungur et al                             : ANISO software                          


 Your calculation uses the libint2 library for the computation of 2-el integrals
 For citations please refer to: http://libint.valeyev.net

 Your ORCA version has been built with support for libXC version: 7.0.0
 For citations please refer to: https://libxc.gitlab.io

 This ORCA versions uses:
   CBLAS   interface :  Fast vector & matrix operations
   LAPACKE interface :  Fast linear algebra routines
   SCALAPACK package :  Parallel linear algebra routines
   Shared memory     :  Shared parallel matrices
   BLAS/LAPACK       :  OpenBLAS 0.3.29  USE64BITINT DYNAMIC_ARCH NO_AFFINITY Haswell SINGLE_THREADED
        Core in use  :  Haswell
   Copyright (c) 2011-2014, The OpenBLAS Project


  ***********************************
  * Starting time: Sun Aug 31 18:32:41 2025
  * Host name:     chemlab03
  * Process ID:    94600
  * Working dir.:  /home/vivek/mm-project/vivek/xtb-goat/MP2-opt/e/5
  ***********************************



***************************************
The coordinates will be read from file: /home/vivek/mm-project/vivek/xtb-goat/xtb-goat/e/E_CONF/5.xyz
***************************************


================================================================================

----- Orbital basis set information -----
Your calculation utilizes the basis: 6-31G**
   H-He, Li-Ne : W. J. Hehre, R. Ditchfield and J.A. Pople, J. Chem. Phys. 56, 2257 (1972).
                 Note: He and Ne are unpublished basis sets taken from the Gaussian program.
                 Note: Li and B from J. D. Dill and J. A. Pople, J. Chem. Phys. 62, 2921 (1975).
   Na - Ar     : M. M. Francl, W. J. Pietro, W. J. Hehre, J. S. Binkley, M. S. Gordon, 
                 D. J. DeFrees and J. A. Pople, J. Chem. Phys. 77, 3654 (1982).
   K - Zn      : V. A. Rassolov, J. A. Pople, M. A. Ratner, and T. L. Windus, J. Chem. Phys. 109, 1223 (1998).

================================================================================
                                        WARNINGS
                       Please study these warnings very carefully!
================================================================================


WARNING: The frozen-core approximation for MP2-gradient calculations is turned on by default.

WARNING: Geometry Optimization
  ===> : Switching off AutoStart
         For restart on a previous wavefunction, please use MOREAD

WARNING: Post HF methods need fully converged wavefunctions
  ===> : Setting SCFConvForced true
         You can overwrite this default with %scf ConvForced false 


================================================================================
                                       INPUT FILE
================================================================================
NAME = 5.inp
|  1> ! MP2 6-31G** opt
|  2> 
|  3> * xyzfile 0 1 /home/vivek/mm-project/vivek/xtb-goat/xtb-goat/e/E_CONF/5.xyz
|  4> 
|  5>                          ****END OF INPUT****
================================================================================

                       *****************************
                       * Geometry Optimization Run *
                       *****************************

Geometry optimization settings:
Update method            Update   .... BFGS
Choice of coordinates    CoordSys .... (2022) Redundant Internals
Initial Hessian          InHess   .... Almloef's Model
Max. no of cycles        MaxIter  .... 57

Convergence Tolerances:
Energy Change            TolE     ....  5.0000e-06 Eh
Max. Gradient            TolMAXG  ....  3.0000e-04 Eh/bohr
RMS Gradient             TolRMSG  ....  1.0000e-04 Eh/bohr
Max. Displacement        TolMAXD  ....  4.0000e-03 bohr
RMS Displacement         TolRMSD  ....  2.0000e-03 bohr
Strict Convergence                .... False

------------------------------------------------------------------------------
                        ORCA OPTIMIZATION COORDINATE SETUP
------------------------------------------------------------------------------

The optimization will be done in redundant internal coordinates (2022)
Making redundant internal coordinates   ...  (2022 redundants) done
Evaluating the initial hessian          ...  (Almloef) done
Evaluating the coordinates              ...  done
Calculating the B-matrix                .... done
Calculating the G-matrix                .... done
The number of degrees of freedom        ....   78

    -----------------------------------------------------------------
                    Redundant Internal Coordinates


    -----------------------------------------------------------------
         Definition                    Initial Value    Approx d2E/dq
    -----------------------------------------------------------------
      1. B(C   1,C   0)                  1.5055         0.408787   
      2. B(O   4,C   0)                  1.3412         0.669477   
      3. B(C   5,C   1)                  1.5249         0.380672   
      4. B(H   6,C   1)                  1.0922         0.357165   
      5. B(H   7,C   1)                  1.0908         0.359006   
      6. B(C   8,C   5)                  1.5388         0.361750   
      7. B(H   9,C   5)                  1.0916         0.358032   
      8. B(H  10,C   5)                  1.0900         0.360156   
      9. B(C  11,C   8)                  1.5237         0.382282   
     10. B(O  12,C  11)                  1.2037         1.109346   
     11. B(N  13,C   8)                  1.4507         0.447751   
     12. B(N  13,H   3)                  1.0166         0.422316   
     13. B(N  13,H   2)                  1.0142         0.426159   
     14. B(H  14,O   4)                  0.9702         0.500885   
     15. B(O  15,C  11)                  1.3340         0.687477   
     16. B(H  16,C   8)                  1.0945         0.354177   
     17. B(O  17,C   0)                  1.2010         1.120366   
     18. B(H  18,O  15)                  0.9709         0.499500   
     19. A(O   4,C   0,O  17)          122.2133         0.483852   
     20. A(C   1,C   0,O  17)          126.5746         0.445067   
     21. A(C   1,C   0,O   4)          111.2120         0.405896   
     22. A(C   0,C   1,H   6)          107.6867         0.328721   
     23. A(C   0,C   1,H   7)          107.8362         0.329000   
     24. A(C   5,C   1,H   7)          111.1532         0.325161   
     25. A(H   6,C   1,H   7)          107.9935         0.290327   
     26. A(C   0,C   1,C   5)          112.7946         0.370197   
     27. A(C   5,C   1,H   6)          109.2077         0.324886   
     28. A(C   0,O   4,H  14)          110.3893         0.372635   
     29. A(C   8,C   5,H  10)          108.6541         0.322620   
     30. A(C   1,C   5,H  10)          110.1606         0.325332   
     31. A(C   8,C   5,H   9)          109.0134         0.322308   
     32. A(H   9,C   5,H  10)          109.1554         0.290584   
     33. A(C   1,C   5,H   9)          109.2065         0.325015   
     34. A(C   1,C   5,C   8)          110.6230         0.362524   
     35. A(C   5,C   8,C  11)          108.9701         0.362786   
     36. A(N  13,C   8,H  16)          109.2702         0.331238   
     37. A(C  11,C   8,H  16)          108.2106         0.324663   
     38. A(C   5,C   8,H  16)          108.1332         0.321737   
     39. A(C  11,C   8,N  13)          112.2285         0.373962   
     40. A(C   5,C   8,N  13)          109.9283         0.370424   
     41. A(C   8,C  11,O  12)          124.0733         0.438922   
     42. A(O  12,C  11,O  15)          122.9698         0.485342   
     43. A(C   8,C  11,O  15)          112.9556         0.403005   
     44. A(H   3,N  13,C   8)          109.1928         0.338142   
     45. A(H   2,N  13,C   8)          110.2007         0.338653   
     46. A(H   2,N  13,H   3)          106.7195         0.301347   
     47. A(C  11,O  15,H  18)          110.6773         0.374165   
     48. D(C   5,C   1,C   0,O  17)     -4.0918         0.012379   
     49. D(H   6,C   1,C   0,O  17)    116.4777         0.012379   
     50. D(H   6,C   1,C   0,O   4)    -63.6378         0.012379   
     51. D(H   7,C   1,C   0,O   4)     52.6711         0.012379   
     52. D(C   5,C   1,C   0,O   4)    175.7927         0.012379   
     53. D(H  14,O   4,C   0,O  17)     -0.7887         0.033290   
     54. D(H  14,O   4,C   0,C   1)    179.3209         0.033290   
     55. D(H   9,C   5,C   1,H   7)    -45.8000         0.011547   
     56. D(H   9,C   5,C   1,H   6)     73.2489         0.011547   
     57. D(H   9,C   5,C   1,C   0)   -167.0558         0.011547   
     58. D(C   8,C   5,C   1,H   7)   -165.7811         0.011547   
     59. D(C   8,C   5,C   1,H   6)    -46.7322         0.011547   
     60. D(C   8,C   5,C   1,C   0)     72.9631         0.011547   
     61. D(C  11,C   8,C   5,H   9)     60.6902         0.010492   
     62. D(C  11,C   8,C   5,C   1)   -179.2130         0.010492   
     63. D(N  13,C   8,C   5,H  10)    178.4561         0.010492   
     64. D(N  13,C   8,C   5,H   9)    -62.6860         0.010492   
     65. D(N  13,C   8,C   5,C   1)     57.4108         0.010492   
     66. D(C  11,C   8,C   5,H  10)    -58.1678         0.010492   
     67. D(O  15,C  11,C   8,N  13)   -172.4521         0.010897   
     68. D(O  15,C  11,C   8,C   5)     65.5536         0.010897   
     69. D(O  12,C  11,C   8,H  16)    128.6107         0.010897   
     70. D(O  12,C  11,C   8,N  13)      7.9624         0.010897   
     71. D(O  12,C  11,C   8,C   5)   -114.0318         0.010897   
     72. D(H   3,N  13,C   8,C  11)    -50.7251         0.017100   
     73. D(H   3,N  13,C   8,C   5)     70.7218         0.017100   
     74. D(H   2,N  13,C   8,H  16)    -53.8446         0.017100   
     75. D(H   2,N  13,C   8,C  11)     66.1895         0.017100   
     76. D(H   2,N  13,C   8,C   5)   -172.3636         0.017100   
     77. D(H  18,O  15,C  11,O  12)     -0.1386         0.035273   
     78. D(H  18,O  15,C  11,C   8)   -179.7293         0.035273   
    -----------------------------------------------------------------

Number of atoms                         .... 19
Number of degrees of freedom            .... 78


         *************************************************************
         *                GEOMETRY OPTIMIZATION CYCLE   1            *
         *************************************************************
---------------------------------
CARTESIAN COORDINATES (ANGSTROEM)
---------------------------------
  C     -2.790376   -0.076330   -1.320696
  C     -2.869699    0.518281    0.060108
  H     -0.175107    3.171680   -0.045886
  H     -0.912335    2.885846    1.378901
  O     -3.954189    0.056632   -1.973898
  C     -1.598513    0.296727    0.872665
  H     -3.043405    1.590970   -0.050007
  H     -3.737193    0.086084    0.560674
  C     -0.461380    1.195380    0.355828
  H     -1.794617    0.537760    1.919072
  H     -1.281827   -0.743573    0.798555
  C      0.792871    0.930059    1.179361
  O      1.302775    1.738531    1.911019
  N     -0.868147    2.586897    0.408237
  H     -3.886577   -0.320601   -2.865166
  O      1.271806   -0.304074    1.014959
  H     -0.253669    0.918629   -0.682549
  O     -1.835750   -0.611125   -1.815835
  H      2.066358   -0.438450    1.556555

----------------------------
CARTESIAN COORDINATES (A.U.)
----------------------------
  NO LB      ZA    FRAG     MASS         X           Y           Z
   0 C     6.0000    0    12.011   -5.273047   -0.144243   -2.495753
   1 C     6.0000    0    12.011   -5.422946    0.979409    0.113587
   2 H     1.0000    0     1.008   -0.330905    5.993606   -0.086713
   3 H     1.0000    0     1.008   -1.724063    5.453458    2.605745
   4 O     8.0000    0    15.999   -7.472335    0.107018   -3.730127
   5 C     6.0000    0    12.011   -3.020752    0.560733    1.649099
   6 H     1.0000    0     1.008   -5.751201    3.006498   -0.094499
   7 H     1.0000    0     1.008   -7.062271    0.162676    1.059520
   8 C     6.0000    0    12.011   -0.871882    2.258941    0.672418
   9 H     1.0000    0     1.008   -3.391334    1.016220    3.626520
  10 H     1.0000    0     1.008   -2.422303   -1.405149    1.509050
  11 C     6.0000    0    12.011    1.498308    1.757558    2.228670
  12 O     8.0000    0    15.999    2.461887    3.285348    3.611302
  13 N     7.0000    0    14.007   -1.640560    4.888526    0.771457
  14 H     1.0000    0     1.008   -7.344565   -0.605849   -5.414378
  15 O     8.0000    0    15.999    2.403365   -0.574616    1.917994
  16 H     1.0000    0     1.008   -0.479365    1.735958   -1.289831
  17 O     8.0000    0    15.999   -3.469065   -1.154859   -3.431432
  18 H     1.0000    0     1.008    3.904850   -0.828550    2.941463

--------------------------------
INTERNAL COORDINATES (ANGSTROEM)
--------------------------------
 C      0   0   0     0.000000000000     0.00000000     0.00000000
 C      1   0   0     1.505480608177     0.00000000     0.00000000
 H      2   1   0     3.783197820740   102.34448005     0.00000000
 H      3   2   1     1.629486016839    61.98061181   186.42983743
 O      1   2   3     1.341198338028   111.21197946   239.84189919
 C      2   1   3     1.524877177455   112.79462150   295.95084364
 H      2   1   3     1.092227598350   107.68667421    56.52028328
 H      2   1   3     1.090827918420   107.83619976   172.82916574
 C      6   2   1     1.538755368011   110.62300583    72.96310054
 H      6   2   1     1.091567543510   109.20652949   192.94418079
 H      6   2   1     1.089957391283   110.16056878   312.81545341
 C      9   6   2     1.523728152254   108.97013839   180.78701085
 O     12   9   6     1.203724044647   124.07331912   245.96818280
 N      3   2   1     1.014151649181    25.35133226   189.80016377
 H      5   1   2     0.970171863900   110.38931769   179.32094949
 O     12   9   6     1.333975868206   112.95555592    65.55364184
 H      9   6   2     1.094514621524   108.13316391   298.19361520
 O      1   2   3     1.201033238812   126.57457110    59.95737839
 H     16  12   9     0.970925469162   110.67728796   180.27066152

---------------------------
INTERNAL COORDINATES (A.U.)
---------------------------
 C      0   0   0     0.000000000000     0.00000000     0.00000000
 C      1   0   0     2.844946049384     0.00000000     0.00000000
 H      2   1   0     7.149207791646   102.34448005     0.00000000
 H      3   2   1     3.079282310879    61.98061181   186.42983743
 O      1   2   3     2.534497550144   111.21197946   239.84189919
 C      2   1   3     2.881600253257   112.79462150   295.95084364
 H      2   1   3     2.064011036792   107.68667421    56.52028328
 H      2   1   3     2.061366025050   107.83619976   172.82916574
 C      6   2   1     2.907826232642   110.62300583    72.96310054
 H      6   2   1     2.062763713911   109.20652949   192.94418079
 H      6   2   1     2.059720967168   110.16056878   312.81545341
 C      9   6   2     2.879428910306   108.97013839   180.78701085
 O     12   9   6     2.274708785198   124.07331912   245.96818280
 N      3   2   1     1.916468875217    25.35133226   189.80016377
 H      5   1   2     1.833359125608   110.38931769   179.32094949
 O     12   9   6     2.520849060170   112.95555592    65.55364184
 H      9   6   2     2.068332884252   108.13316391   298.19361520
 O      1   2   3     2.269623899091   126.57457110    59.95737839
 H     16  12   9     1.834783233165   110.67728796   180.27066152

---------------------
BASIS SET INFORMATION
---------------------
There are 4 groups of distinct atoms

 Group   1 Type C   : 10s4p1d contracted to 3s2p1d pattern {631/31/1}
 Group   2 Type H   : 4s1p contracted to 2s1p pattern {31/1}
 Group   3 Type O   : 10s4p1d contracted to 3s2p1d pattern {631/31/1}
 Group   4 Type N   : 10s4p1d contracted to 3s2p1d pattern {631/31/1}

Atom   0C    basis set group =>   1
Atom   1C    basis set group =>   1
Atom   2H    basis set group =>   2
Atom   3H    basis set group =>   2
Atom   4O    basis set group =>   3
Atom   5C    basis set group =>   1
Atom   6H    basis set group =>   2
Atom   7H    basis set group =>   2
Atom   8C    basis set group =>   1
Atom   9H    basis set group =>   2
Atom  10H    basis set group =>   2
Atom  11C    basis set group =>   1
Atom  12O    basis set group =>   3
Atom  13N    basis set group =>   4
Atom  14H    basis set group =>   2
Atom  15O    basis set group =>   3
Atom  16H    basis set group =>   2
Atom  17O    basis set group =>   3
Atom  18H    basis set group =>   2
------------------------------------------------------------------------------
                             ORCA STARTUP CALCULATIONS
------------------------------------------------------------------------------
------------------------------------------------------------------------------
                   ___                                                        
                  /   \      - P O W E R E D   B Y -                         
                 /     \                                                     
                 |  |  |   _    _      __       _____    __    __             
                 |  |  |  | |  | |    /  \     |  _  \  |  |  /  |          
                  \  \/   | |  | |   /    \    | | | |  |  | /  /          
                 / \  \   | |__| |  /  /\  \   | |_| |  |  |/  /          
                |  |  |   |  __  | /  /__\  \  |    /   |      \           
                |  |  |   | |  | | |   __   |  |    \   |  |\   \          
                \     /   | |  | | |  |  |  |  | |\  \  |  | \   \       
                 \___/    |_|  |_| |__|  |__|  |_| \__\ |__|  \__/        
                                                                              
                      - O R C A' S   B I G   F R I E N D -                    
                                      &                                       
                       - I N T E G R A L  F E E D E R -                       
                                                                              
 v1 FN, 2020, v2 2021, v3 2022-2024                                           
------------------------------------------------------------------------------


----------------------
SHARK INTEGRAL PACKAGE
----------------------

Number of atoms                             ...     19
Number of basis functions                   ...    185
Number of shells                            ...     87
Maximum angular momentum                    ...      2
Integral batch strategy                     ... SHARK/LIBINT Hybrid
RI-J (if used) integral strategy            ... SPLIT-RIJ (Revised 2003 algorithm where possible)
Printlevel                                  ...      1
Contraction scheme used                     ... SEGMENTED contraction
Prescreening option                         ... SCHWARTZ
   Thresh                                   ... 2.500e-11
   Tcut                                     ... 2.500e-12
   Tpresel                                  ... 2.500e-12 
Coulomb Range Separation                    ... NOT USED
Exchange Range Separation                   ... NOT USED
Multipole approximations                    ... NOT USED
Finite Nucleus Model                        ... NOT USED
CABS basis                                  ... NOT available
Auxiliary Coulomb fitting basis             ... NOT available
Auxiliary J/K fitting basis                 ... NOT available
Auxiliary Correlation fitting basis         ... NOT available
Auxiliary 'external' fitting basis          ... NOT available

Checking pre-screening integrals            ... done (  0.0 sec) Dimension = 87
   => SHARK Basis and OBASIS are compatible. Storing Pre-screening
Shell pair information
Shell pair cut-off parameter TPreSel        ...   2.5e-12
Total number of shell pairs                 ...      3828
Shell pairs after pre-screening             ...      3349
Total number of primitive shell pairs       ...     19347
Primitive shell pairs kept                  ...     10982
          la=0 lb=0:   1023 shell pairs
          la=1 lb=0:   1218 shell pairs
          la=1 lb=1:    390 shell pairs
          la=2 lb=0:    414 shell pairs
          la=2 lb=1:    254 shell pairs
          la=2 lb=2:     50 shell pairs

Checking whether 4 symmetric matrices of dimension 185 fit in memory
:Max Core in MB      =   4096.00
 MB in use           =      5.78
 MB left             =   4090.22
 MB needed           =      0.53
 Data fit in memory  = YES
Calculating Nuclear repulsion               ... done (  0.0 sec) ENN=    553.069067134702 Eh

Diagonalization of the overlap matrix:
Smallest eigenvalue                        ... 2.724e-03
Time for diagonalization                   ...    0.002 sec
Threshold for overlap eigenvalues          ... 1.000e-07
Number of eigenvalues below threshold      ... 0
Time for construction of square roots      ...    0.001 sec
Total time needed                          ...    0.003 sec

-------------------
DFT GRID GENERATION
-------------------

General Integration Accuracy     IntAcc      ... 4.388
Radial Grid Type                 RadialGrid  ... OptM3 with GC (2021)
Angular Grid (max. ang.)         AngularGrid ... 4 (Lebedev-302)
Angular grid pruning method      GridPruning ... 4 (adaptive)
Weight generation scheme         WeightScheme... mBecke (2022)
Basis function cutoff            BFCut       ... 1.0000e-11
Integration weight cutoff        WCut        ... 1.0000e-14
Partially contracted basis set               ... off
Rotationally invariant grid construction     ... off
Angular grids for H and He will be reduced by one unit

Total number of grid points                  ...    89217
Total number of batches                      ...     1404
Average number of points per batch           ...       63
Average number of grid points per atom       ...     4696
Grids setup in   0.4 sec
Initializing property integral containers    ... done (  0.0 sec)

SHARK setup successfully completed in   0.4 seconds

Maximum memory used throughout the entire STARTUP-calculation: 35.2 MB
-------------------------------------------------------------------------------
                                 ORCA GUESS
                   Start orbitals & Density for SCF / CASSCF
-------------------------------------------------------------------------------

------------
SCF SETTINGS
------------
Hamiltonian:
 Ab initio Hamiltonian  Method          .... Hartree-Fock(GTOs)


General Settings:
 Integral files         IntName         .... 5
 Hartree-Fock type      HFTyp           .... RHF
 Total Charge           Charge          ....    0
 Multiplicity           Mult            ....    1
 Number of Electrons    NEL             ....   78
 Basis Dimension        Dim             ....  185
 Nuclear Repulsion      ENuc            ....    553.0690671347 Eh

Convergence Acceleration:
 AO-DIIS                CNVDIIS         .... on
   Start iteration      DIISMaxIt       ....    12
   Startup error        DIISStart       ....  0.200000
   # of expansion vecs  DIISMaxEq       ....     5
   Bias factor          DIISBfac        ....   1.050
   Max. coefficient     DIISMaxC        ....  10.000
 MO-DIIS                CNVKDIIS        .... off
 Trust-Rad. Augm. Hess. CNVTRAH         .... auto
   Auto Start mean grad. ratio tolernc. ....  1.125000
   Auto Start start iteration           ....    50
   Auto Start num. interpolation iter.  ....    10
   Max. Number of Micro iterations      ....    24
   Max. Number of Macro iterations      .... Maxiter - #DIIS iter
   Number of Davidson start vectors     ....     2
   Converg. threshold    (grad. norm)   ....   1.000e-05
   Grad. Scal. Fac. for Micro threshold ....   0.100
   Minimum threshold for Micro iter.    ....   1.000e-02
   NR start threshold (gradient norm)   ....   1.000e-04
   Initial trust radius                 ....   0.400
   Minimum AH scaling param. (alpha)    ....   1.000
   Maximum AH scaling param. (alpha)    .... 1000.000
   Quad. conv. algorithm                .... NR
   White noise on init. David. guess    .... on
   Maximum white noise                  ....   0.010
   Pseudo random numbers                .... off
   Inactive MOs                         .... canonical
   Orbital update algorithm             .... Taylor
   Preconditioner                       .... Diag
   Full preconditioner red. dimension   ....   250
 SOSCF                 CNVSOSCF           .... on
   Start iteration     SOSCFMaxIt         ....   150
   Startup grad/error  SOSCFStart         ....  0.003300
   Hessian update      SOSCFHessUp        .... L-BFGS
   Autom. constraints  SOSCFAutoConstrain .... off
 Level Shifting         CNVShift        .... on
   Level shift para.    LevelShift      ....    0.2500
   Turn off err/grad.   ShiftErr        ....    0.0010
 Zerner damping         CNVZerner       .... off
 Static damping         CNVDamp         .... on
   Fraction old density DampFac         ....    0.7000
   Max. Damping (<1)    DampMax         ....    0.9800
   Min. Damping (>=0)   DampMin         ....    0.0000
   Turn off err/grad.   DampErr         ....    0.1000

SCF Procedure:
 Maximum # iterations   MaxIter         ....   125
 SCF integral mode      SCFMode         .... Direct
   Integral package                     .... SHARK and LIBINT hybrid scheme
 Reset frequency        DirectResetFreq ....    20
 Integral Threshold     Thresh          ....  2.500e-11 Eh
 Primitive CutOff       TCut            ....  2.500e-12 Eh

Convergence Tolerance:
 Convergence Check Mode ConvCheckMode   .... Total+1el-Energy
 Convergence forced     ConvForced      .... 1
 Energy Change          TolE            ....  1.000e-08 Eh
 1-El. energy change                    ....  1.000e-05 Eh
 Orbital Gradient       TolG            ....  1.000e-05
 Orbital Rotation angle TolX            ....  1.000e-05
 DIIS Error             TolErr          ....  5.000e-07

------------------------------
INITIAL GUESS: MODEL POTENTIAL
------------------------------
Loading Hartree-Fock densities                     ... done
Calculating cut-offs                               ... done
Initializing the effective Hamiltonian             ... done
Setting up the integral package (SHARK)            ... done
Starting the Coulomb interaction                   ... done (   0.1 sec)
Making the grid                                    ... done (   0.1 sec)
Mapping shells                                     ... done
Starting the XC term evaluation                    ... done (   0.0 sec)
Transforming the Hamiltonian                       ... done (   0.0 sec)
Diagonalizing the Hamiltonian                      ... done (   0.0 sec)
Back transforming the eigenvectors                 ... done (   0.0 sec)
Now organizing SCF variables                       ... done
                      ------------------
                      INITIAL GUESS DONE (   0.2 sec)
                      ------------------
             **** ENERGY FILE WAS UPDATED (5.en.tmp) ****
Finished Guess after   0.2 sec
Maximum memory used throughout the entire GUESS-calculation: 11.0 MB

-------------------------------------------------------------------------------------------
                                      ORCA LEAN-SCF
                              memory conserving SCF solver
-------------------------------------------------------------------------------------------

----------------------------------------D-I-I-S--------------------------------------------
Iteration    Energy (Eh)           Delta-E    RMSDP     MaxDP     DIISErr   Damp  Time(sec)
-------------------------------------------------------------------------------------------
               ***  Starting incremental Fock matrix formation  ***
    1    -548.1178037164559100     0.00e+00  2.54e-03  6.49e-02  2.54e-01  0.700   1.7
    2    -548.2720026248673548    -1.54e-01  1.86e-03  4.63e-02  1.58e-01  0.700   1.6
                               ***Turning on AO-DIIS***
    3    -548.3609572696432224    -8.90e-02  9.94e-04  2.13e-02  8.94e-02  0.700   1.6
    4    -548.4169975635593346    -5.60e-02  2.28e-03  4.46e-02  6.01e-02  0.000   1.6
    5    -548.5422876650800390    -1.25e-01  3.03e-04  5.87e-03  5.80e-03  0.000   1.7
                              *** Initializing SOSCF ***
---------------------------------------S-O-S-C-F--------------------------------------
Iteration    Energy (Eh)           Delta-E    RMSDP     MaxDP     MaxGrad    Time(sec)
--------------------------------------------------------------------------------------
    6    -548.5429240094917986    -6.36e-04  1.51e-04  2.23e-03  2.84e-03     1.5
               *** Restarting incremental Fock matrix formation ***
    7    -548.5430755810400569    -1.52e-04  9.31e-05  2.19e-03  1.73e-03     1.7
    8    -548.5431244763180985    -4.89e-05  1.09e-04  1.81e-03  4.56e-04     1.4
    9    -548.5431417110464736    -1.72e-05  2.02e-05  3.20e-04  2.56e-04     1.5
   10    -548.5431433706658026    -1.66e-06  6.18e-06  9.58e-05  5.87e-05     1.3
   11    -548.5431435161794980    -1.46e-07  2.90e-06  5.79e-05  1.70e-05     1.2
   12    -548.5431435370655890    -2.09e-08  6.30e-07  1.89e-05  8.76e-06     1.2
   13    -548.5431435396953930    -2.63e-09  1.55e-07  3.43e-06  1.13e-06     1.0
                 **** Energy Check signals convergence ****

               *****************************************************
               *                     SUCCESS                       *
               *           SCF CONVERGED AFTER  13 CYCLES          *
               *****************************************************

             **** ENERGY FILE WAS UPDATED (5.en.tmp) ****

----------------
TOTAL SCF ENERGY
----------------

Total Energy       :       -548.54314354111534 Eh          -14926.61779 eV

Components:
Nuclear Repulsion  :        553.06906713470198 Eh           15049.77443 eV
Electronic Energy  :      -1101.61221067581732 Eh          -29976.39222 eV
One Electron Energy:      -1849.83172437996768 Eh          -50336.48028 eV
Two Electron Energy:        748.21951370415036 Eh           20360.08805 eV

Virial components:
Potential Energy   :      -1096.33685479097176 Eh          -29832.84249 eV
Kinetic Energy     :        547.79371124985653 Eh           14906.22470 eV
Virial Ratio       :          2.00136809217753

---------------
SCF CONVERGENCE
---------------

  Last Energy change         ...    2.6298e-09  Tolerance :   1.0000e-08
  Last MAX-Density change    ...    3.4332e-06  Tolerance :   1.0000e-07
  Last RMS-Density change    ...    1.5537e-07  Tolerance :   5.0000e-09
  Last DIIS Error            ...    2.8381e-03  Tolerance :   5.0000e-07
  Last Orbital Gradient      ...    1.1311e-06  Tolerance :   1.0000e-05
  Last Orbital Rotation      ...    1.5350e-06  Tolerance :   1.0000e-05


----------------
ORBITAL ENERGIES
----------------

  NO   OCC          E(Eh)            E(eV) 
   0   2.0000     -20.617423      -561.0286 
   1   2.0000     -20.613169      -560.9129 
   2   2.0000     -20.553923      -559.3007 
   3   2.0000     -20.553487      -559.2888 
   4   2.0000     -15.550591      -423.1531 
   5   2.0000     -11.386987      -309.8557 
   6   2.0000     -11.382083      -309.7222 
   7   2.0000     -11.272152      -306.7308 
   8   2.0000     -11.241387      -305.8937 
   9   2.0000     -11.238713      -305.8209 
  10   2.0000      -1.469022       -39.9741 
  11   2.0000      -1.466532       -39.9064 
  12   2.0000      -1.362236       -37.0683 
  13   2.0000      -1.361503       -37.0484 
  14   2.0000      -1.201070       -32.6828 
  15   2.0000      -1.074036       -29.2260 
  16   2.0000      -0.984599       -26.7923 
  17   2.0000      -0.894319       -24.3356 
  18   2.0000      -0.812676       -22.1140 
  19   2.0000      -0.788720       -21.4622 
  20   2.0000      -0.712656       -19.3924 
  21   2.0000      -0.702132       -19.1060 
  22   2.0000      -0.699091       -19.0232 
  23   2.0000      -0.689143       -18.7525 
  24   2.0000      -0.677141       -18.4259 
  25   2.0000      -0.642836       -17.4924 
  26   2.0000      -0.626495       -17.0478 
  27   2.0000      -0.603272       -16.4159 
  28   2.0000      -0.593920       -16.1614 
  29   2.0000      -0.570237       -15.5169 
  30   2.0000      -0.559722       -15.2308 
  31   2.0000      -0.529657       -14.4127 
  32   2.0000      -0.513766       -13.9803 
  33   2.0000      -0.498510       -13.5651 
  34   2.0000      -0.479307       -13.0426 
  35   2.0000      -0.473399       -12.8818 
  36   2.0000      -0.452210       -12.3052 
  37   2.0000      -0.442928       -12.0527 
  38   2.0000      -0.405302       -11.0288 
  39   0.0000       0.186827         5.0838 
  40   0.0000       0.187805         5.1104 
  41   0.0000       0.220845         6.0095 
  42   0.0000       0.227912         6.2018 
  43   0.0000       0.231430         6.2975 
  44   0.0000       0.264148         7.1878 
  45   0.0000       0.288148         7.8409 
  46   0.0000       0.305222         8.3055 
  47   0.0000       0.331889         9.0311 
  48   0.0000       0.336909         9.1678 
  49   0.0000       0.339791         9.2462 
*Only the first 10 virtual orbitals were printed.

                    ********************************
                    * MULLIKEN POPULATION ANALYSIS *
                    ********************************

-----------------------
MULLIKEN ATOMIC CHARGES
-----------------------
   0 C :    0.802622
   1 C :   -0.327289
   2 H :    0.281604
   3 H :    0.280993
   4 O :   -0.639983
   5 C :   -0.234231
   6 H :    0.202748
   7 H :    0.161224
   8 C :   -0.050504
   9 H :    0.126510
  10 H :    0.168508
  11 C :    0.780303
  12 O :   -0.588576
  13 N :   -0.686546
  14 H :    0.369806
  15 O :   -0.628583
  16 H :    0.194260
  17 O :   -0.585634
  18 H :    0.372767
Sum of atomic charges:   -0.0000000

--------------------------------
MULLIKEN REDUCED ORBITAL CHARGES
--------------------------------
  0 C s       :     2.940310  s :     2.940310
      pz      :     0.816611  p :     2.108869
      px      :     0.626217
      py      :     0.666041
      dz2     :     0.028470  d :     0.148200
      dxz     :     0.041827
      dyz     :     0.016937
      dx2y2   :     0.033814
      dxy     :     0.027152

  1 C s       :     3.264905  s :     3.264905
      pz      :     0.901856  p :     3.016337
      px      :     1.000630
      py      :     1.113852
      dz2     :     0.011784  d :     0.046047
      dxz     :     0.009555
      dyz     :     0.007117
      dx2y2   :     0.011266
      dxy     :     0.006325

  2 H s       :     0.692309  s :     0.692309
      pz      :     0.007506  p :     0.026087
      px      :     0.010638
      py      :     0.007943

  3 H s       :     0.693042  s :     0.693042
      pz      :     0.014796  p :     0.025965
      px      :     0.006570
      py      :     0.004599

  4 O s       :     3.838117  s :     3.838117
      pz      :     1.397916  p :     4.776416
      px      :     1.578957
      py      :     1.799544
      dz2     :     0.005129  d :     0.025449
      dxz     :     0.005666
      dyz     :     0.003669
      dx2y2   :     0.006710
      dxy     :     0.004276

  5 C s       :     3.239915  s :     3.239915
      pz      :     1.011441  p :     2.946475
      px      :     0.900926
      py      :     1.034108
      dz2     :     0.013313  d :     0.047841
      dxz     :     0.009959
      dyz     :     0.003707
      dx2y2   :     0.010564
      dxy     :     0.010298

  6 H s       :     0.783740  s :     0.783740
      pz      :     0.001758  p :     0.013512
      px      :     0.001839
      py      :     0.009916

  7 H s       :     0.825898  s :     0.825898
      pz      :     0.003345  p :     0.012878
      px      :     0.006537
      py      :     0.002996

  8 C s       :     3.212022  s :     3.212022
      pz      :     1.074635  p :     2.768719
      px      :     0.902304
      py      :     0.791780
      dz2     :     0.013116  d :     0.069763
      dxz     :     0.012510
      dyz     :     0.009755
      dx2y2   :     0.017705
      dxy     :     0.016677

  9 H s       :     0.861065  s :     0.861065
      pz      :     0.008515  p :     0.012425
      px      :     0.001861
      py      :     0.002049

 10 H s       :     0.818795  s :     0.818795
      pz      :     0.001671  p :     0.012697
      px      :     0.002366
      py      :     0.008660

 11 C s       :     2.947108  s :     2.947108
      pz      :     0.716290  p :     2.126123
      px      :     0.783716
      py      :     0.626116
      dz2     :     0.024981  d :     0.146467
      dxz     :     0.020323
      dyz     :     0.027690
      dx2y2   :     0.041357
      dxy     :     0.032115

 12 O s       :     3.871539  s :     3.871539
      pz      :     1.456668  p :     4.684421
      px      :     1.633558
      py      :     1.594195
      dz2     :     0.008995  d :     0.032616
      dxz     :     0.003880
      dyz     :     0.007881
      dx2y2   :     0.004608
      dxy     :     0.007252

 13 N s       :     3.601225  s :     3.601225
      pz      :     1.312601  p :     4.051135
      px      :     1.641025
      py      :     1.097509
      dz2     :     0.011484  d :     0.034187
      dxz     :     0.002523
      dyz     :     0.004802
      dx2y2   :     0.005077
      dxy     :     0.010301

 14 H s       :     0.588654  s :     0.588654
      pz      :     0.023859  p :     0.041539
      px      :     0.006306
      py      :     0.011374

 15 O s       :     3.835975  s :     3.835975
      pz      :     1.741107  p :     4.767083
      px      :     1.521609
      py      :     1.504367
      dz2     :     0.002970  d :     0.025525
      dxz     :     0.005749
      dyz     :     0.004240
      dx2y2   :     0.009050
      dxy     :     0.003516

 16 H s       :     0.793011  s :     0.793011
      pz      :     0.009080  p :     0.012729
      px      :     0.001798
      py      :     0.001852

 17 O s       :     3.874881  s :     3.874881
      pz      :     1.708547  p :     4.678119
      px      :     1.505194
      py      :     1.464378
      dz2     :     0.004304  d :     0.032634
      dxz     :     0.007801
      dyz     :     0.002943
      dx2y2   :     0.008667
      dxy     :     0.008919

 18 H s       :     0.585665  s :     0.585665
      pz      :     0.013987  p :     0.041568
      px      :     0.020825
      py      :     0.006756



                     *******************************
                     * LOEWDIN POPULATION ANALYSIS *
                     *******************************

----------------------
LOEWDIN ATOMIC CHARGES
----------------------
   0 C :    0.248341
   1 C :   -0.139154
   2 H :    0.134079
   3 H :    0.133851
   4 O :   -0.212702
   5 C :   -0.102122
   6 H :    0.106490
   7 H :    0.089167
   8 C :   -0.029224
   9 H :    0.067205
  10 H :    0.084065
  11 C :    0.227733
  12 O :   -0.313978
  13 N :   -0.277673
  14 H :    0.199355
  15 O :   -0.203019
  16 H :    0.095198
  17 O :   -0.309713
  18 H :    0.202099

-------------------------------
LOEWDIN REDUCED ORBITAL CHARGES
-------------------------------
  0 C s       :     2.838430  s :     2.838430
      pz      :     0.949809  p :     2.593918
      px      :     0.899765
      py      :     0.744344
      dz2     :     0.061161  d :     0.319311
      dxz     :     0.089939
      dyz     :     0.035111
      dx2y2   :     0.074893
      dxy     :     0.058207

  1 C s       :     2.892331  s :     2.892331
      pz      :     1.008364  p :     3.159638
      px      :     1.053881
      py      :     1.097393
      dz2     :     0.023449  d :     0.087184
      dxz     :     0.019172
      dyz     :     0.014200
      dx2y2   :     0.019604
      dxy     :     0.010760

  2 H s       :     0.784053  s :     0.784053
      pz      :     0.022278  p :     0.081868
      px      :     0.035510
      py      :     0.024080

  3 H s       :     0.784372  s :     0.784372
      pz      :     0.045350  p :     0.081777
      px      :     0.021749
      py      :     0.014679

  4 O s       :     3.460144  s :     3.460144
      pz      :     1.373737  p :     4.705118
      px      :     1.577977
      py      :     1.753404
      dz2     :     0.011665  d :     0.047440
      dxz     :     0.012828
      dyz     :     0.006275
      dx2y2   :     0.010791
      dxy     :     0.005880

  5 C s       :     2.889443  s :     2.889443
      pz      :     1.052732  p :     3.122276
      px      :     1.002276
      py      :     1.067268
      dz2     :     0.023589  d :     0.090404
      dxz     :     0.020037
      dyz     :     0.006477
      dx2y2   :     0.020015
      dxy     :     0.020286

  6 H s       :     0.849511  s :     0.849511
      pz      :     0.006608  p :     0.043999
      px      :     0.007372
      py      :     0.030019

  7 H s       :     0.869607  s :     0.869607
      pz      :     0.010836  p :     0.041225
      px      :     0.020030
      py      :     0.010360

  8 C s       :     2.869498  s :     2.869498
      pz      :     1.072067  p :     3.020151
      px      :     1.004121
      py      :     0.943964
      dz2     :     0.023790  d :     0.139574
      dxz     :     0.025154
      dyz     :     0.018530
      dx2y2   :     0.036579
      dxy     :     0.035521

  9 H s       :     0.892928  s :     0.892928
      pz      :     0.024919  p :     0.039866
      px      :     0.007210
      py      :     0.007737

 10 H s       :     0.874358  s :     0.874358
      pz      :     0.006605  p :     0.041577
      px      :     0.008401
      py      :     0.026571

 11 C s       :     2.847074  s :     2.847074
      pz      :     0.830290  p :     2.607273
      px      :     0.897580
      py      :     0.879403
      dz2     :     0.049824  d :     0.317919
      dxz     :     0.042910
      dyz     :     0.062902
      dx2y2   :     0.094756
      dxy     :     0.067527

 12 O s       :     3.548337  s :     3.548337
      pz      :     1.475618  p :     4.708547
      px      :     1.622294
      py      :     1.610636
      dz2     :     0.010251  d :     0.057094
      dxz     :     0.009163
      dyz     :     0.016503
      dx2y2   :     0.008899
      dxy     :     0.012277

 13 N s       :     3.187241  s :     3.187241
      pz      :     1.287774  p :     4.029695
      px      :     1.599360
      py      :     1.142561
      dz2     :     0.017447  d :     0.060737
      dxz     :     0.003555
      dyz     :     0.011987
      dx2y2   :     0.010294
      dxy     :     0.017454

 14 H s       :     0.680235  s :     0.680235
      pz      :     0.065369  p :     0.120409
      px      :     0.020727
      py      :     0.034313

 15 O s       :     3.455362  s :     3.455362
      pz      :     1.699569  p :     4.699249
      px      :     1.487524
      py      :     1.512155
      dz2     :     0.005152  d :     0.048409
      dxz     :     0.009071
      dyz     :     0.007345
      dx2y2   :     0.016324
      dxy     :     0.010517

 16 H s       :     0.862744  s :     0.862744
      pz      :     0.027818  p :     0.042057
      px      :     0.007142
      py      :     0.007098

 17 O s       :     3.546293  s :     3.546293
      pz      :     1.695690  p :     4.706311
      px      :     1.550627
      py      :     1.459993
      dz2     :     0.007353  d :     0.057109
      dxz     :     0.015235
      dyz     :     0.005926
      dx2y2   :     0.012866
      dxy     :     0.015729

 18 H s       :     0.677636  s :     0.677636
      pz      :     0.041396  p :     0.120264
      px      :     0.057889
      py      :     0.020979



                      *****************************
                      * MAYER POPULATION ANALYSIS *
                      *****************************

  NA   - Mulliken gross atomic population
  ZA   - Total nuclear charge
  QA   - Mulliken gross atomic charge
  VA   - Mayer's total valence
  BVA  - Mayer's bonded valence
  FA   - Mayer's free valence

  ATOM       NA         ZA         QA         VA         BVA        FA
  0 C      5.1974     6.0000     0.8026     3.7242     3.7242    -0.0000
  1 C      6.3273     6.0000    -0.3273     3.7403     3.7403     0.0000
  2 H      0.7184     1.0000     0.2816     0.9026     0.9026    -0.0000
  3 H      0.7190     1.0000     0.2810     0.9069     0.9069     0.0000
  4 O      8.6400     8.0000    -0.6400     1.8297     1.8297    -0.0000
  5 C      6.2342     6.0000    -0.2342     3.7713     3.7713     0.0000
  6 H      0.7973     1.0000     0.2027     0.9426     0.9426     0.0000
  7 H      0.8388     1.0000     0.1612     0.9455     0.9455     0.0000
  8 C      6.0505     6.0000    -0.0505     3.7252     3.7252    -0.0000
  9 H      0.8735     1.0000     0.1265     0.9506     0.9506    -0.0000
 10 H      0.8315     1.0000     0.1685     0.9459     0.9459     0.0000
 11 C      5.2197     6.0000     0.7803     3.7163     3.7163    -0.0000
 12 O      8.5886     8.0000    -0.5886     1.8984     1.8984    -0.0000
 13 N      7.6865     7.0000    -0.6865     2.7654     2.7654     0.0000
 14 H      0.6302     1.0000     0.3698     0.8737     0.8737    -0.0000
 15 O      8.6286     8.0000    -0.6286     1.8282     1.8282    -0.0000
 16 H      0.8057     1.0000     0.1943     0.9407     0.9407    -0.0000
 17 O      8.5856     8.0000    -0.5856     1.8884     1.8884    -0.0000
 18 H      0.6272     1.0000     0.3728     0.8712     0.8712    -0.0000

  Mayer bond orders larger than 0.100000
B(  0-C ,  1-C ) :   0.9565 B(  0-C ,  4-O ) :   0.9793 B(  0-C , 17-O ) :   1.8104 
B(  1-C ,  5-C ) :   0.9617 B(  1-C ,  6-H ) :   0.9333 B(  1-C ,  7-H ) :   0.9590 
B(  2-H , 13-N ) :   0.9073 B(  3-H , 13-N ) :   0.8992 B(  4-O , 14-H ) :   0.8414 
B(  5-C ,  8-C ) :   0.9519 B(  5-C ,  9-H ) :   0.9721 B(  5-C , 10-H ) :   0.9599 
B(  8-C , 11-C ) :   0.9318 B(  8-C , 13-N ) :   0.9796 B(  8-C , 16-H ) :   0.9393 
B( 11-C , 12-O ) :   1.8324 B( 11-C , 15-O ) :   0.9777 B( 15-O , 18-H ) :   0.8395 


-------
TIMINGS
-------

Total SCF time: 0 days 0 hours 0 min 20 sec 

Total time                  ....      20.127 sec
Sum of individual times     ....      19.226 sec  ( 95.5%)

SCF preparation             ....       0.017 sec  (  0.1%)
Fock matrix formation       ....      19.156 sec  ( 95.2%)
  Startup                   ....       0.001 sec  (  0.0% of F)
  Coulomb+Exchange Fock     ....      20.040 sec  (104.6% of F)
Diagonalization             ....       0.000 sec  (  0.0%)
Density matrix formation    ....       0.005 sec  (  0.0%)
Total Energy calculation    ....       0.001 sec  (  0.0%)
Population analysis         ....       0.002 sec  (  0.0%)
Orbital Transformation      ....       0.005 sec  (  0.0%)
Orbital Orthonormalization  ....       0.000 sec  (  0.0%)
DIIS solution               ....       0.024 sec  (  0.1%)
SOSCF solution              ....       0.015 sec  (  0.1%)
Finished LeanSCF after  20.1 sec

Maximum memory used throughout the entire LEANSCF-calculation: 14.6 MB

------------------------------------------------------------------------------
                                ORCA  MP2 
------------------------------------------------------------------------------

Freezing NCore=20 chemical core electrons
MP2 will be done in the AO integral direct mode
The Q1-step will be done using symmetric double matrices
Dimension of the basis                    ...  185
Memory devoted for MP2                    ... 4096 MB   
Memory needed for all in one shot         ...  705 MB
Number of MOs that can be treated together...  167      
MP2 density construction                  ... relaxed
The MP2 gradient is requested => amplitudes will be stored on disk
Total number of MOs              ...   29
Number of MOs treated per batch  ...   29 
Number of batches necessary      ...    1 
OPERATORS   0/  0 PASS   0
-----------------------------------------------
 MP2 CORRELATION ENERGY   :     -1.543685961 Eh
-----------------------------------------------


---------------------
MP2 DENSITY FORMATION
---------------------

Completing the external part of the density      ... done
Storing the unrelaxed density                    ... done

Calculating G(D)                                 ... done
Completing the Lagrangian                        ... done
Solving the Z-vector equations                   ... 
-------------------
SHARK CP-SCF DRIVER
-------------------

Dimension of the orbital basis          ...    185
Dimension of the CPSCF-problem          ...   5694
Number of operators                     ...      1
Max. number of iterations               ...    128
Convergence Tolerance                   ... 1.0e-04
Number of perturbations                 ...      1
Perturbation type                       ... REAL

----------------------------
POPLE LINEAR EQUATION SOLVER
----------------------------

  ITERATION   0:   ||err||_max =   1.5889e-01 (   2.2 sec)
  ITERATION   1:   ||err||_max =   3.9971e-02 (   2.2 sec)
  ITERATION   2:   ||err||_max =   1.6882e-02 (   2.2 sec)
  ITERATION   3:   ||err||_max =   4.2214e-03 (   2.2 sec)
  ITERATION   4:   ||err||_max =   1.4030e-03 (   2.2 sec)
  ITERATION   5:   ||err||_max =   3.5535e-04 (   2.3 sec)
  ITERATION   6:   ||err||_max =   1.0586e-04 (   2.3 sec)
  ITERATION   7:   ||err||_max =   4.8558e-05 (   2.3 sec)
                                                 ... done
Finalizing the relaxed density                   ... done
Transforming P to the AO basis                   ... done
Storing the relaxed density                      ... done

------------------------------------
ENERGY WEIGHTED DENSITY FINALIZATION
------------------------------------

Gathering the parts of the W-matrix              ...                                                      done
Forming the Z-density                            ... done
Transforming Z to the AO basis                   ... done
Calculating G(Z)                                 ... done
Finalizing the W-matrix                          ...                                                      done
Transforming W to the AO basis and storing       ... done

                *********************************************
                * UNRELAXED MP2 DENSITY POPULATION ANALYSIS *
                *********************************************

------------------------------------------------------------------------------
                           ORCA POPULATION ANALYSIS
------------------------------------------------------------------------------
Input electron density              ... 5.pmp2ur
BaseName (.gbw .S,...)              ... 5

                    ********************************
                    * MULLIKEN POPULATION ANALYSIS *
                    ********************************

-----------------------
MULLIKEN ATOMIC CHARGES
-----------------------
   0 C :    0.770001
   1 C :   -0.327594
   2 H :    0.280350
   3 H :    0.279373
   4 O :   -0.626638
   5 C :   -0.236015
   6 H :    0.202485
   7 H :    0.161793
   8 C :   -0.055669
   9 H :    0.127440
  10 H :    0.168864
  11 C :    0.747296
  12 O :   -0.565772
  13 N :   -0.678513
  14 H :    0.366639
  15 O :   -0.615015
  16 H :    0.194257
  17 O :   -0.562854
  18 H :    0.369571
Sum of atomic charges:   -0.0000000

--------------------------------
MULLIKEN REDUCED ORBITAL CHARGES
--------------------------------
  0 C s       :     2.941820  s :     2.941820
      pz      :     0.818782  p :     2.129644
      px      :     0.632144
      py      :     0.678718
      dz2     :     0.030826  d :     0.158535
      dxz     :     0.043909
      dyz     :     0.019259
      dx2y2   :     0.035513
      dxy     :     0.029028
  1 C s       :     3.261330  s :     3.261330
      pz      :     0.899375  p :     3.003537
      px      :     0.996153
      py      :     1.108009
      dz2     :     0.014983  d :     0.062727
      dxz     :     0.012859
      dyz     :     0.010507
      dx2y2   :     0.014531
      dxy     :     0.009847
  2 H s       :     0.691559  s :     0.691559
      pz      :     0.008195  p :     0.028091
      px      :     0.011303
      py      :     0.008594
  3 H s       :     0.692639  s :     0.692639
      pz      :     0.015118  p :     0.027988
      px      :     0.007454
      py      :     0.005415
  4 O s       :     3.834009  s :     3.834009
      pz      :     1.389446  p :     4.744307
      px      :     1.568237
      py      :     1.786624
      dz2     :     0.009812  d :     0.048322
      dxz     :     0.010108
      dyz     :     0.008312
      dx2y2   :     0.011147
      dxy     :     0.008943
  5 C s       :     3.236661  s :     3.236661
      pz      :     1.007720  p :     2.935274
      px      :     0.897682
      py      :     1.029872
      dz2     :     0.016478  d :     0.064079
      dxz     :     0.013091
      dyz     :     0.007143
      dx2y2   :     0.013857
      dxy     :     0.013510
  6 H s       :     0.781419  s :     0.781419
      pz      :     0.002785  p :     0.016097
      px      :     0.002860
      py      :     0.010452
  7 H s       :     0.822668  s :     0.822668
      pz      :     0.004285  p :     0.015539
      px      :     0.007309
      py      :     0.003945
  8 C s       :     3.208843  s :     3.208843
      pz      :     1.069677  p :     2.761435
      px      :     0.899847
      py      :     0.791911
      dz2     :     0.016320  d :     0.085391
      dxz     :     0.015578
      dyz     :     0.013087
      dx2y2   :     0.020635
      dxy     :     0.019772
  9 H s       :     0.857335  s :     0.857335
      pz      :     0.009220  p :     0.015225
      px      :     0.002921
      py      :     0.003083
 10 H s       :     0.815736  s :     0.815736
      pz      :     0.002706  p :     0.015400
      px      :     0.003391
      py      :     0.009303
 11 C s       :     2.948759  s :     2.948759
      pz      :     0.725160  p :     2.146962
      px      :     0.788738
      py      :     0.633063
      dz2     :     0.026999  d :     0.156982
      dxz     :     0.022505
      dyz     :     0.029741
      dx2y2   :     0.043538
      dxy     :     0.034199
 12 O s       :     3.866962  s :     3.866962
      pz      :     1.443259  p :     4.644579
      px      :     1.619171
      py      :     1.582148
      dz2     :     0.013260  d :     0.054231
      dxz     :     0.008233
      dyz     :     0.011997
      dx2y2   :     0.009207
      dxy     :     0.011534
 13 N s       :     3.596630  s :     3.596630
      pz      :     1.305355  p :     4.025619
      px      :     1.628876
      py      :     1.091389
      dz2     :     0.015606  d :     0.056264
      dxz     :     0.007110
      dyz     :     0.009229
      dx2y2   :     0.009518
      dxy     :     0.014802
 14 H s       :     0.590664  s :     0.590664
      pz      :     0.023838  p :     0.042697
      px      :     0.006940
      py      :     0.011919
 15 O s       :     3.831816  s :     3.831816
      pz      :     1.728883  p :     4.734709
      px      :     1.511671
      py      :     1.494155
      dz2     :     0.007476  d :     0.048490
      dxz     :     0.010317
      dyz     :     0.008941
      dx2y2   :     0.013610
      dxy     :     0.008146
 16 H s       :     0.790386  s :     0.790386
      pz      :     0.009677  p :     0.015357
      px      :     0.002835
      py      :     0.002845
 17 O s       :     3.870408  s :     3.870408
      pz      :     1.694350  p :     4.638112
      px      :     1.494189
      py      :     1.449572
      dz2     :     0.008858  d :     0.054333
      dxz     :     0.012152
      dyz     :     0.007356
      dx2y2   :     0.012941
      dxy     :     0.013026
 18 H s       :     0.587717  s :     0.587717
      pz      :     0.014421  p :     0.042711
      px      :     0.020947
      py      :     0.007343


                     *******************************
                     * LOEWDIN POPULATION ANALYSIS *
                     *******************************

----------------------
LOEWDIN ATOMIC CHARGES
----------------------
   0 C :    0.224583
   1 C :   -0.139505
   2 H :    0.133403
   3 H :    0.132933
   4 O :   -0.204190
   5 C :   -0.102815
   6 H :    0.106085
   7 H :    0.089173
   8 C :   -0.032689
   9 H :    0.067518
  10 H :    0.084125
  11 C :    0.203728
  12 O :   -0.295627
  13 N :   -0.272885
  14 H :    0.197023
  15 O :   -0.194421
  16 H :    0.095046
  17 O :   -0.291226
  18 H :    0.199740

-------------------------------
LOEWDIN REDUCED ORBITAL CHARGES
-------------------------------
  0 C s       :     2.839170  s :     2.839170
      pz      :     0.949052  p :     2.605756
      px      :     0.901703
      py      :     0.755001
      dz2     :     0.063393  d :     0.330491
      dxz     :     0.092206
      dyz     :     0.037788
      dx2y2   :     0.076682
      dxy     :     0.060421
  1 C s       :     2.892021  s :     2.892021
      pz      :     1.003028  p :     3.141018
      px      :     1.047303
      py      :     1.090687
      dz2     :     0.027161  d :     0.106466
      dxz     :     0.023125
      dyz     :     0.017963
      dx2y2   :     0.023604
      dxy     :     0.014612
  2 H s       :     0.781043  s :     0.781043
      pz      :     0.023307  p :     0.085554
      px      :     0.036891
      py      :     0.025356
  3 H s       :     0.781596  s :     0.781596
      pz      :     0.047045  p :     0.085471
      px      :     0.022633
      py      :     0.015792
  4 O s       :     3.458206  s :     3.458206
      pz      :     1.365374  p :     4.674213
      px      :     1.567900
      py      :     1.740939
      dz2     :     0.016627  d :     0.071771
      dxz     :     0.017664
      dyz     :     0.011102
      dx2y2   :     0.015710
      dxy     :     0.010668
  5 C s       :     2.889186  s :     2.889186
      pz      :     1.046940  p :     3.104490
      px      :     0.996402
      py      :     1.061149
      dz2     :     0.027362  d :     0.109138
      dxz     :     0.023721
      dyz     :     0.010178
      dx2y2   :     0.023869
      dxy     :     0.024007
  6 H s       :     0.845468  s :     0.845468
      pz      :     0.007888  p :     0.048447
      px      :     0.008716
      py      :     0.031844
  7 H s       :     0.865019  s :     0.865019
      pz      :     0.012267  p :     0.045808
      px      :     0.021794
      py      :     0.011747
  8 C s       :     2.869792  s :     2.869792
      pz      :     1.065880  p :     3.005261
      px      :     0.998974
      py      :     0.940406
      dz2     :     0.027752  d :     0.157636
      dxz     :     0.028782
      dyz     :     0.022045
      dx2y2   :     0.040004
      dxy     :     0.039053
  9 H s       :     0.887826  s :     0.887826
      pz      :     0.027012  p :     0.044656
      px      :     0.008565
      py      :     0.009079
 10 H s       :     0.869644  s :     0.869644
      pz      :     0.007910  p :     0.046231
      px      :     0.009785
      py      :     0.028536
 11 C s       :     2.847791  s :     2.847791
      pz      :     0.837116  p :     2.619124
      px      :     0.899967
      py      :     0.882041
      dz2     :     0.051790  d :     0.329357
      dxz     :     0.045701
      dyz     :     0.065452
      dx2y2   :     0.096586
      dxy     :     0.069827
 12 O s       :     3.545354  s :     3.545354
      pz      :     1.462279  p :     4.669021
      px      :     1.608237
      py      :     1.598505
      dz2     :     0.014909  d :     0.081253
      dxz     :     0.013896
      dyz     :     0.021575
      dx2y2   :     0.013687
      dxy     :     0.017185
 13 N s       :     3.185331  s :     3.185331
      pz      :     1.280147  p :     4.002729
      px      :     1.587167
      py      :     1.135415
      dz2     :     0.022189  d :     0.084824
      dxz     :     0.008305
      dyz     :     0.016608
      dx2y2   :     0.015232
      dxy     :     0.022491
 14 H s       :     0.680095  s :     0.680095
      pz      :     0.066347  p :     0.122881
      px      :     0.021492
      py      :     0.035042
 15 O s       :     3.453444  s :     3.453444
      pz      :     1.687793  p :     4.668098
      px      :     1.477802
      py      :     1.502502
      dz2     :     0.009811  d :     0.072879
      dxz     :     0.014029
      dyz     :     0.012151
      dx2y2   :     0.021469
      dxy     :     0.015420
 16 H s       :     0.858209  s :     0.858209
      pz      :     0.029675  p :     0.046745
      px      :     0.008557
      py      :     0.008514
 17 O s       :     3.543267  s :     3.543267
      pz      :     1.681776  p :     4.666592
      px      :     1.539181
      py      :     1.445635
      dz2     :     0.012124  d :     0.081367
      dxz     :     0.020316
      dyz     :     0.010567
      dx2y2   :     0.017662
      dxy     :     0.020698
 18 H s       :     0.677539  s :     0.677539
      pz      :     0.042228  p :     0.122720
      px      :     0.058796
      py      :     0.021696


                      *****************************
                      * MAYER POPULATION ANALYSIS *
                      *****************************

  NA   - Mulliken gross atomic population
  ZA   - Total nuclear charge
  QA   - Mulliken gross atomic charge
  VA   - Mayer's total valence
  BVA  - Mayer's bonded valence
  FA   - Mayer's free valence

  ATOM       NA         ZA         QA         VA         BVA        FA
  0 C      5.2300     6.0000     0.7700     3.7843     3.5003     0.2840
  1 C      6.3276     6.0000    -0.3276     3.8292     3.5615     0.2677
  2 H      0.7196     1.0000     0.2804     0.9096     0.8643     0.0453
  3 H      0.7206     1.0000     0.2794     0.9143     0.8684     0.0460
  4 O      8.6266     8.0000    -0.6266     2.0874     1.7327     0.3547
  5 C      6.2360     6.0000    -0.2360     3.8570     3.5867     0.2704
  6 H      0.7975     1.0000     0.2025     0.9503     0.9037     0.0466
  7 H      0.8382     1.0000     0.1618     0.9536     0.9062     0.0474
  8 C      6.0557     6.0000    -0.0557     3.8025     3.5237     0.2788
  9 H      0.8726     1.0000     0.1274     0.9599     0.9114     0.0486
 10 H      0.8311     1.0000     0.1689     0.9543     0.9072     0.0471
 11 C      5.2527     6.0000     0.7473     3.7784     3.4894     0.2890
 12 O      8.5658     8.0000    -0.5658     2.1634     1.7664     0.3970
 13 N      7.6785     7.0000    -0.6785     2.9600     2.6327     0.3273
 14 H      0.6334     1.0000     0.3666     0.8806     0.8364     0.0441
 15 O      8.6150     8.0000    -0.6150     2.0860     1.7309     0.3551
 16 H      0.8057     1.0000     0.1943     0.9487     0.9014     0.0473
 17 O      8.5629     8.0000    -0.5629     2.1540     1.7577     0.3964
 18 H      0.6304     1.0000     0.3696     0.8781     0.8340     0.0441

  Mayer bond orders larger than 0.100000
B(  0-C ,  1-C ) :   0.9068 B(  0-C ,  4-O ) :   0.9257 B(  0-C , 17-O ) :   1.6929 
B(  1-C ,  5-C ) :   0.9088 B(  1-C ,  6-H ) :   0.8972 B(  1-C ,  7-H ) :   0.9221 
B(  2-H , 13-N ) :   0.8705 B(  3-H , 13-N ) :   0.8622 B(  4-O , 14-H ) :   0.8066 
B(  5-C ,  8-C ) :   0.8985 B(  5-C ,  9-H ) :   0.9342 B(  5-C , 10-H ) :   0.9227 
B(  8-C , 11-C ) :   0.8814 B(  8-C , 13-N ) :   0.9235 B(  8-C , 16-H ) :   0.9027 
B( 11-C , 12-O ) :   1.7136 B( 11-C , 15-O ) :   0.9242 B( 15-O , 18-H ) :   0.8048 



                *******************************************
                * RELAXED MP2 DENSITY POPULATION ANALYSIS *
                *******************************************

------------------------------------------------------------------------------
                           ORCA POPULATION ANALYSIS
------------------------------------------------------------------------------
Input electron density              ... 5.pmp2re
BaseName (.gbw .S,...)              ... 5

                    ********************************
                    * MULLIKEN POPULATION ANALYSIS *
                    ********************************

-----------------------
MULLIKEN ATOMIC CHARGES
-----------------------
   0 C :    0.585646
   1 C :   -0.309330
   2 H :    0.264887
   3 H :    0.261360
   4 O :   -0.529267
   5 C :   -0.217748
   6 H :    0.185244
   7 H :    0.148099
   8 C :   -0.066969
   9 H :    0.114659
  10 H :    0.151837
  11 C :    0.555292
  12 O :   -0.435564
  13 N :   -0.613886
  14 H :    0.341005
  15 O :   -0.516786
  16 H :    0.170666
  17 O :   -0.433071
  18 H :    0.343925
Sum of atomic charges:   -0.0000000

--------------------------------
MULLIKEN REDUCED ORBITAL CHARGES
--------------------------------
  0 C s       :     2.961587  s :     2.961587
      pz      :     0.854347  p :     2.303641
      px      :     0.679099
      py      :     0.770195
      dz2     :     0.028752  d :     0.149126
      dxz     :     0.041403
      dyz     :     0.018172
      dx2y2   :     0.033335
      dxy     :     0.027464
  1 C s       :     3.232769  s :     3.232769
      pz      :     0.930297  p :     3.019873
      px      :     0.991817
      py      :     1.097760
      dz2     :     0.013344  d :     0.056688
      dxz     :     0.011518
      dyz     :     0.009494
      dx2y2   :     0.012980
      dxy     :     0.009352
  2 H s       :     0.708104  s :     0.708104
      pz      :     0.008071  p :     0.027010
      px      :     0.010775
      py      :     0.008163
  3 H s       :     0.711740  s :     0.711740
      pz      :     0.013518  p :     0.026900
      px      :     0.007846
      py      :     0.005536
  4 O s       :     3.817100  s :     3.817100
      pz      :     1.362035  p :     4.665387
      px      :     1.555718
      py      :     1.747633
      dz2     :     0.009750  d :     0.046780
      dxz     :     0.009313
      dyz     :     0.008121
      dx2y2   :     0.010430
      dxy     :     0.009166
  5 C s       :     3.218277  s :     3.218277
      pz      :     1.003433  p :     2.941478
      px      :     0.911758
      py      :     1.026287
      dz2     :     0.015115  d :     0.057994
      dxz     :     0.011463
      dyz     :     0.006746
      dx2y2   :     0.012628
      dxy     :     0.012041
  6 H s       :     0.799405  s :     0.799405
      pz      :     0.003028  p :     0.015351
      px      :     0.003142
      py      :     0.009182
  7 H s       :     0.837050  s :     0.837050
      pz      :     0.004203  p :     0.014851
      px      :     0.006656
      py      :     0.003993
  8 C s       :     3.187693  s :     3.187693
      pz      :     1.061163  p :     2.801012
      px      :     0.925889
      py      :     0.813961
      dz2     :     0.015037  d :     0.078264
      dxz     :     0.013550
      dyz     :     0.012629
      dx2y2   :     0.018535
      dxy     :     0.018513
  9 H s       :     0.870713  s :     0.870713
      pz      :     0.008207  p :     0.014628
      px      :     0.003146
      py      :     0.003276
 10 H s       :     0.833458  s :     0.833458
      pz      :     0.002995  p :     0.014705
      px      :     0.003510
      py      :     0.008200
 11 C s       :     2.969998  s :     2.969998
      pz      :     0.795196  p :     2.327193
      px      :     0.841699
      py      :     0.690298
      dz2     :     0.024508  d :     0.147517
      dxz     :     0.021050
      dyz     :     0.028411
      dx2y2   :     0.041702
      dxy     :     0.031846
 12 O s       :     3.841840  s :     3.841840
      pz      :     1.408688  p :     4.542222
      px      :     1.575401
      py      :     1.558133
      dz2     :     0.012184  d :     0.051502
      dxz     :     0.008264
      dyz     :     0.011085
      dx2y2   :     0.009358
      dxy     :     0.010611
 13 N s       :     3.578899  s :     3.578899
      pz      :     1.287665  p :     3.981536
      px      :     1.606716
      py      :     1.087154
      dz2     :     0.014220  d :     0.053451
[...]
 17 O s       :     3.862428  s :     3.862428
      pz      :     1.664395  p :     4.529923
      px      :     1.467796
      py      :     1.397732
      dz2     :     0.008560  d :     0.050732
      dxz     :     0.011203
      dyz     :     0.007298
      dx2y2   :     0.011915
      dxy     :     0.011756
 18 H s       :     0.616684  s :     0.616684
      pz      :     0.014958  p :     0.040771
      px      :     0.018152
      py      :     0.007661


                     *******************************
                     * LOEWDIN POPULATION ANALYSIS *
                     *******************************

----------------------
LOEWDIN ATOMIC CHARGES
----------------------
   0 C :    0.166151
   1 C :   -0.153579
   2 H :    0.131780
   3 H :    0.130303
   4 O :   -0.178087
   5 C :   -0.112802
   6 H :    0.104417
   7 H :    0.092800
   8 C :   -0.051808
   9 H :    0.071245
  10 H :    0.083807
  11 C :    0.144747
  12 O :   -0.232062
  13 N :   -0.261810
  14 H :    0.186803
  15 O :   -0.172190
  16 H :    0.092974
  17 O :   -0.231144
  18 H :    0.188458

-------------------------------
LOEWDIN REDUCED ORBITAL CHARGES
-------------------------------
  0 C s       :     2.851260  s :     2.851260
      pz      :     0.962137  p :     2.676200
      px      :     0.902156
      py      :     0.811908
      dz2     :     0.061254  d :     0.306390
      dxz     :     0.086914
      dyz     :     0.035105
      dx2y2   :     0.067852
      dxy     :     0.055265
  1 C s       :     2.893487  s :     2.893487
      pz      :     1.016662  p :     3.158946
      px      :     1.047435
      py      :     1.094849
      dz2     :     0.027446  d :     0.101146
      dxz     :     0.021140
      dyz     :     0.015369
      dx2y2   :     0.020618
      dxy     :     0.016573
  2 H s       :     0.784220  s :     0.784220
      pz      :     0.024677  p :     0.084001
      px      :     0.036138
      py      :     0.023186
  3 H s       :     0.785231  s :     0.785231
      pz      :     0.044361  p :     0.084466
      px      :     0.022949
      py      :     0.017156
  4 O s       :     3.482221  s :     3.482221
      pz      :     1.342837  p :     4.624236
      px      :     1.564061
      py      :     1.717337
      dz2     :     0.016447  d :     0.071630
      dxz     :     0.017698
      dyz     :     0.010793
      dx2y2   :     0.015206
      dxy     :     0.011486
  5 C s       :     2.891121  s :     2.891121
      pz      :     1.053416  p :     3.118009
      px      :     1.000341
      py      :     1.064252
      dz2     :     0.026302  d :     0.103672
      dxz     :     0.021765
      dyz     :     0.009638
      dx2y2   :     0.023355
      dxy     :     0.022612
  6 H s       :     0.847800  s :     0.847800
      pz      :     0.008221  p :     0.047784
      px      :     0.009411
      py      :     0.030152
  7 H s       :     0.861714  s :     0.861714
      pz      :     0.012220  p :     0.045486
      px      :     0.020246
      py      :     0.013020
  8 C s       :     2.872399  s :     2.872399
      pz      :     1.071045  p :     3.029028
      px      :     1.011510
      py      :     0.946472
      dz2     :     0.025787  d :     0.150381
      dxz     :     0.028068
      dyz     :     0.021507
      dx2y2   :     0.037390
      dxy     :     0.037630
  9 H s       :     0.884561  s :     0.884561
      pz      :     0.026258  p :     0.044195
      px      :     0.008670
      py      :     0.009268
 10 H s       :     0.870525  s :     0.870525
      pz      :     0.008160  p :     0.045668
      px      :     0.009889
      py      :     0.027619
 11 C s       :     2.860341  s :     2.860341
      pz      :     0.893445  p :     2.689248
      px      :     0.913339
      py      :     0.882464
      dz2     :     0.049505  d :     0.305664
      dxz     :     0.046524
      dyz     :     0.061839
      dx2y2   :     0.085200
      dxy     :     0.062595
 12 O s       :     3.561580  s :     3.561580
      pz      :     1.436098  p :     4.591862
      px      :     1.580973
      py      :     1.574790
      dz2     :     0.015639  d :     0.078621
      dxz     :     0.013838
      dyz     :     0.021306
      dx2y2   :     0.012827
      dxy     :     0.015011
 13 N s       :     3.197516  s :     3.197516
      pz      :     1.250772  p :     3.981412
      px      :     1.598253
      py      :     1.132386
      dz2     :     0.018732  d :     0.082882
      dxz     :     0.010397
      dyz     :     0.018179
      dx2y2   :     0.014608
      dxy     :     0.020967
 14 H s       :     0.692755  s :     0.692755
      pz      :     0.063454  p :     0.120442
      px      :     0.023066
      py      :     0.033922
 15 O s       :     3.480491  s :     3.480491
      pz      :     1.643054  p :     4.619357
      px      :     1.467055
      py      :     1.509248
      dz2     :     0.009911  d :     0.072342
      dxz     :     0.015354
      dyz     :     0.012262
      dx2y2   :     0.019647
      dxy     :     0.015169
 16 H s       :     0.860069  s :     0.860069
      pz      :     0.028327  p :     0.046957
      px      :     0.009181
      py      :     0.009450
 17 O s       :     3.561581  s :     3.561581
      pz      :     1.666717  p :     4.591188
      px      :     1.521069
      py      :     1.403402
      dz2     :     0.011887  d :     0.078375
      dxz     :     0.019534
      dyz     :     0.010375
      dx2y2   :     0.017131
      dxy     :     0.019448
 18 H s       :     0.691136  s :     0.691136
      pz      :     0.044935  p :     0.120406
      px      :     0.053844
      py      :     0.021628


                      *****************************
                      * MAYER POPULATION ANALYSIS *
                      *****************************

  NA   - Mulliken gross atomic population
  ZA   - Total nuclear charge
  QA   - Mulliken gross atomic charge
  VA   - Mayer's total valence
  BVA  - Mayer's bonded valence
  FA   - Mayer's free valence

  ATOM       NA         ZA         QA         VA         BVA        FA
  0 C      5.4106     6.0000     0.5894     3.9713     3.6975     0.2738
  1 C      6.3033     6.0000    -0.3033     3.8725     3.6093     0.2632
  2 H      0.7377     1.0000     0.2623     0.9162     0.8705     0.0457
  3 H      0.7371     1.0000     0.2629     0.9274     0.8816     0.0458
  4 O      8.5281     8.0000    -0.5281     2.2038     1.8531     0.3507
  5 C      6.2141     6.0000    -0.2141     3.9127     3.6457     0.2670
  6 H      0.8158     1.0000     0.1842     0.9600     0.9139     0.0461
  7 H      0.8489     1.0000     0.1511     0.9557     0.9081     0.0476
  8 C      6.0671     6.0000    -0.0671     3.8783     3.6037     0.2745
  9 H      0.8845     1.0000     0.1155     0.9620     0.9130     0.0490
 10 H      0.8499     1.0000     0.1501     0.9609     0.9137     0.0472
 11 C      5.4414     6.0000     0.5586     3.9658     3.6879     0.2779
 12 O      8.4430     8.0000    -0.4430     2.3199     1.9308     0.3890
 13 N      7.6127     7.0000    -0.6127     3.0351     2.7117     0.3234
 14 H      0.6596     1.0000     0.3404     0.9038     0.8600     0.0437
 15 O      8.5187     8.0000    -0.5187     2.2033     1.8516     0.3517
 16 H      0.8269     1.0000     0.1731     0.9594     0.9126     0.0469
 17 O      8.4431     8.0000    -0.4431     2.3099     1.9210     0.3889
 18 H      0.6575     1.0000     0.3425     0.9015     0.8578     0.0437

  Mayer bond orders larger than 0.100000
B(  0-C ,  1-C ) :   0.9145 B(  0-C ,  4-O ) :   0.9977 B(  0-C , 17-O ) :   1.7879 
B(  1-C ,  5-C ) :   0.9258 B(  1-C ,  6-H ) :   0.8924 B(  1-C ,  7-H ) :   0.9109 
B(  2-H , 13-N ) :   0.8730 B(  3-H , 13-N ) :   0.8626 B(  4-O , 14-H ) :   0.8137 
B(  5-C ,  8-C ) :   0.9131 B(  5-C ,  9-H ) :   0.9228 B(  5-C , 10-H ) :   0.9159 
B(  8-C , 11-C ) :   0.8779 B(  8-C , 13-N ) :   0.9634 B(  8-C , 16-H ) :   0.8933 
B( 11-C , 12-O ) :   1.8096 B( 11-C , 15-O ) :   0.9930 B( 15-O , 18-H ) :   0.8125 



----------------------------------
MP2 DERIVATIVE INTEGRAL GENERATION
----------------------------------

Input SCF Electron Density              ... 5.scfp
Input Correlated Electron Density       ... 5.pmp2re
Input Energy Weighted Density           ... 5.wmp2.tmp
Input Wavefunction Amplitudes           ... 5.mp2tsaa.tmp

Nuclear repulsion gradient              ... done (  0.0 sec)
HCore & Overlap gradient  (SHARK)       ... done (  0.1 sec)
Analytic two-electron gradient terms    ... 
  Batch handling in the gradient evaluation:
  General contraction                   ... not used
  Memory available                      ... 4082.7 MB
  Memory per occupied orbital in Q2     ...    7.6 MB
  Memory per occupied orbital in Q3     ...    0.0 MB
  Total memory requirement per |i>      ...    7.6 MB
  Number of orbitals treated per batch  ...     29
  Number of batches to be done          ...      1
done ( 20.3 sec)

---------------------------------------
MP2 TOTAL ENERGY:     -550.090652929 Eh
---------------------------------------

The final MP2 gradient
  0:   0.00001818  -0.00001753   0.00007608
  1:  -0.00004243  -0.00000340  -0.00002407
  2:  -0.00002084  -0.00001745  -0.00003098
  3:  -0.00000124  -0.00000654  -0.00000495
  4:  -0.00002582  -0.00000226  -0.00001253
  5:  -0.00000772  -0.00003609   0.00002947
  6:   0.00002396   0.00000964  -0.00000221
  7:   0.00000285   0.00000256  -0.00000460
  8:   0.00005793  -0.00001278  -0.00002021
  9:  -0.00000654   0.00001348  -0.00000890
 10:   0.00000490   0.00000367  -0.00001485
 11:  -0.00005892  -0.00001422  -0.00000802
 12:   0.00002606   0.00002436   0.00002261
 13:   0.00001980   0.00003916   0.00004238
 14:  -0.00000293   0.00000493  -0.00000115
 15:   0.00000793  -0.00001817   0.00000455
 16:  -0.00001688   0.00001371  -0.00000307
 17:   0.00002127   0.00000789  -0.00004062
 18:   0.00000046   0.00000904   0.00000108

-----------------------------------
NORM OF THE MP2 GRADIENT:  0.000177
-----------------------------------

Maximum memory used throughout the entire MP2-calculation: 759.2 MB

-------------------------   --------------------
FINAL SINGLE POINT ENERGY      -550.090652929224
-------------------------   --------------------

                                *** OPTIMIZATION RUN DONE ***


------------------------------------------------------------------------------
                              ORCA PROPERTY CALCULATIONS
------------------------------------------------------------------------------

GBWName                                 ... 5.gbw
Number of atoms                         ...     19
Number of basis functions               ...    185
Max core memory                         ...   4096 MB

Electric properties:
Dipole moment                           ... YES
Quadrupole moment                       ...  NO
Static polarizability (Dipole/Dipole)   ...  NO
Static polarizability (Dipole/Quad.)    ...  NO
Static polarizability (Quad./Quad.)     ...  NO
Static polarizability (Velocity)        ...  NO
Static hyperpolarizability              ...  NO

Atomic electric properties:
Dipole moment                           ...  NO
Quadrupole moment                       ...  NO
Static polarizability                   ...  NO

Choice of electric origin               ... Center of mass
Position of electric origin             ...    -2.069280     1.206298     0.109455

General magnetic properties:
Magnetizability                         ...  NO

EPR properties:
g-Tensor (aka g-matrix)                 ...  NO
Zero-Field splitting spin-orbit         ...  NO
Zero-field splitting spin-spin          ...  NO
Hyperfine couplings                     ...  NO (   0 nuclei)
Quadrupole couplings                    ...  NO (   0 nuclei)
Contact density                         ...  NO (   0 nuclei)

NMR properties:
Chemical shifts                         ...  NO (   0 nuclei)
Spin-rotation constants                 ...  NO (   0 nuclei)
Spin-spin couplings                     ...  NO (   0 nuclei,    0 pairs)

Choice of magnetic origin               ... GIAO
Position of magnetic origin             ...     0.000000     0.000000     0.000000

Properties with geometric perturbations:
SCF Hessian                             ...  NO
IR spectrum                             ...  NO
VCD spectrum                            ...  NO
X-ray spectroscopy properties:
SCF XES/XAS/RIXS spectra                ...  NO

SCF SOC stabilization energy            ...  NO
Diagonal Born-Oppenheimer correction    ...  NO

-------------
DIPOLE MOMENT
-------------

Method             : SCF
Type of density    : Electron Density
Multiplicity       :   1
Irrep              :   0
Energy             :  -548.5387401746598925 Eh
Basis              : AO
                                X                 Y                 Z
Electronic contribution:      2.570742679      -1.922050360      -1.838532752
Nuclear contribution   :     -2.864562965       1.729402508       1.888040461
                        -----------------------------------------
Total Dipole Moment    :     -0.293820286      -0.192647852       0.049507708
                        -----------------------------------------
Magnitude (a.u.)       :      0.354816246
Magnitude (Debye)      :      0.901871224



--------------------
Rotational spectrum 
--------------------
 
Rotational constants in cm-1:             0.093371             0.022430             0.020270 
Rotational constants in MHz :          2799.206846           672.443487           607.691493 

Dipole components along the rotational axes: 
x,y,z [a.u.] :     0.246455     0.037609     0.252468 
x,y,z [Debye]:     0.626438     0.095595     0.641723 

 

-------------
DIPOLE MOMENT
-------------

Method             : MP2
Type of density    : Electron Density
Multiplicity       :   1
Level              : Unrelaxed density
Irrep              :   0
Energy             :     0.0000000000000000 Eh
Basis              : AO
                                X                 Y                 Z
Electronic contribution:      2.607565085      -1.918344941      -1.839577550
Nuclear contribution   :     -2.864562965       1.729402508       1.888040461
                        -----------------------------------------
Total Dipole Moment    :     -0.256997880      -0.188942433       0.048462910
                        -----------------------------------------
Magnitude (a.u.)       :      0.322638818
Magnitude (Debye)      :      0.820082702



--------------------
Rotational spectrum 
--------------------
 
Rotational constants in cm-1:             0.093371             0.022430             0.020270 
Rotational constants in MHz :          2799.206846           672.443487           607.691493 

Dipole components along the rotational axes: 
x,y,z [a.u.] :     0.216956     0.049615     0.233590 
x,y,z [Debye]:     0.551458     0.126112     0.593738 

 

-------------
DIPOLE MOMENT
-------------

Method             : MP2
Type of density    : Electron Density
Multiplicity       :   1
Level              : Relaxed density
Irrep              :   0
Energy             :     0.0000000000000000 Eh
Basis              : AO
                                X                 Y                 Z
Electronic contribution:      2.763853130      -1.910311904      -1.850550190
Nuclear contribution   :     -2.864562965       1.729402508       1.888040461
                        -----------------------------------------
Total Dipole Moment    :     -0.100709835      -0.180909396       0.037490271
                        -----------------------------------------
Magnitude (a.u.)       :      0.210419108
Magnitude (Debye)      :      0.534842867



--------------------
Rotational spectrum 
--------------------
 
Rotational constants in cm-1:             0.093371             0.022430             0.020270 
Rotational constants in MHz :          2799.206846           672.443487           607.691493 

Dipole components along the rotational axes: 
x,y,z [a.u.] :     0.097086     0.108941     0.151599 
x,y,z [Debye]:     0.246773     0.276907     0.385335 

 

Dipole moment calculation done in   0.0 sec 

Maximum memory used throughout the entire PROP-calculation: 9.7 MB

--------------------------------
SUGGESTED CITATIONS FOR THIS RUN
--------------------------------

Below you find a list of papers that are relevant to this ORCA run
We neither can nor want to force you to cite these papers, but we appreciate if you do
You receive ORCA, which is the product of decades of hard work by many enthusiastic individuals, for free
The only thing we kindly ask in return is that you cite our papers,
We deeply appreciate it, if you show your appreciation for ORCA by not just citing the generic ORCA reference.

Please note that relegating all ORCA citations to the supporting information does *not* help us.
SI sections are not indexed - citations you put there will not count into any citation statistics
But we need these citations in order to attract the funding resources that allow us to do what we are doing

Therefore, if you are a happy ORCA user, please consider citing a few of the papers listed below in the main body of your paper

In addition to the list printed below, the program has created the file 5.bibtex that contains the list in bibtex format
You can import this file easily into all common literature databanks and citation aid programs


List of essential papers. We consider these as the minimum necessary citations

  1. Neese, F.
     Software update: the ORCA program system, version 6.0
     WIRES Comput. Molec. Sci. 2025 15(1), e70019
     doi.org/10.1002/wcms.7019

List of papers to cite with high priority. The work reported in these papers was absolutely
necessary for this run to complete.
Our perspective: the developers of density functionals and basis sets usually get cited in chemistry papers
Good! But without the algorithms to do something with them, the functionals or basis sets would not do anything.
Hence, in our opinion, the algorithm design and method developments papers are equally worthy of getting cited

  1. Neese, F.
     The SHARK Integral Generation and Digestion System
     J. Comp. Chem. 2022 44(3), 381
     doi.org/10.1002/jcc.26942

List of suggested additional citations. These are papers that are important in the 'surrounding' of 
of this run, or papers that preceded the highly important papers. If you like your results we are grateful for a citation.

  1. Neese, F.
     The ORCA program system
     WIRES Comput. Molec. Sci. 2012 2(1), 73-78
     doi.org/10.1002/wcms.81
  2. Neese, F.
     Software update: the ORCA program system, version 4.0
     WIRES Comput. Molec. Sci. 2018 8(1), 1-6
     doi.org/10.1002/wcms.1327
  3. Neese, F.; Wennmohs, F.; Becker, U.; Riplinger, C.
     The ORCA quantum chemistry program package
     J. Chem. Phys. 2020 152(22), 224108
     doi.org/10.1063/5.0004608
  4. Neese, F.
     Software update: The ORCA program system—Version 5.0
     WIRES Comput. Molec. Sci. 2022 12(1), e1606
     doi.org/10.1002/wcms.1606

List of optional additional citations

  1. Neese, F.
     Approximate second-order SCF convergence for spin unrestricted wavefunctions
     Chem. Phys. Lett. 2000 325(1-3), 93-98
     doi.org/10.1016/s0009-2614(00)00662-x

Timings for individual modules:

Sum of individual times          ...      801.337 sec (=  13.356 min)
Startup calculation              ...        4.736 sec (=   0.079 min)   0.6 %
SCF iterations                   ...      154.910 sec (=   2.582 min)  19.3 %
Property calculations            ...        0.039 sec (=   0.001 min)   0.0 %
MP2 module                       ...      641.637 sec (=  10.694 min)  80.1 %
Geometry relaxation              ...        0.015 sec (=   0.000 min)   0.0 %
                             ****ORCA TERMINATED NORMALLY****
TOTAL RUN TIME: 0 days 0 hours 13 minutes 21 seconds 564 msec
