
                                 *****************
                                 * O   R   C   A *
                                 *****************

                                            #,                                       
                                            ###                                      
                                            ####                                     
                                            #####                                    
                                            ######                                   
                                           ########,                                 
                                     ,,################,,,,,                         
                               ,,#################################,,                 
                          ,,##########################################,,             
                       ,#########################################, ''#####,          
                    ,#############################################,,   '####,        
                  ,##################################################,,,,####,       
                ,###########''''           ''''###############################       
              ,#####''   ,,,,##########,,,,          '''####'''          '####       
            ,##' ,,,,###########################,,,                        '##       
           ' ,,###''''                  '''############,,,                           
         ,,##''                                '''############,,,,        ,,,,,,###''
      ,#''                                            '''#######################'''  
     '                                                          ''''####''''         
             ,#######,   #######,   ,#######,      ##                                
            ,#'     '#,  ##    ##  ,#'     '#,    #''#        ,####,    ,#,          
            ##       ##  ##   ,#'  ##            #'  '#       #'       ,# #          
            ##       ##  #######   ##           ,######,      #####,      #          
            '#,     ,#'  ##    ##  '#,     ,#' ,#      #,     #,   #      #          
             '#######'   ##     ##  '#######'  #'      '#     '####' #    #          



                #########################################################
                #                        -***-                          #
                #          Department of theory and spectroscopy        #
                #                                                       #
                #                      Frank Neese                      #
                #                                                       #
                #     Directorship, Architecture, Infrastructure        #
                #                    SHARK, DRIVERS                     #
                #        Core code/Algorithms in most modules           #
                #                                                       #
                #        Max Planck Institute fuer Kohlenforschung      #
                #                Kaiser Wilhelm Platz 1                 #
                #                 D-45470 Muelheim/Ruhr                 #
                #                      Germany                          #
                #                                                       #
                #                  All rights reserved                  #
                #                        -***-                          #
                #########################################################


                         Program Version 6.1.0  -  RELEASE   -
                                (GIT: $679e74b$)
                          ($2025-06-10 18:02:51 +0200$)


 With contributions from (in alphabetic order):
[Max-Planck-Institut fuer Kohlenforschung]                               
  Daniel Aravena         : Magnetic Suceptibility                        
  Michael Atanasov       : Ab Initio Ligand Field Theory (pilot matlab implementation)
  Alexander A. Auer      : GIAO ZORA, VPT2 properties, NMR spectrum      
  Ute Becker             : All parallelization in ORCA, NUMFREQ, NUMCALC 
  Giovanni Bistoni       : ED, misc. LED, open-shell LED, HFLD           
  Dmytro Bykov           : pre 5.0 version of the SCF Hessian            
  Marcos Casanova-Páez   : Triplet and SCS-CIS(D). UHF-(DLPNO)-IP/EA/STEOM-CCSD. UHF-CVS-IP/STEOM-CCSD   
  Vijay G. Chilkuri      : MRCI spin determinant printing, contributions to CSF-ICE 
  Pauline Colinet        : FMM embedding                                 
  Dipayan Datta          : RHF DLPNO-CCSD density                        
  Achintya Kumar Dutta   : EOM-CC, STEOM-CC                              
  Nicolas Foglia         : Exact transition moments, OPA infrastructure, MCD improvements    
  Dmitry Ganyushin       : Spin-Orbit,Spin-Spin,Magnetic field MRCI      
  Miquel Garcia-Rates    : C-PCM and meta-GGA Hessian, CCSD/C-PCM, Gaussian charge scheme 
  Tiago L. C. Gouveia    : GS-ROHF, GS-ROCIS                             
  Yang Guo               : DLPNO-NEVPT2, F12-NEVPT2, CIM, IAO-localization        
  Andreas Hansen         : Spin unrestricted coupled pair/coupled cluster methods 
  Ingolf Harden          : AUTO-CI MPn and infrastructure                
  Benjamin Helmich-Paris : MC-RPA, TRAH-(SCF,CASSCF), AVAS, COSX integrals, SCF dyn. polar., MC-PDFT, srDFT 
  Lee Huntington         : MR-EOM, pCC                                   
  Robert Izsak           : Overlap fitted RIJCOSX, COSX-SCS-MP3, EOM     
  Riya Kayal             : Wick's Theorem for AUTO-CI, AUTO-CI UHF-CCSDT 
  Emily Kempfer          : AUTO-CI RHF CISDT and CCSDT, approximate NEVPT4
  Christian Kollmar      : KDIIS, OOCD, Brueckner-CCSD(T), CCSD density, CASPT2, CASPT2-K, improved NEVPT2 
  Axel Koslowski         : Symmetry handling                             
  Simone Kossmann        : meta-GGA functionals, TD-DFT gradient, OOMP2, (MP2 Hessian; deprecated post 5.0) 
  Lucas Lang             : DCDCAS, Hyperfine gauge corrections, ICE-SOC+SSC
  Marvin Lechner         : AUTO-CI (C++ implementation), FIC-MRCC        
  Spencer Leger          : CASSCF response                               
  Dagmar Lenk            : GEPOL surface, SMD, ORCA-2-JSON               
  Dimitrios Liakos       : Extrapolation schemes; Compound Job, Property file
  Dimitrios Manganas     : Further ROCIS development; embedding schemes. LFT, Crystal Embedding 
  Dimitrios Pantazis     : SARC Basis sets                               
  Anastasios Papadopoulos: AUTO-CI, single reference methods and gradients 
  Taras Petrenko         : pre 6.0 DFT Hessian and TD-DFT gradient,  ECA, NRVS 
  Petra Pikulova         : Analytic Raman intensities                    
  Peter Pinski           : DLPNO-MP2, DLPNO-MP2 Gradient                 
  Shashank Vittal Rao    : ES-AILFT, MagRelax                            
  Christoph Reimann      : Effective Core Potentials                     
  Marius Retegan         : Local ZFS, SOC                                
  Christoph Riplinger    : Optimizer, TS searches, QM/MM, DLPNO-CCSD(T), (RO)-DLPNO pert. Triples 
  Michael Roemelt        : Original ROCIS implementation, recursive CI coupling coefficients
  Masaaki Saitow         : Open-shell DLPNO-CCSD energy and density      
  Barbara Sandhoefer     : DKH picture change effects                    
  Yorick L. A. Schmerwitz: GMF and freeze-and-release deltaSCF, NEB S-IDPP initial path                    
  Kantharuban Sivalingam : CASSCF convergence/infrastructure, NEVPT2, NEVPT3, NEVPT4(SD), FIC-MRCI and CEPA variants
  Bernardo de Souza      : ESD, SOC TD-DFT                               
  Georgi L. Stoychev     : AutoAux, RI-MP2 NMR, DLPNO-MP2 response, X2C  
  Van Anh Tran           : RI-MP2 g-tensors                              
  Willem Van den Heuvel  : Paramagnetic NMR                              
  Zikuan Wang            : NOTCH, Electric field optimization            
  Frank Wennmohs         : Technical directorship and infrastructure     
  Hang Xu                : AUTO-CI-Response properties                   
                                                                         
[FACCTs GmbH]                                                            
  Markus Bursch, Nicolas Foglia, Miquel Garcia-Rates, Ingolf Harden, Hagen Neugebauer, Anastasios Papadopoulos, 
  Christoph Riplinger, Bernardo de Souza, Georgi L. Stoychev                                                    
                                                                 
  APM, various basis sets, CI-OPT, improved COSX, DLPNO-Multilevel,           
  DOCKER, DRACO, updates on ESD, Fragmentator, GOAT, IRC, LR-CPCM, L-BFGS, MBIS, meta-GGA TD-DFT gradient, ML-optimized integration grids, 
  MM, NACMEs, nearIR, NEB, NEB-TS, NL-DFT gradient (VV10), 2- and 3-layer-ONIOM, interface openCOSMO-RS, QMMM,   
  Crystal-QMMM, RESP, rigid body optimization, SF, symmetry and pop. for TD-DFT, various functionals, SOLVATOR                                   
                                                                         
[Other institutions]                                                     
  V. Asgeirsson          : NEB                                           
  Christoph Bannwarth    : sTDA-DFT, sTD-DFT, PBEh-3c, B97-3c, D3        
  Giovanni Bistoni       : ETS/NOCV, ADLD/ADEX, COVALED                  
  Martin Brehm           : Molecular dynamics                            
  Ronald Cardenas        : ETS/NOCV                                      
  Martina Colucci        : COVALED                                       
  Sebastian Ehlert       : rSCAN, r2SCAN, r2SCAN-3c, D4, dhf basis sets  
  Marvin Friede          : D4 for Fr, Ra, Ac-Lr                          
  Lars Goerigk           : TD-DFT with DH, B97 family of functionals     
  Stefan Grimme          : VdW corrections, initial TS optimization, DFT functionals, gCP, sTDA/sTD-DF 
  Waldemar Hujo          : DFT-NL                                        
  H. Jonsson             : NEB                                           
  Holger Kruse           : gCP                                           
  Marcel Mueller         : wB97X-3c, vDZP basis set                      
  Hagen Neugebauer       : wr2SCAN, Native XTB                           
  Gianluca Regni         : ADLD/ADEX                                     
  Tobias Risthaus        : pre 6.0 range-separated hybrid DFT and stability analysis
  Lukas Wittmann         : regularized MP2, r2SCAN double-hybrids, wr2SCAN        
                                                                         
We gratefully acknowledge several colleagues who have allowed us to      
interface, adapt or use parts of their codes:                            
  Ed Valeev, F. Pavosevic, A. Kumar             : LibInt (2-el integral package), F12 methods 
  Garnet Chan, S. Sharma, J. Yang, R. Olivares  : DMRG                   
  Ulf Ekstrom                                   : XCFun DFT Library      
  Mihaly Kallay                                 : mrcc  (arbitrary order and MRCC methods)
  Frank Weinhold                                : gennbo (NPA and NBO analysis)           
  Simon Mueller                                 : openCOSMO-RS                            
  Christopher J. Cramer and Donald G. Truhlar   : smd solvation model                     
  S Lehtola, MJT Oliveira, MAL Marques          : LibXC Library                           
  Liviu Ungur et al                             : ANISO software                          


 Your calculation uses the libint2 library for the computation of 2-el integrals
 For citations please refer to: http://libint.valeyev.net

 Your ORCA version has been built with support for libXC version: 7.0.0
 For citations please refer to: https://libxc.gitlab.io

 This ORCA versions uses:
   CBLAS   interface :  Fast vector & matrix operations
   LAPACKE interface :  Fast linear algebra routines
   SCALAPACK package :  Parallel linear algebra routines
   Shared memory     :  Shared parallel matrices
   BLAS/LAPACK       :  OpenBLAS 0.3.29  USE64BITINT DYNAMIC_ARCH NO_AFFINITY Haswell SINGLE_THREADED
        Core in use  :  Haswell
   Copyright (c) 2011-2014, The OpenBLAS Project


  ***********************************
  * Starting time: Thu Aug 14 00:59:01 2025
  * Host name:     CHEMLAB02
  * Process ID:    1542921
  * Working dir.:  /home/vivek/mm-project/vivek/MP2/f/5
  ***********************************



***************************************
The coordinates will be read from file: /home/vivek/mm-project/vivek/xtb-goat/f/F_CONF/5.xyz
***************************************


================================================================================

----- Orbital basis set information -----
Your calculation utilizes the basis: 6-31G**
   H-He, Li-Ne : W. J. Hehre, R. Ditchfield and J.A. Pople, J. Chem. Phys. 56, 2257 (1972).
                 Note: He and Ne are unpublished basis sets taken from the Gaussian program.
                 Note: Li and B from J. D. Dill and J. A. Pople, J. Chem. Phys. 62, 2921 (1975).
   Na - Ar     : M. M. Francl, W. J. Pietro, W. J. Hehre, J. S. Binkley, M. S. Gordon, 
                 D. J. DeFrees and J. A. Pople, J. Chem. Phys. 77, 3654 (1982).
   K - Zn      : V. A. Rassolov, J. A. Pople, M. A. Ratner, and T. L. Windus, J. Chem. Phys. 109, 1223 (1998).

================================================================================
                                        WARNINGS
                       Please study these warnings very carefully!
================================================================================


WARNING: No MP2 level density has been requested!
         To calculate MP2 level properties use
         %mp2 Density relaxed end
         or
         %mp2 Density unrelaxed end

WARNING: Post HF methods need fully converged wavefunctions
  ===> : Setting SCFConvForced true
         You can overwrite this default with %scf ConvForced false 


================================================================================
                                       INPUT FILE
================================================================================
NAME = 5.inp
|  1> ! MP2 6-31G** 
|  2> 
|  3> * xyzfile 0 1 /home/vivek/mm-project/vivek/xtb-goat/f/F_CONF/5.xyz
|  4> 
|  5>                          ****END OF INPUT****
================================================================================

                       ****************************
                       * Single Point Calculation *
                       ****************************

---------------------------------
CARTESIAN COORDINATES (ANGSTROEM)
---------------------------------
  C     -6.475344    0.997302   -1.394099
  C     -5.288045    0.773011   -2.068203
  C     -5.265924    1.143052    0.672232
  H     -7.385882    1.353421    0.510193
  H     -5.257959    1.286986    1.743247
  C     -4.091645    0.733839   -1.372536
  C     -2.769805    0.928652    0.754738
  H     -5.291437    0.627969   -3.138625
  C     -4.067826    0.915281    0.004982
  H     -7.408994    1.027395   -1.935761
  C     -6.461516    1.180348   -0.021052
  H     -3.168468    0.548569   -1.904548
  C     -2.282273    2.397766    0.950337
  H     -2.893548    0.472595    1.738319
  H     -2.002055    0.380199    0.203932
  C     -0.998189    2.311099    1.749330
  H     -0.388596    2.225510    3.554189
  N     -2.029863    3.119942   -0.273463
  O     -1.223848    2.313346    3.066674
  H     -1.161350    2.798034   -0.689069
  O      0.099565    2.196691    1.275697
  H     -3.033586    2.940363    1.534425
  H     -2.784913    2.976472   -0.935272

----------------------------
CARTESIAN COORDINATES (A.U.)
----------------------------
  NO LB      ZA    FRAG     MASS         X           Y           Z
   0 C     6.0000    0    12.011  -12.236627    1.884629   -2.634465
   1 C     6.0000    0    12.011   -9.992957    1.460779   -3.908338
   2 C     6.0000    0    12.011   -9.951155    2.160055    1.270335
   3 H     1.0000    0     1.008  -13.957294    2.557596    0.964125
   4 H     1.0000    0     1.008   -9.936102    2.432052    3.294259
   5 C     6.0000    0    12.011   -7.732088    1.386754   -2.593717
   6 C     6.0000    0    12.011   -5.234173    1.754897    1.426249
   7 H     1.0000    0     1.008   -9.999366    1.186690   -5.931142
   8 C     6.0000    0    12.011   -7.687077    1.729630    0.009415
   9 H     1.0000    0     1.008  -14.000970    1.941495   -3.658057
  10 C     6.0000    0    12.011  -12.210496    2.230534   -0.039783
  11 H     1.0000    0     1.008   -5.987538    1.036645   -3.599074
  12 C     6.0000    0    12.011   -4.312872    4.531121    1.795877
  13 H     1.0000    0     1.008   -5.468014    0.893074    3.284948
  14 H     1.0000    0     1.008   -3.783335    0.718471    0.385376
  15 C     6.0000    0    12.011   -1.886304    4.367345    3.305755
  16 H     1.0000    0     1.008   -0.734341    4.205605    6.716444
  17 N     7.0000    0    14.007   -3.835885    5.895836   -0.516771
  18 O     8.0000    0    15.999   -2.312738    4.371590    5.795173
  19 H     1.0000    0     1.008   -2.194633    5.287517   -1.302151
  20 O     8.0000    0    15.999    0.188150    4.151144    2.410718
  21 H     1.0000    0     1.008   -5.732646    5.556481    2.899643
  22 H     1.0000    0     1.008   -5.262722    5.624717   -1.767407

--------------------------------
INTERNAL COORDINATES (ANGSTROEM)
--------------------------------
 C      0   0   0     0.000000000000     0.00000000     0.00000000
 C      1   0   0     1.383619667466     0.00000000     0.00000000
 C      1   2   0     2.398679671562    89.82166932     0.00000000
 H      3   1   2     2.136523739110    55.96879354   180.14248734
 H      3   1   2     1.080672312562   149.94624603   180.07930327
 C      2   1   3     1.384507796824   120.08645881     0.00000000
 C      3   1   2     2.506668115716   121.68423737     1.40964513
 H      2   1   3     1.080208875620   120.12322649   180.00505532
 C      6   2   1     1.389620329816   120.61103372     0.14551638
 H      1   2   3     1.079817133921   120.13764465   180.03607361
 C      4   3   1     1.080105406799    34.14193961     0.02858889
 H      6   2   1     1.081487883544   119.69021369   179.41110982
 C      7   3   1     1.560205843153   103.57702091   103.95374807
 H      7   3   1     1.091206685954    87.27698928   212.25027312
 H      7   3   1     1.092533309623   136.56132188   327.21007591
 C     13   7   3     1.514850599999   106.08899043   149.08521327
 H     16  13   7     1.906946337840   140.60092700   273.55983715
 N     13   7   3     1.443238684773   114.80398944   269.67763977
 O     17  16  13     0.971098057066    41.04798333   357.08660752
 H     18  13   7     1.015218186404   109.76035320   285.22878588
 O     16  13   7     1.201033391613   124.90536707    89.11959349
 H     13   7   3     1.095463506266   108.59811181    31.84276115
 H     18  13   7     1.014235642087   110.62961631    45.50167033

---------------------------
INTERNAL COORDINATES (A.U.)
---------------------------
 C      0   0   0     0.000000000000     0.00000000     0.00000000
 C      1   0   0     2.614662245018     0.00000000     0.00000000
 C      1   2   0     4.532847662257    89.82166932     0.00000000
 H      3   1   2     4.037444745539    55.96879354   180.14248734
 H      3   1   2     2.042174711254   149.94624603   180.07930327
 C      2   1   3     2.616340566275   120.08645881     0.00000000
 C      3   1   2     4.736916247336   121.68423737     1.40964513
 H      2   1   3     2.041298942353   120.12322649   180.00505532
 C      6   2   1     2.626001853482   120.61103372     0.14551638
 H      1   2   3     2.040558657827   120.13764465   180.03607361
 C      4   3   1     2.041103414619    34.14193961     0.02858889
 H      6   2   1     2.043715917053   119.69021369   179.41110982
 C      7   3   1     2.948361756103   103.57702091   103.95374807
 H      7   3   1     2.062081791956    87.27698928   212.25027312
 H      7   3   1     2.064588747375   136.56132188   327.21007591
 C     13   7   3     2.862652767805   106.08899043   149.08521327
 H     16  13   7     3.603606330603   140.60092700   273.55983715
 N     13   7   3     2.727325860102   114.80398944   269.67763977
 O     17  16  13     1.835109377037    41.04798333   357.08660752
 H     18  13   7     1.918484338479   109.76035320   285.22878588
 O     16  13   7     2.269624187843   124.90536707    89.11959349
 H     13   7   3     2.070126016549   108.59811181    31.84276115
 H     18  13   7     1.916627598807   110.62961631    45.50167033

---------------------
BASIS SET INFORMATION
---------------------
There are 4 groups of distinct atoms

 Group   1 Type C   : 10s4p1d contracted to 3s2p1d pattern {631/31/1}
 Group   2 Type H   : 4s1p contracted to 2s1p pattern {31/1}
 Group   3 Type N   : 10s4p1d contracted to 3s2p1d pattern {631/31/1}
 Group   4 Type O   : 10s4p1d contracted to 3s2p1d pattern {631/31/1}

Atom   0C    basis set group =>   1
Atom   1C    basis set group =>   1
Atom   2C    basis set group =>   1
Atom   3H    basis set group =>   2
Atom   4H    basis set group =>   2
Atom   5C    basis set group =>   1
Atom   6C    basis set group =>   1
Atom   7H    basis set group =>   2
Atom   8C    basis set group =>   1
Atom   9H    basis set group =>   2
Atom  10C    basis set group =>   1
Atom  11H    basis set group =>   2
Atom  12C    basis set group =>   1
Atom  13H    basis set group =>   2
Atom  14H    basis set group =>   2
Atom  15C    basis set group =>   1
Atom  16H    basis set group =>   2
Atom  17N    basis set group =>   3
Atom  18O    basis set group =>   4
Atom  19H    basis set group =>   2
Atom  20O    basis set group =>   4
Atom  21H    basis set group =>   2
Atom  22H    basis set group =>   2
------------------------------------------------------------------------------
                             ORCA STARTUP CALCULATIONS
------------------------------------------------------------------------------
------------------------------------------------------------------------------
                   ___                                                        
                  /   \      - P O W E R E D   B Y -                         
                 /     \                                                     
                 |  |  |   _    _      __       _____    __    __             
                 |  |  |  | |  | |    /  \     |  _  \  |  |  /  |          
                  \  \/   | |  | |   /    \    | | | |  |  | /  /          
                 / \  \   | |__| |  /  /\  \   | |_| |  |  |/  /          
                |  |  |   |  __  | /  /__\  \  |    /   |      \           
                |  |  |   | |  | | |   __   |  |    \   |  |\   \          
                \     /   | |  | | |  |  |  |  | |\  \  |  | \   \       
                 \___/    |_|  |_| |__|  |__|  |_| \__\ |__|  \__/        
                                                                              
                      - O R C A' S   B I G   F R I E N D -                    
                                      &                                       
                       - I N T E G R A L  F E E D E R -                       
                                                                              
 v1 FN, 2020, v2 2021, v3 2022-2024                                           
------------------------------------------------------------------------------


----------------------
SHARK INTEGRAL PACKAGE
----------------------

Number of atoms                             ...     23
Number of basis functions                   ...    223
Number of shells                            ...    105
Maximum angular momentum                    ...      2
Integral batch strategy                     ... SHARK/LIBINT Hybrid
RI-J (if used) integral strategy            ... SPLIT-RIJ (Revised 2003 algorithm where possible)
Printlevel                                  ...      1
Contraction scheme used                     ... SEGMENTED contraction
Prescreening option                         ... SCHWARTZ
   Thresh                                   ... 1.000e-10
   Tcut                                     ... 1.000e-11
   Tpresel                                  ... 1.000e-11 
Coulomb Range Separation                    ... NOT USED
Exchange Range Separation                   ... NOT USED
Multipole approximations                    ... NOT USED
Finite Nucleus Model                        ... NOT USED
CABS basis                                  ... NOT available
Auxiliary Coulomb fitting basis             ... NOT available
Auxiliary J/K fitting basis                 ... NOT available
Auxiliary Correlation fitting basis         ... NOT available
Auxiliary 'external' fitting basis          ... NOT available

Checking pre-screening integrals            ... done (  0.0 sec) Dimension = 105
   => SHARK Basis and OBASIS are compatible. Storing Pre-screening
Shell pair information
Shell pair cut-off parameter TPreSel        ...   1.0e-11
Total number of shell pairs                 ...      5565
Shell pairs after pre-screening             ...      4614
Total number of primitive shell pairs       ...     28015
Primitive shell pairs kept                  ...     14635
          la=0 lb=0:   1416 shell pairs
          la=1 lb=0:   1695 shell pairs
          la=1 lb=1:    535 shell pairs
          la=2 lb=0:    561 shell pairs
          la=2 lb=1:    345 shell pairs
          la=2 lb=2:     62 shell pairs

Checking whether 4 symmetric matrices of dimension 223 fit in memory
:Max Core in MB      =   4096.00
 MB in use           =      7.43
 MB left             =   4088.57
 MB needed           =      0.76
 Data fit in memory  = YES
Calculating Nuclear repulsion               ... done (  0.0 sec) ENN=    673.981182309571 Eh

Diagonalization of the overlap matrix:
Smallest eigenvalue                        ... 4.376e-04
Time for diagonalization                   ...    0.003 sec
Threshold for overlap eigenvalues          ... 1.000e-07
Number of eigenvalues below threshold      ... 0
Time for construction of square roots      ...    0.001 sec
Total time needed                          ...    0.004 sec

-------------------
DFT GRID GENERATION
-------------------

General Integration Accuracy     IntAcc      ... 4.388
Radial Grid Type                 RadialGrid  ... OptM3 with GC (2021)
Angular Grid (max. ang.)         AngularGrid ... 4 (Lebedev-302)
Angular grid pruning method      GridPruning ... 4 (adaptive)
Weight generation scheme         WeightScheme... mBecke (2022)
Basis function cutoff            BFCut       ... 1.0000e-10
Integration weight cutoff        WCut        ... 1.0000e-14
Partially contracted basis set               ... off
Rotationally invariant grid construction     ... off
Angular grids for H and He will be reduced by one unit

Total number of grid points                  ...   107188
Total number of batches                      ...     1686
Average number of points per batch           ...       63
Average number of grid points per atom       ...     4660
Grids setup in   0.5 sec
Initializing property integral containers    ... done (  0.0 sec)

SHARK setup successfully completed in   0.5 seconds

Maximum memory used throughout the entire STARTUP-calculation: 43.0 MB
-------------------------------------------------------------------------------
                                 ORCA GUESS
                   Start orbitals & Density for SCF / CASSCF
-------------------------------------------------------------------------------

------------
SCF SETTINGS
------------
Hamiltonian:
 Ab initio Hamiltonian  Method          .... Hartree-Fock(GTOs)


General Settings:
 Integral files         IntName         .... 5
 Hartree-Fock type      HFTyp           .... RHF
 Total Charge           Charge          ....    0
 Multiplicity           Mult            ....    1
 Number of Electrons    NEL             ....   88
 Basis Dimension        Dim             ....  223
 Nuclear Repulsion      ENuc            ....    673.9811823096 Eh

Convergence Acceleration:
 AO-DIIS                CNVDIIS         .... on
   Start iteration      DIISMaxIt       ....    12
   Startup error        DIISStart       ....  0.200000
   # of expansion vecs  DIISMaxEq       ....     5
   Bias factor          DIISBfac        ....   1.050
   Max. coefficient     DIISMaxC        ....  10.000
 MO-DIIS                CNVKDIIS        .... off
 Trust-Rad. Augm. Hess. CNVTRAH         .... auto
   Auto Start mean grad. ratio tolernc. ....  1.125000
   Auto Start start iteration           ....    50
   Auto Start num. interpolation iter.  ....    10
   Max. Number of Micro iterations      ....    24
   Max. Number of Macro iterations      .... Maxiter - #DIIS iter
   Number of Davidson start vectors     ....     2
   Converg. threshold    (grad. norm)   ....   5.000e-05
   Grad. Scal. Fac. for Micro threshold ....   0.100
   Minimum threshold for Micro iter.    ....   1.000e-02
   NR start threshold (gradient norm)   ....   1.000e-04
   Initial trust radius                 ....   0.400
   Minimum AH scaling param. (alpha)    ....   1.000
   Maximum AH scaling param. (alpha)    .... 1000.000
   Quad. conv. algorithm                .... NR
   White noise on init. David. guess    .... on
   Maximum white noise                  ....   0.010
   Pseudo random numbers                .... off
   Inactive MOs                         .... canonical
   Orbital update algorithm             .... Taylor
   Preconditioner                       .... Diag
   Full preconditioner red. dimension   ....   250
 SOSCF                 CNVSOSCF           .... on
   Start iteration     SOSCFMaxIt         ....   150
   Startup grad/error  SOSCFStart         ....  0.003300
   Hessian update      SOSCFHessUp        .... L-BFGS
   Autom. constraints  SOSCFAutoConstrain .... off
 Level Shifting         CNVShift        .... on
   Level shift para.    LevelShift      ....    0.2500
   Turn off err/grad.   ShiftErr        ....    0.0010
 Zerner damping         CNVZerner       .... off
 Static damping         CNVDamp         .... on
   Fraction old density DampFac         ....    0.7000
   Max. Damping (<1)    DampMax         ....    0.9800
   Min. Damping (>=0)   DampMin         ....    0.0000
   Turn off err/grad.   DampErr         ....    0.1000

SCF Procedure:
 Maximum # iterations   MaxIter         ....   125
 SCF integral mode      SCFMode         .... Direct
   Integral package                     .... SHARK and LIBINT hybrid scheme
 Reset frequency        DirectResetFreq ....    20
 Integral Threshold     Thresh          ....  1.000e-10 Eh
 Primitive CutOff       TCut            ....  1.000e-11 Eh

Convergence Tolerance:
 Convergence Check Mode ConvCheckMode   .... Total+1el-Energy
 Convergence forced     ConvForced      .... 1
 Energy Change          TolE            ....  1.000e-06 Eh
 1-El. energy change                    ....  1.000e-03 Eh
 Orbital Gradient       TolG            ....  5.000e-05
 Orbital Rotation angle TolX            ....  5.000e-05
 DIIS Error             TolErr          ....  1.000e-06

------------------------------
INITIAL GUESS: MODEL POTENTIAL
------------------------------
Loading Hartree-Fock densities                     ... done
Calculating cut-offs                               ... done
Initializing the effective Hamiltonian             ... done
Setting up the integral package (SHARK)            ... done
Starting the Coulomb interaction                   ... done (   0.1 sec)
Making the grid                                    ... done (   0.1 sec)
Mapping shells                                     ... done
Starting the XC term evaluation                    ... done (   0.1 sec)
Transforming the Hamiltonian                       ... done (   0.0 sec)
Diagonalizing the Hamiltonian                      ... done (   0.0 sec)
Back transforming the eigenvectors                 ... done (   0.0 sec)
Now organizing SCF variables                       ... done
                      ------------------
                      INITIAL GUESS DONE (   0.3 sec)
                      ------------------
             **** ENERGY FILE WAS UPDATED (5.en.tmp) ****
Finished Guess after   0.3 sec
Maximum memory used throughout the entire GUESS-calculation: 13.7 MB

-------------------------------------------------------------------------------------------
                                      ORCA LEAN-SCF
                              memory conserving SCF solver
-------------------------------------------------------------------------------------------

----------------------------------------D-I-I-S--------------------------------------------
Iteration    Energy (Eh)           Delta-E    RMSDP     MaxDP     DIISErr   Damp  Time(sec)
-------------------------------------------------------------------------------------------
               ***  Starting incremental Fock matrix formation  ***
    1    -550.9582799960153352     0.00e+00  2.47e-03  6.50e-02  2.54e-01  0.700   2.9
    2    -551.1252160242072478    -1.67e-01  1.89e-03  4.64e-02  1.57e-01  0.700   2.8
                               ***Turning on AO-DIIS***
    3    -551.2259343220164283    -1.01e-01  1.18e-03  2.07e-02  8.95e-02  0.700   2.8
    4    -551.2902000283133930    -6.43e-02  2.82e-03  4.83e-02  6.47e-02  0.000   2.7
    5    -551.4337899225909041    -1.44e-01  2.78e-04  7.81e-03  7.71e-03  0.000   2.8
    6    -551.4343025061436947    -5.13e-04  1.26e-04  3.46e-03  3.93e-03  0.000   2.6
                              *** Initializing SOSCF ***
---------------------------------------S-O-S-C-F--------------------------------------
Iteration    Energy (Eh)           Delta-E    RMSDP     MaxDP     MaxGrad    Time(sec)
--------------------------------------------------------------------------------------
    7    -551.4344113547476809    -1.09e-04  6.48e-05  2.67e-03  2.68e-03     2.5
               *** Restarting incremental Fock matrix formation ***
    8    -551.4344432350269471    -3.19e-05  3.18e-05  9.48e-04  7.54e-04     3.0
    9    -551.4344507771447752    -7.54e-06  3.31e-05  1.54e-03  4.93e-04     2.2
   10    -551.4344534409096923    -2.66e-06  5.91e-06  2.78e-04  1.28e-04     2.2
   11    -551.4344536599021467    -2.19e-07  2.26e-06  7.73e-05  4.22e-05     2.0
                 **** Energy Check signals convergence ****

               *****************************************************
               *                     SUCCESS                       *
               *           SCF CONVERGED AFTER  11 CYCLES          *
               *****************************************************

             **** ENERGY FILE WAS UPDATED (5.en.tmp) ****

----------------
TOTAL SCF ENERGY
----------------

Total Energy       :       -551.43445369595815 Eh          -15005.29434 eV

Components:
Nuclear Repulsion  :        673.98118230957130 Eh           18339.96036 eV
Electronic Energy  :      -1225.41563600552945 Eh          -33345.25470 eV
One Electron Energy:      -2088.39357703192218 Eh          -56828.07831 eV
Two Electron Energy:        862.97794102639273 Eh           23482.82362 eV

Virial components:
Potential Energy   :      -1102.44991457582546 Eh          -29999.18730 eV
Kinetic Energy     :        551.01546087986731 Eh           14993.89297 eV
Virial Ratio       :          2.00076040119713

---------------
SCF CONVERGENCE
---------------

  Last Energy change         ...    2.1899e-07  Tolerance :   1.0000e-06
  Last MAX-Density change    ...    7.7262e-05  Tolerance :   1.0000e-05
  Last RMS-Density change    ...    2.2578e-06  Tolerance :   1.0000e-06
  Last DIIS Error            ...    2.6813e-03  Tolerance :   1.0000e-06
  Last Orbital Gradient      ...    4.2197e-05  Tolerance :   5.0000e-05
  Last Orbital Rotation      ...    3.5080e-05  Tolerance :   5.0000e-05


----------------
ORBITAL ENERGIES
----------------

  NO   OCC          E(Eh)            E(eV) 
   0   2.0000     -20.618963      -561.0705 
   1   2.0000     -20.554727      -559.3226 
   2   2.0000     -15.541466      -422.9048 
   3   2.0000     -11.386053      -309.8303 
   4   2.0000     -11.274482      -306.7942 
   5   2.0000     -11.244035      -305.9657 
   6   2.0000     -11.239443      -305.8408 
   7   2.0000     -11.237815      -305.7965 
   8   2.0000     -11.237540      -305.7890 
   9   2.0000     -11.235211      -305.7256 
  10   2.0000     -11.234502      -305.7063 
  11   2.0000     -11.234012      -305.6930 
  12   2.0000      -1.470562       -40.0160 
  13   2.0000      -1.364483       -37.1295 
  14   2.0000      -1.199495       -32.6399 
  15   2.0000      -1.161096       -31.5950 
  16   2.0000      -1.060877       -28.8679 
  17   2.0000      -1.021580       -27.7986 
  18   2.0000      -0.992077       -26.9958 
  19   2.0000      -0.910718       -24.7819 
  20   2.0000      -0.834153       -22.6985 
  21   2.0000      -0.812877       -22.1195 
  22   2.0000      -0.790698       -21.5160 
  23   2.0000      -0.723522       -19.6880 
  24   2.0000      -0.701314       -19.0837 
  25   2.0000      -0.698147       -18.9975 
  26   2.0000      -0.649527       -17.6745 
  27   2.0000      -0.647789       -17.6272 
  28   2.0000      -0.631705       -17.1896 
  29   2.0000      -0.621936       -16.9237 
  30   2.0000      -0.594917       -16.1885 
  31   2.0000      -0.588239       -16.0068 
  32   2.0000      -0.582869       -15.8607 
  33   2.0000      -0.577191       -15.7062 
  34   2.0000      -0.551146       -14.9974 
  35   2.0000      -0.520679       -14.1684 
  36   2.0000      -0.502125       -13.6635 
  37   2.0000      -0.493532       -13.4297 
  38   2.0000      -0.490551       -13.3486 
  39   2.0000      -0.478206       -13.0126 
  40   2.0000      -0.446185       -12.1413 
  41   2.0000      -0.390192       -10.6177 
  42   2.0000      -0.341492        -9.2925 
  43   2.0000      -0.330720        -8.9994 
  44   0.0000       0.133086         3.6215 
  45   0.0000       0.136907         3.7254 
  46   0.0000       0.192624         5.2416 
  47   0.0000       0.221812         6.0358 
  48   0.0000       0.230682         6.2772 
  49   0.0000       0.254464         6.9243 
  50   0.0000       0.262190         7.1346 
  51   0.0000       0.280617         7.6360 
  52   0.0000       0.297751         8.1022 
  53   0.0000       0.311308         8.4711 
  54   0.0000       0.320115         8.7108 
*Only the first 10 virtual orbitals were printed.

                    ********************************
                    * MULLIKEN POPULATION ANALYSIS *
                    ********************************

-----------------------
MULLIKEN ATOMIC CHARGES
-----------------------
   0 C :   -0.155303
   1 C :   -0.139823
   2 C :   -0.149089
   3 H :    0.153438
   4 H :    0.151109
   5 C :   -0.173790
   6 C :   -0.261455
   7 H :    0.153450
   8 C :   -0.015829
   9 H :    0.151864
  10 C :   -0.140136
  11 H :    0.150868
  12 C :   -0.002997
  13 H :    0.146822
  14 H :    0.144344
  15 C :    0.810885
  16 H :    0.372084
  17 N :   -0.701739
  18 O :   -0.638920
  19 H :    0.287343
  20 O :   -0.588213
  21 H :    0.163460
  22 H :    0.281626
Sum of atomic charges:    0.0000000

--------------------------------
MULLIKEN REDUCED ORBITAL CHARGES
--------------------------------
  0 C s       :     3.146336  s :     3.146336
      pz      :     0.950375  p :     2.964429
      px      :     1.021930
      py      :     0.992124
      dz2     :     0.011900  d :     0.044538
      dxz     :     0.015382
      dyz     :     0.006213
      dx2y2   :     0.006684
      dxy     :     0.004358

  1 C s       :     3.145474  s :     3.145474
      pz      :     1.057999  p :     2.949310
      px      :     0.915469
      py      :     0.975841
      dz2     :     0.012646  d :     0.045040
      dxz     :     0.013766
      dyz     :     0.003472
      dx2y2   :     0.007354
      dxy     :     0.007802

  2 C s       :     3.135979  s :     3.135979
      pz      :     1.063088  p :     2.968789
      px      :     0.905477
      py      :     1.000223
      dz2     :     0.012644  d :     0.044321
      dxz     :     0.013622
      dyz     :     0.003400
      dx2y2   :     0.007314
      dxy     :     0.007341

  3 H s       :     0.832805  s :     0.832805
      pz      :     0.003539  p :     0.013758
      px      :     0.007689
      py      :     0.002530

  4 H s       :     0.835067  s :     0.835067
      pz      :     0.009768  p :     0.013824
      px      :     0.001484
      py      :     0.002572

  5 C s       :     3.147505  s :     3.147505
      pz      :     0.939861  p :     2.981846
      px      :     1.029911
      py      :     1.012074
      dz2     :     0.011941  d :     0.044439
      dxz     :     0.015227
      dyz     :     0.006391
      dx2y2   :     0.006417
      dxy     :     0.004463

  6 C s       :     3.234050  s :     3.234050
      pz      :     1.071514  p :     2.979524
      px      :     0.971309
      py      :     0.936701
      dz2     :     0.008863  d :     0.047882
      dxz     :     0.010845
      dyz     :     0.008443
      dx2y2   :     0.010225
      dxy     :     0.009506

  7 H s       :     0.832795  s :     0.832795
      pz      :     0.009793  p :     0.013755
      px      :     0.001489
      py      :     0.002472

  8 C s       :     3.129813  s :     3.129813
      pz      :     0.930800  p :     2.834055
      px      :     0.945705
      py      :     0.957550
      dz2     :     0.013723  d :     0.051961
      dxz     :     0.016468
      dyz     :     0.007367
      dx2y2   :     0.007705
      dxy     :     0.006698

  9 H s       :     0.834337  s :     0.834337
      pz      :     0.003606  p :     0.013799
      px      :     0.007792
      py      :     0.002400

 10 C s       :     3.146139  s :     3.146139
      pz      :     0.950544  p :     2.948903
      px      :     1.022412
      py      :     0.975947
      dz2     :     0.011889  d :     0.045093
      dxz     :     0.015427
      dyz     :     0.006642
      dx2y2   :     0.006419
      dxy     :     0.004715

 11 H s       :     0.835334  s :     0.835334
      pz      :     0.003517  p :     0.013798
      px      :     0.007561
      py      :     0.002720

 12 C s       :     3.195594  s :     3.195594
      pz      :     0.863597  p :     2.736412
      px      :     0.959593
      py      :     0.913221
      dz2     :     0.013442  d :     0.070992
      dxz     :     0.017899
      dyz     :     0.015873
      dx2y2   :     0.014581
      dxy     :     0.009198

 13 H s       :     0.840626  s :     0.840626
      pz      :     0.007795  p :     0.012552
      px      :     0.001686
      py      :     0.003071

 14 H s       :     0.843258  s :     0.843258
      pz      :     0.003421  p :     0.012398
      px      :     0.005405
      py      :     0.003572

 15 C s       :     2.941259  s :     2.941259
      pz      :     0.643237  p :     2.100146
      px      :     0.833310
      py      :     0.623598
      dz2     :     0.043784  d :     0.147710
      dxz     :     0.044467
      dyz     :     0.019386
      dx2y2   :     0.018516
      dxy     :     0.021557

 16 H s       :     0.586461  s :     0.586461
      pz      :     0.011320  p :     0.041455
      px      :     0.021207
      py      :     0.008928

 17 N s       :     3.602408  s :     3.602408
      pz      :     1.129591  p :     4.065798
      px      :     1.203175
      py      :     1.733033
      dz2     :     0.003368  d :     0.033533
      dxz     :     0.011248
      dyz     :     0.009437
      dx2y2   :     0.003760
      dxy     :     0.005720

 18 O s       :     3.838851  s :     3.838851
      pz      :     1.332163  p :     4.774465
      px      :     1.595542
      py      :     1.846760
      dz2     :     0.008340  d :     0.025604
      dxz     :     0.007437
      dyz     :     0.003553
      dx2y2   :     0.004598
      dxy     :     0.001676

 19 H s       :     0.686124  s :     0.686124
      pz      :     0.005321  p :     0.026533
      px      :     0.013743
      py      :     0.007469

 20 O s       :     3.875292  s :     3.875292
      pz      :     1.766713  p :     4.680022
      px      :     1.433847
      py      :     1.479462
      dz2     :     0.003699  d :     0.032899
      dxz     :     0.008608
      dyz     :     0.002207
      dx2y2   :     0.007105
      dxy     :     0.011279

 21 H s       :     0.824549  s :     0.824549
      pz      :     0.003328  p :     0.011991
      px      :     0.005185
      py      :     0.003477

 22 H s       :     0.691724  s :     0.691724
      pz      :     0.008818  p :     0.026650
      px      :     0.010651
      py      :     0.007181



                     *******************************
                     * LOEWDIN POPULATION ANALYSIS *
                     *******************************

----------------------
LOEWDIN ATOMIC CHARGES
----------------------
   0 C :   -0.079309
   1 C :   -0.067929
   2 C :   -0.079895
   3 H :    0.077430
   4 H :    0.074960
   5 C :   -0.089616
   6 C :   -0.109515
   7 H :    0.077337
   8 C :   -0.022657
   9 H :    0.076630
  10 C :   -0.065127
  11 H :    0.073984
  12 C :   -0.014110
  13 H :    0.075895
  14 H :    0.074105
  15 C :    0.247299
  16 H :    0.201845
  17 N :   -0.282818
  18 O :   -0.206580
  19 H :    0.135983
  20 O :   -0.307080
  21 H :    0.078541
  22 H :    0.130630

-------------------------------
LOEWDIN REDUCED ORBITAL CHARGES
-------------------------------
  0 C s       :     2.886178  s :     2.886178
      pz      :     1.058763  p :     3.099472
      px      :     1.058387
      py      :     0.982323
      dz2     :     0.027042  d :     0.093659
      dxz     :     0.034464
      dyz     :     0.012316
      dx2y2   :     0.012234
      dxy     :     0.007603

  1 C s       :     2.887003  s :     2.887003
      pz      :     1.057962  p :     3.086356
      px      :     1.062996
      py      :     0.965397
      dz2     :     0.025910  d :     0.094569
      dxz     :     0.031109
      dyz     :     0.005292
      dx2y2   :     0.016303
      dxy     :     0.015955

  2 C s       :     2.884009  s :     2.884009
      pz      :     1.055944  p :     3.102050
      px      :     1.054128
      py      :     0.991977
      dz2     :     0.026242  d :     0.093836
      dxz     :     0.030904
      dyz     :     0.005239
      dx2y2   :     0.016522
      dxy     :     0.014930

  3 H s       :     0.881222  s :     0.881222
      pz      :     0.011081  p :     0.041348
      px      :     0.022248
      py      :     0.008019

  4 H s       :     0.883483  s :     0.883483
      pz      :     0.027825  p :     0.041558
      px      :     0.005515
      py      :     0.008218

  5 C s       :     2.886113  s :     2.886113
      pz      :     1.051353  p :     3.109502
      px      :     1.059119
      py      :     0.999029
      dz2     :     0.027115  d :     0.094001
      dxz     :     0.034639
      dyz     :     0.012567
      dx2y2   :     0.011866
      dxy     :     0.007814

  6 C s       :     2.890876  s :     2.890876
      pz      :     1.068577  p :     3.127275
      px      :     1.034366
      py      :     1.024332
      dz2     :     0.016190  d :     0.091364
      dxz     :     0.020581
      dyz     :     0.015267
      dx2y2   :     0.020565
      dxy     :     0.018761

  7 H s       :     0.881285  s :     0.881285
      pz      :     0.027933  p :     0.041378
      px      :     0.005555
      py      :     0.007889

  8 C s       :     2.865779  s :     2.865779
      pz      :     1.060678  p :     3.044914
      px      :     1.040359
      py      :     0.943877
      dz2     :     0.030785  d :     0.111964
      dxz     :     0.038298
      dyz     :     0.014599
      dx2y2   :     0.015275
      dxy     :     0.013007

  9 H s       :     0.881824  s :     0.881824
      pz      :     0.011273  p :     0.041546
      px      :     0.022533
      py      :     0.007740

 10 C s       :     2.886723  s :     2.886723
      pz      :     1.061125  p :     3.083790
      px      :     1.059674
      py      :     0.962991
      dz2     :     0.026967  d :     0.094614
      dxz     :     0.034570
      dyz     :     0.013046
      dx2y2   :     0.011802
      dxy     :     0.008230

 11 H s       :     0.884416  s :     0.884416
      pz      :     0.011060  p :     0.041600
      px      :     0.021907
      py      :     0.008633

 12 C s       :     2.871911  s :     2.871911
      pz      :     0.968608  p :     3.000684
      px      :     1.019088
      py      :     1.012988
      dz2     :     0.027687  d :     0.141514
      dxz     :     0.035266
      dyz     :     0.031067
      dx2y2   :     0.029656
      dxy     :     0.017838

 13 H s       :     0.883594  s :     0.883594
      pz      :     0.023072  p :     0.040511
      px      :     0.006616
      py      :     0.010823

 14 H s       :     0.885731  s :     0.885731
      pz      :     0.011534  p :     0.040164
      px      :     0.016373
      py      :     0.012258

 15 C s       :     2.839438  s :     2.839438
      pz      :     0.888363  p :     2.594274
      px      :     1.046572
      py      :     0.659339
      dz2     :     0.097944  d :     0.318989
      dxz     :     0.100879
      dyz     :     0.039775
      dx2y2   :     0.039731
      dxy     :     0.040659

 16 H s       :     0.678079  s :     0.678079
      pz      :     0.031559  p :     0.120077
      px      :     0.060870
      py      :     0.027647

 17 N s       :     3.177199  s :     3.177199
      pz      :     1.160092  p :     4.045141
      px      :     1.182039
      py      :     1.703010
      dz2     :     0.009218  d :     0.060479
      dxz     :     0.021816
      dyz     :     0.015382
      dx2y2   :     0.007286
      dxy     :     0.006777

 18 O s       :     3.457729  s :     3.457729
      pz      :     1.341459  p :     4.700659
      px      :     1.565455
      py      :     1.793744
      dz2     :     0.018780  d :     0.048192
      dxz     :     0.016580
      dyz     :     0.005754
      dx2y2   :     0.005838
      dxy     :     0.001241

 19 H s       :     0.780259  s :     0.780259
      pz      :     0.017084  p :     0.083758
      px      :     0.040362
      py      :     0.026312

 20 O s       :     3.545865  s :     3.545865
      pz      :     1.740257  p :     4.703672
      px      :     1.511898
      py      :     1.451517
      dz2     :     0.007997  d :     0.057543
      dxz     :     0.017626
      dyz     :     0.002610
      dx2y2   :     0.016815
      dxy     :     0.012496

 21 H s       :     0.881663  s :     0.881663
      pz      :     0.011263  p :     0.039797
      px      :     0.016674
      py      :     0.011859

 22 H s       :     0.785581  s :     0.785581
      pz      :     0.027161  p :     0.083790
      px      :     0.032350
      py      :     0.024279



                      *****************************
                      * MAYER POPULATION ANALYSIS *
                      *****************************

  NA   - Mulliken gross atomic population
  ZA   - Total nuclear charge
  QA   - Mulliken gross atomic charge
  VA   - Mayer's total valence
  BVA  - Mayer's bonded valence
  FA   - Mayer's free valence

  ATOM       NA         ZA         QA         VA         BVA        FA
  0 C      6.1553     6.0000    -0.1553     3.9257     3.9257    -0.0000
  1 C      6.1398     6.0000    -0.1398     3.9194     3.9194    -0.0000
  2 C      6.1491     6.0000    -0.1491     3.9204     3.9204    -0.0000
  3 H      0.8466     1.0000     0.1534     0.9525     0.9525     0.0000
  4 H      0.8489     1.0000     0.1511     0.9538     0.9538     0.0000
  5 C      6.1738     6.0000    -0.1738     3.9329     3.9329     0.0000
  6 C      6.2615     6.0000    -0.2615     3.7972     3.7972     0.0000
  7 H      0.8465     1.0000     0.1535     0.9524     0.9524    -0.0000
  8 C      6.0158     6.0000    -0.0158     3.8841     3.8841     0.0000
  9 H      0.8481     1.0000     0.1519     0.9532     0.9532    -0.0000
 10 C      6.1401     6.0000    -0.1401     3.9244     3.9244     0.0000
 11 H      0.8491     1.0000     0.1509     0.9557     0.9557     0.0000
 12 C      6.0030     6.0000    -0.0030     3.7302     3.7302     0.0000
 13 H      0.8532     1.0000     0.1468     0.9472     0.9472     0.0000
 14 H      0.8557     1.0000     0.1443     0.9519     0.9519     0.0000
 15 C      5.1891     6.0000     0.8109     3.6920     3.6920     0.0000
 16 H      0.6279     1.0000     0.3721     0.8719     0.8719    -0.0000
 17 N      7.7017     7.0000    -0.7017     2.7479     2.7479     0.0000
 18 O      8.6389     8.0000    -0.6389     1.8353     1.8353    -0.0000
 19 H      0.7127     1.0000     0.2873     0.9062     0.9062    -0.0000
 20 O      8.5882     8.0000    -0.5882     1.8942     1.8942    -0.0000
 21 H      0.8365     1.0000     0.1635     0.9407     0.9407     0.0000
 22 H      0.7184     1.0000     0.2816     0.9122     0.9122    -0.0000

  Mayer bond orders larger than 0.100000
B(  0-C ,  1-C ) :   1.4569 B(  0-C ,  9-H ) :   0.9613 B(  0-C , 10-C ) :   1.4420 
B(  1-C ,  5-C ) :   1.4371 B(  1-C ,  7-H ) :   0.9605 B(  2-C ,  4-H ) :   0.9585 
B(  2-C ,  8-C ) :   1.4355 B(  2-C , 10-C ) :   1.4560 B(  3-H , 10-C ) :   0.9605 
B(  5-C ,  8-C ) :   1.4452 B(  5-C , 11-H ) :   0.9589 B(  6-C ,  8-C ) :   0.9855 
B(  6-C , 12-C ) :   0.9216 B(  6-C , 13-H ) :   0.9623 B(  6-C , 14-H ) :   0.9692 
B( 12-C , 15-C ) :   0.9270 B( 12-C , 17-N ) :   0.9866 B( 12-C , 21-H ) :   0.9557 
B( 15-C , 18-O ) :   0.9795 B( 15-C , 20-O ) :   1.8207 B( 16-H , 18-O ) :   0.8404 
B( 17-N , 19-H ) :   0.8903 B( 17-N , 22-H ) :   0.8955 

-------
TIMINGS
-------

Total SCF time: 0 days 0 hours 0 min 30 sec 

Total time                  ....      30.282 sec
Sum of individual times     ....      28.474 sec  ( 94.0%)

SCF preparation             ....       0.017 sec  (  0.1%)
Fock matrix formation       ....      28.374 sec  ( 93.7%)
  Startup                   ....       0.001 sec  (  0.0% of F)
  Coulomb+Exchange Fock     ....      30.170 sec  (106.3% of F)
Diagonalization             ....       0.000 sec  (  0.0%)
Density matrix formation    ....       0.005 sec  (  0.0%)
Total Energy calculation    ....       0.001 sec  (  0.0%)
Population analysis         ....       0.004 sec  (  0.0%)
Orbital Transformation      ....       0.008 sec  (  0.0%)
Orbital Orthonormalization  ....       0.000 sec  (  0.0%)
DIIS solution               ....       0.044 sec  (  0.1%)
SOSCF solution              ....       0.020 sec  (  0.1%)
Finished LeanSCF after  30.3 sec

Maximum memory used throughout the entire LEANSCF-calculation: 17.3 MB

------------------------------------------------------------------------------
                                ORCA  MP2 
------------------------------------------------------------------------------

Freezing NCore=24 chemical core electrons

----------
MP2 ENERGY (disk based algorithm)
----------

Dimension of the basis                      ...  223
Memory devoted to MP2                       ... 4096 MB   
Data format for buffers                     ... DOUBLE
Compression type for matrix containers      ... UNCOMPRESSED

-------------------------
SHARK HALF TRANSFORMATION (Exchange order)
-------------------------

Number of basis functions                   ...    223
Number of operators                         ...      1
   Operator  0:   12-  43 (p-index in (p*|q*))
   Operator  0:   12-  43 (q-index in (p*|q*)
Integral generator used                     ... SHARK
Contraction scheme used                     ... SEGMENTED CONTRACTION
MaxCore in resort                           ...   4096 MB

Half transformed integrals for op=   0      ... 5.SHARK_MNPQ0.tmp
Resorted half transformed integrals         ... 5.KAO_aa.tmp

Half trafo (segmented) done. Total time = 18.4 sec. integrals= 16.3 sec trafo=  1.9 sec

----------------------
SHARK INTEGRAL SORTING (Exchange)
----------------------

Input container                             ... 5.SHARK_MNPQ0.tmp
Output container                            ... 5.KAO_aa.tmp
Range of AO-indices                         ...    0 -  222
Range of bra indices i                      ...   12 -   43
Range of ket indices j                      ...   12 -   43
Symmetric i,j range                         ... YES
Number of (i,j) pairs generated             ...  528
Max Core memory in MB                       ...   4096

Available core memory in MB                 ...   4083.90
MB needed for one item                      ...      0.38
Fixed MB needed                             ...      0.00
Number of items                             ...       528
Number of batches                           ...         1
Items treated per batch                     ...       528
Batch   0                                   ...      0-   527 (   528)
   => Closing output file and leaving
done (  0.2 sec)

SHARK half integral transformation done. Total time = 18.7 sec.


Finished integral transformation - now doing MP2 part

OPERATOR COMBINATION   0   0: ij=( 12.. 43, 12.. 43)
  Internal MO  14
  Internal MO  17
  Internal MO  20
  Internal MO  23
  Internal MO  26
  Internal MO  29
  Internal MO  32
  Internal MO  35
  Internal MO  38
  Internal MO  41
-----------------------------------------------
 MP2 CORRELATION ENERGY   :     -1.707214684 Eh
-----------------------------------------------


-------
TIMINGS
-------
Total time                :   19.017 sec
Integral trafo            :   18.697 sec ( 98.3%)
K(i,j)                    :    0.273 sec (  1.4%)
T(i,j)                    :    0.007 sec (  0.0%)

---------------------------------------
MP2 TOTAL ENERGY:     -553.141668380 Eh
---------------------------------------

Maximum memory used throughout the entire MP2-calculation: 214.0 MB

-------------------------   --------------------
FINAL SINGLE POINT ENERGY      -553.141668379883
-------------------------   --------------------


------------------------------------------------------------------------------
                              ORCA PROPERTY CALCULATIONS
------------------------------------------------------------------------------

GBWName                                 ... 5.gbw
Number of atoms                         ...     23
Number of basis functions               ...    223
Max core memory                         ...   4096 MB

Electric properties:
Dipole moment                           ... YES
Quadrupole moment                       ...  NO
Static polarizability (Dipole/Dipole)   ...  NO
Static polarizability (Dipole/Quad.)    ...  NO
Static polarizability (Quad./Quad.)     ...  NO
Static polarizability (Velocity)        ...  NO
Static hyperpolarizability              ...  NO

Atomic electric properties:
Dipole moment                           ...  NO
Quadrupole moment                       ...  NO
Static polarizability                   ...  NO

Choice of electric origin               ... Center of mass
Position of electric origin             ...    -6.181308     3.080873     0.659268

General magnetic properties:
Magnetizability                         ...  NO

EPR properties:
g-Tensor (aka g-matrix)                 ...  NO
Zero-Field splitting spin-orbit         ...  NO
Zero-field splitting spin-spin          ...  NO
Hyperfine couplings                     ...  NO (   0 nuclei)
Quadrupole couplings                    ...  NO (   0 nuclei)
Contact density                         ...  NO (   0 nuclei)

NMR properties:
Chemical shifts                         ...  NO (   0 nuclei)
Spin-rotation constants                 ...  NO (   0 nuclei)
Spin-spin couplings                     ...  NO (   0 nuclei,    0 pairs)

Choice of magnetic origin               ... GIAO
Position of magnetic origin             ...     0.000000     0.000000     0.000000

Properties with geometric perturbations:
SCF Hessian                             ...  NO
IR spectrum                             ...  NO
VCD spectrum                            ...  NO
X-ray spectroscopy properties:
SCF XES/XAS/RIXS spectra                ...  NO

SCF SOC stabilization energy            ...  NO
Diagonal Born-Oppenheimer correction    ...  NO

-------------
DIPOLE MOMENT
-------------

Method             : SCF
Type of density    : Electron Density
Multiplicity       :   1
Irrep              :   0
Energy             :  -551.4344536959581546 Eh
Basis              : AO
                                X                 Y                 Z
Electronic contribution:      3.679579106       0.632280152       3.089863721
Nuclear contribution   :     -4.412260804      -1.189282263      -2.910911484
                        -----------------------------------------
Total Dipole Moment    :     -0.732681698      -0.557002111       0.178952237
                        -----------------------------------------
Magnitude (a.u.)       :      0.937602114
Magnitude (Debye)      :      2.383195179



--------------------
Rotational spectrum 
--------------------
 
Rotational constants in cm-1:             0.081586             0.015764             0.014351 
Rotational constants in MHz :          2445.879508           472.586921           430.226229 

Dipole components along the rotational axes: 
x,y,z [a.u.] :     0.666294     0.552516     0.360383 
x,y,z [Debye]:     1.693585     1.404385     0.916020 

 

Dipole moment calculation done in   0.0 sec 

Maximum memory used throughout the entire PROP-calculation: 12.3 MB

--------------------------------
SUGGESTED CITATIONS FOR THIS RUN
--------------------------------

Below you find a list of papers that are relevant to this ORCA run
We neither can nor want to force you to cite these papers, but we appreciate if you do
You receive ORCA, which is the product of decades of hard work by many enthusiastic individuals, for free
The only thing we kindly ask in return is that you cite our papers,
We deeply appreciate it, if you show your appreciation for ORCA by not just citing the generic ORCA reference.

Please note that relegating all ORCA citations to the supporting information does *not* help us.
SI sections are not indexed - citations you put there will not count into any citation statistics
But we need these citations in order to attract the funding resources that allow us to do what we are doing

Therefore, if you are a happy ORCA user, please consider citing a few of the papers listed below in the main body of your paper

In addition to the list printed below, the program has created the file 5.bibtex that contains the list in bibtex format
You can import this file easily into all common literature databanks and citation aid programs


List of essential papers. We consider these as the minimum necessary citations

  1. Neese, F.
     Software update: the ORCA program system, version 6.0
     WIRES Comput. Molec. Sci. 2025 15(1), e70019
     doi.org/10.1002/wcms.7019

List of papers to cite with high priority. The work reported in these papers was absolutely
necessary for this run to complete.
Our perspective: the developers of density functionals and basis sets usually get cited in chemistry papers
Good! But without the algorithms to do something with them, the functionals or basis sets would not do anything.
Hence, in our opinion, the algorithm design and method developments papers are equally worthy of getting cited

  1. Neese, F.
     The SHARK Integral Generation and Digestion System
     J. Comp. Chem. 2022 44(3), 381
     doi.org/10.1002/jcc.26942

List of suggested additional citations. These are papers that are important in the 'surrounding' of 
of this run, or papers that preceded the highly important papers. If you like your results we are grateful for a citation.

  1. Neese, F.
     The ORCA program system
     WIRES Comput. Molec. Sci. 2012 2(1), 73-78
     doi.org/10.1002/wcms.81
  2. Neese, F.
     Software update: the ORCA program system, version 4.0
     WIRES Comput. Molec. Sci. 2018 8(1), 1-6
     doi.org/10.1002/wcms.1327
  3. Neese, F.; Wennmohs, F.; Becker, U.; Riplinger, C.
     The ORCA quantum chemistry program package
     J. Chem. Phys. 2020 152(22), 224108
     doi.org/10.1063/5.0004608
  4. Neese, F.
     Software update: The ORCA program system—Version 5.0
     WIRES Comput. Molec. Sci. 2022 12(1), e1606
     doi.org/10.1002/wcms.1606

List of optional additional citations

  1. Neese, F.
     Approximate second-order SCF convergence for spin unrestricted wavefunctions
     Chem. Phys. Lett. 2000 325(1-3), 93-98
     doi.org/10.1016/s0009-2614(00)00662-x

Timings for individual modules:

Sum of individual times          ...       50.243 sec (=   0.837 min)
Startup calculation              ...        0.551 sec (=   0.009 min)   1.1 %
SCF iterations                   ...       30.623 sec (=   0.510 min)  61.0 %
Property calculations            ...        0.026 sec (=   0.000 min)   0.1 %
MP2 module                       ...       19.043 sec (=   0.317 min)  37.9 %
                             ****ORCA TERMINATED NORMALLY****
TOTAL RUN TIME: 0 days 0 hours 0 minutes 50 seconds 280 msec
