
                                 *****************
                                 * O   R   C   A *
                                 *****************

                                            #,                                       
                                            ###                                      
                                            ####                                     
                                            #####                                    
                                            ######                                   
                                           ########,                                 
                                     ,,################,,,,,                         
                               ,,#################################,,                 
                          ,,##########################################,,             
                       ,#########################################, ''#####,          
                    ,#############################################,,   '####,        
                  ,##################################################,,,,####,       
                ,###########''''           ''''###############################       
              ,#####''   ,,,,##########,,,,          '''####'''          '####       
            ,##' ,,,,###########################,,,                        '##       
           ' ,,###''''                  '''############,,,                           
         ,,##''                                '''############,,,,        ,,,,,,###''
      ,#''                                            '''#######################'''  
     '                                                          ''''####''''         
             ,#######,   #######,   ,#######,      ##                                
            ,#'     '#,  ##    ##  ,#'     '#,    #''#        ,####,    ,#,          
            ##       ##  ##   ,#'  ##            #'  '#       #'       ,# #          
            ##       ##  #######   ##           ,######,      #####,      #          
            '#,     ,#'  ##    ##  '#,     ,#' ,#      #,     #,   #      #          
             '#######'   ##     ##  '#######'  #'      '#     '####' #    #          



                #########################################################
                #                        -***-                          #
                #          Department of theory and spectroscopy        #
                #                                                       #
                #                      Frank Neese                      #
                #                                                       #
                #     Directorship, Architecture, Infrastructure        #
                #                    SHARK, DRIVERS                     #
                #        Core code/Algorithms in most modules           #
                #                                                       #
                #        Max Planck Institute fuer Kohlenforschung      #
                #                Kaiser Wilhelm Platz 1                 #
                #                 D-45470 Muelheim/Ruhr                 #
                #                      Germany                          #
                #                                                       #
                #                  All rights reserved                  #
                #                        -***-                          #
                #########################################################


                         Program Version 6.1.0  -  RELEASE   -
                                (GIT: $679e74b$)
                          ($2025-06-10 18:02:51 +0200$)


 With contributions from (in alphabetic order):
[Max-Planck-Institut fuer Kohlenforschung]                               
  Daniel Aravena         : Magnetic Suceptibility                        
  Michael Atanasov       : Ab Initio Ligand Field Theory (pilot matlab implementation)
  Alexander A. Auer      : GIAO ZORA, VPT2 properties, NMR spectrum      
  Ute Becker             : All parallelization in ORCA, NUMFREQ, NUMCALC 
  Giovanni Bistoni       : ED, misc. LED, open-shell LED, HFLD           
  Dmytro Bykov           : pre 5.0 version of the SCF Hessian            
  Marcos Casanova-Páez   : Triplet and SCS-CIS(D). UHF-(DLPNO)-IP/EA/STEOM-CCSD. UHF-CVS-IP/STEOM-CCSD   
  Vijay G. Chilkuri      : MRCI spin determinant printing, contributions to CSF-ICE 
  Pauline Colinet        : FMM embedding                                 
  Dipayan Datta          : RHF DLPNO-CCSD density                        
  Achintya Kumar Dutta   : EOM-CC, STEOM-CC                              
  Nicolas Foglia         : Exact transition moments, OPA infrastructure, MCD improvements    
  Dmitry Ganyushin       : Spin-Orbit,Spin-Spin,Magnetic field MRCI      
  Miquel Garcia-Rates    : C-PCM and meta-GGA Hessian, CCSD/C-PCM, Gaussian charge scheme 
  Tiago L. C. Gouveia    : GS-ROHF, GS-ROCIS                             
  Yang Guo               : DLPNO-NEVPT2, F12-NEVPT2, CIM, IAO-localization        
  Andreas Hansen         : Spin unrestricted coupled pair/coupled cluster methods 
  Ingolf Harden          : AUTO-CI MPn and infrastructure                
  Benjamin Helmich-Paris : MC-RPA, TRAH-(SCF,CASSCF), AVAS, COSX integrals, SCF dyn. polar., MC-PDFT, srDFT 
  Lee Huntington         : MR-EOM, pCC                                   
  Robert Izsak           : Overlap fitted RIJCOSX, COSX-SCS-MP3, EOM     
  Riya Kayal             : Wick's Theorem for AUTO-CI, AUTO-CI UHF-CCSDT 
  Emily Kempfer          : AUTO-CI RHF CISDT and CCSDT, approximate NEVPT4
  Christian Kollmar      : KDIIS, OOCD, Brueckner-CCSD(T), CCSD density, CASPT2, CASPT2-K, improved NEVPT2 
  Axel Koslowski         : Symmetry handling                             
  Simone Kossmann        : meta-GGA functionals, TD-DFT gradient, OOMP2, (MP2 Hessian; deprecated post 5.0) 
  Lucas Lang             : DCDCAS, Hyperfine gauge corrections, ICE-SOC+SSC
  Marvin Lechner         : AUTO-CI (C++ implementation), FIC-MRCC        
  Spencer Leger          : CASSCF response                               
  Dagmar Lenk            : GEPOL surface, SMD, ORCA-2-JSON               
  Dimitrios Liakos       : Extrapolation schemes; Compound Job, Property file
  Dimitrios Manganas     : Further ROCIS development; embedding schemes. LFT, Crystal Embedding 
  Dimitrios Pantazis     : SARC Basis sets                               
  Anastasios Papadopoulos: AUTO-CI, single reference methods and gradients 
  Taras Petrenko         : pre 6.0 DFT Hessian and TD-DFT gradient,  ECA, NRVS 
  Petra Pikulova         : Analytic Raman intensities                    
  Peter Pinski           : DLPNO-MP2, DLPNO-MP2 Gradient                 
  Shashank Vittal Rao    : ES-AILFT, MagRelax                            
  Christoph Reimann      : Effective Core Potentials                     
  Marius Retegan         : Local ZFS, SOC                                
  Christoph Riplinger    : Optimizer, TS searches, QM/MM, DLPNO-CCSD(T), (RO)-DLPNO pert. Triples 
  Michael Roemelt        : Original ROCIS implementation, recursive CI coupling coefficients
  Masaaki Saitow         : Open-shell DLPNO-CCSD energy and density      
  Barbara Sandhoefer     : DKH picture change effects                    
  Yorick L. A. Schmerwitz: GMF and freeze-and-release deltaSCF, NEB S-IDPP initial path                    
  Kantharuban Sivalingam : CASSCF convergence/infrastructure, NEVPT2, NEVPT3, NEVPT4(SD), FIC-MRCI and CEPA variants
  Bernardo de Souza      : ESD, SOC TD-DFT                               
  Georgi L. Stoychev     : AutoAux, RI-MP2 NMR, DLPNO-MP2 response, X2C  
  Van Anh Tran           : RI-MP2 g-tensors                              
  Willem Van den Heuvel  : Paramagnetic NMR                              
  Zikuan Wang            : NOTCH, Electric field optimization            
  Frank Wennmohs         : Technical directorship and infrastructure     
  Hang Xu                : AUTO-CI-Response properties                   
                                                                         
[FACCTs GmbH]                                                            
  Markus Bursch, Nicolas Foglia, Miquel Garcia-Rates, Ingolf Harden, Hagen Neugebauer, Anastasios Papadopoulos, 
  Christoph Riplinger, Bernardo de Souza, Georgi L. Stoychev                                                    
                                                                 
  APM, various basis sets, CI-OPT, improved COSX, DLPNO-Multilevel,           
  DOCKER, DRACO, updates on ESD, Fragmentator, GOAT, IRC, LR-CPCM, L-BFGS, MBIS, meta-GGA TD-DFT gradient, ML-optimized integration grids, 
  MM, NACMEs, nearIR, NEB, NEB-TS, NL-DFT gradient (VV10), 2- and 3-layer-ONIOM, interface openCOSMO-RS, QMMM,   
  Crystal-QMMM, RESP, rigid body optimization, SF, symmetry and pop. for TD-DFT, various functionals, SOLVATOR                                   
                                                                         
[Other institutions]                                                     
  V. Asgeirsson          : NEB                                           
  Christoph Bannwarth    : sTDA-DFT, sTD-DFT, PBEh-3c, B97-3c, D3        
  Giovanni Bistoni       : ETS/NOCV, ADLD/ADEX, COVALED                  
  Martin Brehm           : Molecular dynamics                            
  Ronald Cardenas        : ETS/NOCV                                      
  Martina Colucci        : COVALED                                       
  Sebastian Ehlert       : rSCAN, r2SCAN, r2SCAN-3c, D4, dhf basis sets  
  Marvin Friede          : D4 for Fr, Ra, Ac-Lr                          
  Lars Goerigk           : TD-DFT with DH, B97 family of functionals     
  Stefan Grimme          : VdW corrections, initial TS optimization, DFT functionals, gCP, sTDA/sTD-DF 
  Waldemar Hujo          : DFT-NL                                        
  H. Jonsson             : NEB                                           
  Holger Kruse           : gCP                                           
  Marcel Mueller         : wB97X-3c, vDZP basis set                      
  Hagen Neugebauer       : wr2SCAN, Native XTB                           
  Gianluca Regni         : ADLD/ADEX                                     
  Tobias Risthaus        : pre 6.0 range-separated hybrid DFT and stability analysis
  Lukas Wittmann         : regularized MP2, r2SCAN double-hybrids, wr2SCAN        
                                                                         
We gratefully acknowledge several colleagues who have allowed us to      
interface, adapt or use parts of their codes:                            
  Ed Valeev, F. Pavosevic, A. Kumar             : LibInt (2-el integral package), F12 methods 
  Garnet Chan, S. Sharma, J. Yang, R. Olivares  : DMRG                   
  Ulf Ekstrom                                   : XCFun DFT Library      
  Mihaly Kallay                                 : mrcc  (arbitrary order and MRCC methods)
  Frank Weinhold                                : gennbo (NPA and NBO analysis)           
  Simon Mueller                                 : openCOSMO-RS                            
  Christopher J. Cramer and Donald G. Truhlar   : smd solvation model                     
  S Lehtola, MJT Oliveira, MAL Marques          : LibXC Library                           
  Liviu Ungur et al                             : ANISO software                          


 Your calculation uses the libint2 library for the computation of 2-el integrals
 For citations please refer to: http://libint.valeyev.net

 Your ORCA version has been built with support for libXC version: 7.0.0
 For citations please refer to: https://libxc.gitlab.io

 This ORCA versions uses:
   CBLAS   interface :  Fast vector & matrix operations
   LAPACKE interface :  Fast linear algebra routines
   SCALAPACK package :  Parallel linear algebra routines
   Shared memory     :  Shared parallel matrices
   BLAS/LAPACK       :  OpenBLAS 0.3.29  USE64BITINT DYNAMIC_ARCH NO_AFFINITY Haswell SINGLE_THREADED
        Core in use  :  Haswell
   Copyright (c) 2011-2014, The OpenBLAS Project


  ***********************************
  * Starting time: Sat Aug 30 16:22:33 2025
  * Host name:     chemlab03
  * Process ID:    82579
  * Working dir.:  /home/vivek/mm-project/vivek/xtb-goat/B97-D-opt/k/3
  ***********************************



***************************************
The coordinates will be read from file: /home/vivek/mm-project/vivek/xtb-goat/xtb-goat/k/K_CONF/3.xyz
***************************************


Your calculation utilizes empirical dispersion correction


Warning: RI is on but no J-basis has been assigned. Assigning Def2/J (nothing to worry about!)
================================================================================

----- Orbital basis set information -----
Your calculation utilizes the basis: 6-31G**
   H-He, Li-Ne : W. J. Hehre, R. Ditchfield and J.A. Pople, J. Chem. Phys. 56, 2257 (1972).
                 Note: He and Ne are unpublished basis sets taken from the Gaussian program.
                 Note: Li and B from J. D. Dill and J. A. Pople, J. Chem. Phys. 62, 2921 (1975).
   Na - Ar     : M. M. Francl, W. J. Pietro, W. J. Hehre, J. S. Binkley, M. S. Gordon, 
                 D. J. DeFrees and J. A. Pople, J. Chem. Phys. 77, 3654 (1982).
   K - Zn      : V. A. Rassolov, J. A. Pople, M. A. Ratner, and T. L. Windus, J. Chem. Phys. 109, 1223 (1998).

----- AuxJ basis set information -----
Your calculation utilizes the auxiliary basis: def2/J
   H-Rn: F. Weigend, Phys. Chem. Chem. Phys. 8, 1057 (2006).
   Fr-Lr: K. Eichkorn, F. Weigend, O. Treutler, R. Ahlrichs; Theor. Chem. Acc. 97, 119 (1997).

================================================================================
                                        WARNINGS
                       Please study these warnings very carefully!
================================================================================


WARNING: Geometry Optimization
  ===> : Switching off AutoStart
         For restart on a previous wavefunction, please use MOREAD

INFO   : The exchange functional is Grimme's B97(-D)
         As described in S. Grimme, J. Comput. Chem. 27, 1787 (2006).
         Note that this functional defaults to a pure GGA. 

INFO   : The correlation functional is Grimme's B97(-D)
         As described in S. Grimme, J. Comput. Chem. 27, 1787 (2006).

================================================================================
                                       INPUT FILE
================================================================================
NAME = 3.inp
|  1> ! B97-D 6-31G** opt
|  2> 
|  3> * xyzfile 0 1 /home/vivek/mm-project/vivek/xtb-goat/xtb-goat/k/K_CONF/3.xyz
|  4> 
|  5>                          ****END OF INPUT****
================================================================================

                       *****************************
                       * Geometry Optimization Run *
                       *****************************

Geometry optimization settings:
Update method            Update   .... BFGS
Choice of coordinates    CoordSys .... (2022) Redundant Internals
Initial Hessian          InHess   .... Almloef's Model
Max. no of cycles        MaxIter  .... 72

Convergence Tolerances:
Energy Change            TolE     ....  5.0000e-06 Eh
Max. Gradient            TolMAXG  ....  3.0000e-04 Eh/bohr
RMS Gradient             TolRMSG  ....  1.0000e-04 Eh/bohr
Max. Displacement        TolMAXD  ....  4.0000e-03 bohr
RMS Displacement         TolRMSD  ....  2.0000e-03 bohr
Strict Convergence                .... False

------------------------------------------------------------------------------
                        ORCA OPTIMIZATION COORDINATE SETUP
------------------------------------------------------------------------------

The optimization will be done in redundant internal coordinates (2022)
Making redundant internal coordinates   ...  (2022 redundants) done
Evaluating the initial hessian          ...  (Almloef) done
Evaluating the coordinates              ...  done
Calculating the B-matrix                .... done
Calculating the G-matrix                .... done
The number of degrees of freedom        ....  104

    -----------------------------------------------------------------
                    Redundant Internal Coordinates


    -----------------------------------------------------------------
         Definition                    Initial Value    Approx d2E/dq
    -----------------------------------------------------------------
      1. B(C   1,C   0)                  1.5345         0.367383   
      2. B(N   4,H   2)                  1.0153         0.424412   
      3. B(N   4,C   0)                  1.4525         0.444809   
      4. B(N   4,H   3)                  1.0152         0.424493   
      5. B(C   5,C   1)                  1.5251         0.380426   
      6. B(H   6,C   1)                  1.0937         0.355175   
      7. B(H   7,C   1)                  1.0909         0.358848   
      8. B(C   8,C   5)                  1.5289         0.375132   
      9. B(H   9,C   5)                  1.0918         0.357691   
     10. B(H  10,C   5)                  1.0930         0.356139   
     11. B(C  11,C   8)                  1.5390         0.361398   
     12. B(H  12,C   8)                  1.0917         0.357866   
     13. B(H  13,C   8)                  1.0922         0.357171   
     14. B(C  14,C  11)                  1.5259         0.379312   
     15. B(N  16,C  11)                  1.4497         0.449417   
     16. B(O  17,H  15)                  0.9709         0.499561   
     17. B(O  17,C  14)                  1.3372         0.679314   
     18. B(H  18,C   0)                  1.0942         0.354527   
     19. B(H  19,C   0)                  1.0937         0.355299   
     20. B(H  20,N  16)                  1.0160         0.423276   
     21. B(O  21,C  14)                  1.2030         1.112227   
     22. B(H  22,C  11)                  1.0962         0.352048   
     23. B(H  23,N  16)                  1.0151         0.424732   
     24. A(C   1,C   0,H  19)          109.5355         0.322719   
     25. A(C   1,C   0,N   4)          114.5974         0.370989   
     26. A(N   4,C   0,H  18)          107.4432         0.330930   
     27. A(C   1,C   0,H  18)          109.7975         0.322604   
     28. A(H  18,C   0,H  19)          107.8536         0.289518   
     29. A(N   4,C   0,H  19)          107.3796         0.331050   
     30. A(C   5,C   1,H   6)          109.2490         0.324553   
     31. A(C   5,C   1,H   7)          109.0714         0.325103   
     32. A(C   0,C   1,H   6)          109.0548         0.322701   
     33. A(C   0,C   1,C   5)          111.8299         0.363442   
     34. A(H   6,C   1,H   7)          107.8647         0.290053   
     35. A(C   0,C   1,H   7)          109.6858         0.323246   
     36. A(C   0,N   4,H   3)          109.8127         0.338060   
     37. A(C   0,N   4,H   2)          109.9609         0.338049   
     38. A(H   2,N   4,H   3)          107.2782         0.301397   
     39. A(C   8,C   5,H  10)          108.2839         0.323951   
     40. A(C   1,C   5,H  10)          108.9997         0.324698   
     41. A(C   8,C   5,H   9)          109.1515         0.324183   
     42. A(C   1,C   5,H   9)          109.3396         0.324930   
     43. A(C   1,C   5,C   8)          113.3771         0.364742   
     44. A(H   9,C   5,H  10)          107.5209         0.290029   
     45. A(H  12,C   8,H  13)          108.3020         0.290183   
     46. A(C  11,C   8,H  12)          107.7739         0.322232   
     47. A(C  11,C   8,H  13)          108.7166         0.322129   
     48. A(C   5,C   8,H  13)          109.6816         0.324106   
     49. A(C   5,C   8,H  12)          108.6805         0.324209   
     50. A(C   5,C   8,C  11)          113.5486         0.361558   
     51. A(C  14,C  11,N  16)          111.6118         0.373699   
     52. A(C   8,C  11,N  16)          111.7184         0.370598   
     53. A(C   8,C  11,C  14)          108.4158         0.362242   
     54. A(N  16,C  11,H  22)          108.5910         0.331111   
     55. A(C  14,C  11,H  22)          107.6790         0.323926   
     56. A(C   8,C  11,H  22)          108.7057         0.321368   
     57. A(C  11,C  14,O  17)          112.8962         0.401605   
     58. A(O  17,C  14,O  21)          122.8124         0.484504   
     59. A(C  11,C  14,O  21)          124.2914         0.438510   
     60. A(H  20,N  16,H  23)          106.7931         0.301295   
     61. A(C  11,N  16,H  23)          109.9945         0.338674   
     62. A(C  11,N  16,H  20)          109.2914         0.338480   
     63. A(C  14,O  17,H  15)          110.5040         0.373402   
     64. D(H   6,C   1,C   0,H  19)    179.3722         0.010799   
     65. D(H   6,C   1,C   0,N   4)    -59.8970         0.010799   
     66. D(H   6,C   1,C   0,H  18)     61.1122         0.010799   
     67. D(C   5,C   1,C   0,N   4)    179.1666         0.010799   
     68. D(C   5,C   1,C   0,H  18)    -59.8242         0.010799   
     69. D(C   5,C   1,C   0,H  19)     58.4357         0.010799   
     70. D(H   2,N   4,C   0,C   1)     58.9680         0.016874   
     71. D(H   3,N   4,C   0,H  18)    178.8498         0.016874   
     72. D(H   3,N   4,C   0,C   1)    -58.8541         0.016874   
     73. D(H   2,N   4,C   0,H  19)   -179.1186         0.016874   
     74. D(H   2,N   4,C   0,H  18)    -63.3281         0.016874   
     75. D(H   9,C   5,C   1,C   0)    -56.4090         0.011533   
     76. D(C   8,C   5,C   1,H   6)     60.7288         0.011533   
     77. D(C   8,C   5,C   1,C   0)   -178.4476         0.011533   
     78. D(C   8,C   5,C   1,H   7)    -56.9512         0.011533   
     79. D(H   9,C   5,C   1,H   7)     65.0875         0.011533   
     80. D(H   9,C   5,C   1,H   6)   -177.2326         0.011533   
     81. D(H  12,C   8,C   5,H   9)     69.0880         0.011231   
     82. D(H  12,C   8,C   5,C   1)   -168.7686         0.011231   
     83. D(C  11,C   8,C   5,H  10)   -167.6050         0.011231   
     84. D(C  11,C   8,C   5,H   9)    -50.8367         0.011231   
     85. D(H  12,C   8,C   5,H  10)    -47.6802         0.011231   
     86. D(C  11,C   8,C   5,C   1)     71.3067         0.011231   
     87. D(N  16,C  11,C   8,H  13)     50.4793         0.010473   
     88. D(N  16,C  11,C   8,H  12)    167.6593         0.010473   
     89. D(N  16,C  11,C   8,C   5)    -71.9026         0.010473   
     90. D(C  14,C  11,C   8,H  13)    -72.9209         0.010473   
     91. D(C  14,C  11,C   8,H  12)     44.2590         0.010473   
     92. D(C  14,C  11,C   8,C   5)    164.6971         0.010473   
     93. D(O  17,C  14,C  11,N  16)    167.9040         0.010739   
     94. D(O  17,C  14,C  11,C   8)    -68.6316         0.010739   
     95. D(O  21,C  14,C  11,N  16)    -12.0114         0.010739   
     96. D(O  21,C  14,C  11,C   8)    111.4530         0.010739   
     97. D(O  17,C  14,C  11,H  22)     48.8136         0.010739   
     98. D(H  23,N  16,C  11,C  14)    -59.2182         0.017229   
     99. D(H  23,N  16,C  11,C   8)    179.2102         0.017229   
    100. D(H  20,N  16,C  11,H  22)    176.2719         0.017229   
    101. D(H  20,N  16,C  11,C  14)     57.7245         0.017229   
    102. D(H  20,N  16,C  11,C   8)    -63.8472         0.017229   
    103. D(H  15,O  17,C  14,O  21)     -0.7122         0.034365   
    104. D(H  15,O  17,C  14,C  11)    179.3709         0.034365   
    -----------------------------------------------------------------

Number of atoms                         .... 24
Number of degrees of freedom            .... 104


         *************************************************************
         *                GEOMETRY OPTIMIZATION CYCLE   1            *
         *************************************************************
---------------------------------
CARTESIAN COORDINATES (ANGSTROEM)
---------------------------------
  C    -14.040634    6.629333    0.526250
  C    -12.611153    6.314679    0.987139
  H    -15.021306    6.171635    2.251401
  H    -14.947894    4.932294    1.187277
  N    -15.080746    5.935721    1.265711
  C    -11.570825    7.059091    0.156865
  H    -12.504165    6.598505    2.037987
  H    -12.427836    5.242023    0.909857
  C    -10.131168    6.741866    0.562073
  H    -11.708060    6.814685   -0.898369
  H    -11.729484    8.134713    0.268836
  C     -9.680265    5.323643    0.169754
  H     -9.464559    7.451888    0.068822
  H    -10.018662    6.859196    1.642132
  C     -8.159147    5.256606    0.269396
  H     -6.580061    5.933770   -0.560222
  N    -10.314330    4.312333    0.992436
  O     -7.543810    5.993521   -0.661461
  H    -14.232218    7.702656    0.619245
  H    -14.153070    6.358719   -0.527412
  H    -10.018771    4.430732    1.957258
  O     -7.561468    4.612665    1.091206
  H     -9.953529    5.144727   -0.876608
  H    -10.009093    3.388376    0.703492

----------------------------
CARTESIAN COORDINATES (A.U.)
----------------------------
  NO LB      ZA    FRAG     MASS         X           Y           Z
   0 C     6.0000    0    12.011  -26.532952   12.527624    0.994469
   1 C     6.0000    0    12.011  -23.831625   11.933013    1.865422
   2 H     1.0000    0     1.008  -28.386155   11.662700    4.254531
   3 H     1.0000    0     1.008  -28.247425    9.320686    2.243629
   4 N     7.0000    0    14.007  -28.498480   11.216888    2.391847
   5 C     6.0000    0    12.011  -21.865690   13.339749    0.296432
   6 H     1.0000    0     1.008  -23.629447   12.469367    3.851237
   7 H     1.0000    0     1.008  -23.485207    9.905988    1.719381
   8 C     6.0000    0    12.011  -19.145134   12.740281    1.062165
   9 H     1.0000    0     1.008  -22.125026   12.877887   -1.697671
  10 H     1.0000    0     1.008  -22.165513   15.372380    0.508026
  11 C     6.0000    0    12.011  -18.293050   10.060228    0.320790
  12 H     1.0000    0     1.008  -17.885424   14.082028    0.130055
  13 H     1.0000    0     1.008  -18.932527   12.962003    3.103180
  14 C     6.0000    0    12.011  -15.418554    9.933546    0.509084
  15 H     1.0000    0     1.008  -12.434513   11.213200   -1.058666
  16 N     7.0000    0    14.007  -19.491259    8.149129    1.875433
  17 O     8.0000    0    15.999  -14.255735   11.326112   -1.249980
  18 H     1.0000    0     1.008  -26.894994   14.555910    1.170204
  19 H     1.0000    0     1.008  -26.745427   12.016238   -0.996664
  20 H     1.0000    0     1.008  -18.932734    8.372871    3.698682
  21 O     8.0000    0    15.999  -14.289104    8.716674    2.062080
  22 H     1.0000    0     1.008  -18.809444    9.722125   -1.656548
  23 H     1.0000    0     1.008  -18.914444    6.403103    1.329408

--------------------------------
INTERNAL COORDINATES (ANGSTROEM)
--------------------------------
 C      0   0   0     0.000000000000     0.00000000     0.00000000
 C      1   0   0     1.534549375138     0.00000000     0.00000000
 H      1   2   0     2.036504520987    98.51506760     0.00000000
 H      3   1   2     1.635149204855    66.26163861   266.33762933
 N      4   3   1     1.015217940538    36.36195713   320.34657122
 C      2   1   3     1.525052769986   111.82985523   203.12025770
 H      2   1   3     1.093748453501   109.05475944   324.05666405
 H      2   1   3     1.090948047367   109.68579208    81.97897345
 C      6   2   1     1.528867583527   113.37705581   181.55236488
 H      6   2   1     1.091826864165   109.33962648   303.59099486
 H      6   2   1     1.093011161404   108.99973705    60.86771327
 C      9   6   2     1.539020648723   113.54860442    71.30668221
 H      9   6   2     1.091694000195   108.68050065   191.23141376
 H      9   6   2     1.092222838352   109.68164987   309.46009698
 C     12   9   6     1.525851176307   108.41583838   164.69707269
 H     15  12   9     1.907965009521   141.35900724   291.84853188
 N     12   9   6     1.449686713741   111.71843107   288.09735962
 O     16  15  12     0.970892524271    41.03077801   359.07195551
 H      1   2   3     1.094246074890   109.79752855    97.05553071
 H      1   2   3     1.093653611461   109.53551124   215.31548963
 H     17  12   9     1.015999196615   109.29141277   296.15278594
 O     15  12   9     1.203017970266   124.29137151   111.45300913
 H     12   9   6     1.096155979579   108.70570455    47.91079340
 H     17  12   9     1.015064270647   109.99448601   179.21016137

---------------------------
INTERNAL COORDINATES (A.U.)
---------------------------
 C      0   0   0     0.000000000000     0.00000000     0.00000000
 C      1   0   0     2.899878057990     0.00000000     0.00000000
 H      1   2   0     3.848435815158    98.51506760     0.00000000
 H      3   1   2     3.089984185275    66.26163861   266.33762933
 N      4   3   1     1.918483873860    36.36195713   320.34657122
 C      2   1   3     2.881932075052   111.82985523   203.12025770
 H      2   1   3     2.066885036517   109.05475944   324.05666405
 H      2   1   3     2.061593035860   109.68579208    81.97897345
 C      6   2   1     2.889141027895   113.37705581   181.55236488
 H      6   2   1     2.063253758929   109.33962648   303.59099486
 H      6   2   1     2.065491756373   108.99973705    60.86771327
 C      9   6   2     2.908327540536   113.54860442    71.30668221
 H      9   6   2     2.063002682414   108.68050065   191.23141376
 H      9   6   2     2.064002041699   109.68164987   309.46009698
 C     12   9   6     2.883440844341   108.41583838   164.69707269
 H     15  12   9     3.605531341098   141.35900724   291.84853188
 N     12   9   6     2.739510868955   111.71843107   288.09735962
 O     16  15  12     1.834720976344    41.03077801   359.07195551
 H      1   2   3     2.067825404661   109.79752855    97.05553071
 H      1   2   3     2.066705811035   109.53551124   215.31548963
 H     17  12   9     1.919960233887   109.29141277   296.15278594
 O     15  12   9     2.273374497989   124.29137151   111.45300913
 H     12   9   6     2.071434601464   108.70570455    47.91079340
 H     17  12   9     1.918193479852   109.99448601   179.21016137

---------------------
BASIS SET INFORMATION
---------------------
There are 4 groups of distinct atoms

 Group   1 Type C   : 10s4p1d contracted to 3s2p1d pattern {631/31/1}
 Group   2 Type H   : 4s1p contracted to 2s1p pattern {31/1}
 Group   3 Type N   : 10s4p1d contracted to 3s2p1d pattern {631/31/1}
 Group   4 Type O   : 10s4p1d contracted to 3s2p1d pattern {631/31/1}

Atom   0C    basis set group =>   1
Atom   1C    basis set group =>   1
Atom   2H    basis set group =>   2
Atom   3H    basis set group =>   2
Atom   4N    basis set group =>   3
Atom   5C    basis set group =>   1
Atom   6H    basis set group =>   2
Atom   7H    basis set group =>   2
Atom   8C    basis set group =>   1
Atom   9H    basis set group =>   2
Atom  10H    basis set group =>   2
Atom  11C    basis set group =>   1
Atom  12H    basis set group =>   2
Atom  13H    basis set group =>   2
Atom  14C    basis set group =>   1
Atom  15H    basis set group =>   2
Atom  16N    basis set group =>   3
Atom  17O    basis set group =>   4
Atom  18H    basis set group =>   2
Atom  19H    basis set group =>   2
Atom  20H    basis set group =>   2
Atom  21O    basis set group =>   4
Atom  22H    basis set group =>   2
Atom  23H    basis set group =>   2
---------------------------------
AUXILIARY/J BASIS SET INFORMATION
---------------------------------
There are 4 groups of distinct atoms

 Group   1 Type C   : 12s5p4d2f1g contracted to 6s4p3d1f1g pattern {711111/2111/211/2/1}
 Group   2 Type H   : 5s2p1d contracted to 3s1p1d pattern {311/2/1}
 Group   3 Type N   : 12s5p4d2f1g contracted to 6s4p3d1f1g pattern {711111/2111/211/2/1}
 Group   4 Type O   : 12s5p4d2f1g contracted to 6s4p3d1f1g pattern {711111/2111/211/2/1}

Atom   0C    basis set group =>   1
Atom   1C    basis set group =>   1
Atom   2H    basis set group =>   2
Atom   3H    basis set group =>   2
Atom   4N    basis set group =>   3
Atom   5C    basis set group =>   1
Atom   6H    basis set group =>   2
Atom   7H    basis set group =>   2
Atom   8C    basis set group =>   1
Atom   9H    basis set group =>   2
Atom  10H    basis set group =>   2
Atom  11C    basis set group =>   1
Atom  12H    basis set group =>   2
Atom  13H    basis set group =>   2
Atom  14C    basis set group =>   1
Atom  15H    basis set group =>   2
Atom  16N    basis set group =>   3
Atom  17O    basis set group =>   4
Atom  18H    basis set group =>   2
Atom  19H    basis set group =>   2
Atom  20H    basis set group =>   2
Atom  21O    basis set group =>   4
Atom  22H    basis set group =>   2
Atom  23H    basis set group =>   2
------------------------------------------------------------------------------
                             ORCA STARTUP CALCULATIONS
                           -- RI-GTO INTEGRALS CHOSEN --
------------------------------------------------------------------------------
------------------------------------------------------------------------------
                   ___                                                        
                  /   \      - P O W E R E D   B Y -                         
                 /     \                                                     
                 |  |  |   _    _      __       _____    __    __             
                 |  |  |  | |  | |    /  \     |  _  \  |  |  /  |          
                  \  \/   | |  | |   /    \    | | | |  |  | /  /          
                 / \  \   | |__| |  /  /\  \   | |_| |  |  |/  /          
                |  |  |   |  __  | /  /__\  \  |    /   |      \           
                |  |  |   | |  | | |   __   |  |    \   |  |\   \          
                \     /   | |  | | |  |  |  |  | |\  \  |  | \   \       
                 \___/    |_|  |_| |__|  |__|  |_| \__\ |__|  \__/        
                                                                              
                      - O R C A' S   B I G   F R I E N D -                    
                                      &                                       
                       - I N T E G R A L  F E E D E R -                       
                                                                              
 v1 FN, 2020, v2 2021, v3 2022-2024                                           
------------------------------------------------------------------------------


----------------------
SHARK INTEGRAL PACKAGE
----------------------

Number of atoms                             ...     24
Number of basis functions                   ...    210
Number of shells                            ...    102
Maximum angular momentum                    ...      2
Integral batch strategy                     ... SHARK/LIBINT Hybrid
RI-J (if used) integral strategy            ... SPLIT-RIJ (Revised 2003 algorithm where possible)
Printlevel                                  ...      1
Contraction scheme used                     ... SEGMENTED contraction
Prescreening option                         ... SCHWARTZ
   Thresh                                   ... 2.500e-11
   Tcut                                     ... 2.500e-12
   Tpresel                                  ... 2.500e-12 
Coulomb Range Separation                    ... NOT USED
Exchange Range Separation                   ... NOT USED
Multipole approximations                    ... NOT USED
Finite Nucleus Model                        ... NOT USED
CABS basis                                  ... NOT available
Auxiliary Coulomb fitting basis             ... AVAILABLE
   # of basis functions in Aux-J            ...    644
   # of shells in Aux-J                     ...    220
   Maximum angular momentum in Aux-J        ...      4
Auxiliary J/K fitting basis                 ... NOT available
Auxiliary Correlation fitting basis         ... NOT available
Auxiliary 'external' fitting basis          ... NOT available

Checking pre-screening integrals            ... done (  0.0 sec) Dimension = 102
   => SHARK Basis and OBASIS are compatible. Storing Pre-screening
Shell pair information
Shell pair cut-off parameter TPreSel        ...   2.5e-12
Total number of shell pairs                 ...      5253
Shell pairs after pre-screening             ...      4361
Total number of primitive shell pairs       ...     24562
Primitive shell pairs kept                  ...     13390
          la=0 lb=0:   1447 shell pairs
          la=1 lb=0:   1643 shell pairs
          la=1 lb=1:    488 shell pairs
          la=2 lb=0:    471 shell pairs
          la=2 lb=1:    268 shell pairs
          la=2 lb=2:     44 shell pairs

Checking whether 4 symmetric matrices of dimension 210 fit in memory
:Max Core in MB      =   4096.00
 MB in use           =      9.22
 MB left             =   4086.78
 MB needed           =      0.68
 Data fit in memory  = YES
Calculating RI/J V-Matrix + Cholesky decomp.... done (  0.0 sec)
Calculating Nuclear repulsion               ... done (  0.0 sec) ENN=    554.619204621755 Eh

Diagonalization of the overlap matrix:
Smallest eigenvalue                        ... 2.758e-03
Time for diagonalization                   ...    0.002 sec
Threshold for overlap eigenvalues          ... 1.000e-07
Number of eigenvalues below threshold      ... 0
Time for construction of square roots      ...    0.001 sec
Total time needed                          ...    0.003 sec

-------------------
DFT GRID GENERATION
-------------------

General Integration Accuracy     IntAcc      ... 4.388
Radial Grid Type                 RadialGrid  ... OptM3 with GC (2021)
Angular Grid (max. ang.)         AngularGrid ... 4 (Lebedev-302)
Angular grid pruning method      GridPruning ... 4 (adaptive)
Weight generation scheme         WeightScheme... mBecke (2022)
Basis function cutoff            BFCut       ... 1.0000e-11
Integration weight cutoff        WCut        ... 1.0000e-14
Partially contracted basis set               ... off
Rotationally invariant grid construction     ... off
Angular grids for H and He will be reduced by one unit

Total number of grid points                  ...   104814
Total number of batches                      ...     1649
Average number of points per batch           ...       63
Average number of grid points per atom       ...     4367
Grids setup in   0.4 sec
Initializing property integral containers    ... done (  0.0 sec)

SHARK setup successfully completed in   0.5 seconds

Maximum memory used throughout the entire STARTUP-calculation: 44.1 MB
-------------------------------------------------------------------------------
                                 ORCA GUESS
                   Start orbitals & Density for SCF / CASSCF
-------------------------------------------------------------------------------

------------
SCF SETTINGS
------------
Hamiltonian:
 Density Functional     Method          .... DFT(GTOs)
 Exchange Functional    Exchange        .... B97(D)
 Correlation Functional Correlation     .... B97(D)
 Gradients option       PostSCFGGA      .... off
 RI-approximation to the Coulomb term is turned on
   Number of AuxJ basis functions       .... 644


General Settings:
 Integral files         IntName         .... 3
 Hartree-Fock type      HFTyp           .... RHF
 Total Charge           Charge          ....    0
 Multiplicity           Mult            ....    1
 Number of Electrons    NEL             ....   80
 Basis Dimension        Dim             ....  210
 Nuclear Repulsion      ENuc            ....    554.6192046218 Eh

Convergence Acceleration:
 AO-DIIS                CNVDIIS         .... on
   Start iteration      DIISMaxIt       ....    12
   Startup error        DIISStart       ....  0.200000
   # of expansion vecs  DIISMaxEq       ....     5
   Bias factor          DIISBfac        ....   1.050
   Max. coefficient     DIISMaxC        ....  10.000
 MO-DIIS                CNVKDIIS        .... off
 Trust-Rad. Augm. Hess. CNVTRAH         .... auto
   Auto Start mean grad. ratio tolernc. ....  1.125000
   Auto Start start iteration           ....    50
   Auto Start num. interpolation iter.  ....    10
   Max. Number of Micro iterations      ....    24
   Max. Number of Macro iterations      .... Maxiter - #DIIS iter
   Number of Davidson start vectors     ....     2
   Converg. threshold    (grad. norm)   ....   1.000e-05
   Grad. Scal. Fac. for Micro threshold ....   0.100
   Minimum threshold for Micro iter.    ....   1.000e-02
   NR start threshold (gradient norm)   ....   1.000e-04
   Initial trust radius                 ....   0.400
   Minimum AH scaling param. (alpha)    ....   1.000
   Maximum AH scaling param. (alpha)    .... 1000.000
   Quad. conv. algorithm                .... NR
   White noise on init. David. guess    .... on
   Maximum white noise                  ....   0.010
   Pseudo random numbers                .... off
   Inactive MOs                         .... canonical
   Orbital update algorithm             .... Taylor
   Preconditioner                       .... Diag
   Full preconditioner red. dimension   ....   250
 SOSCF                 CNVSOSCF           .... on
   Start iteration     SOSCFMaxIt         ....   150
   Startup grad/error  SOSCFStart         ....  0.003300
   Hessian update      SOSCFHessUp        .... L-BFGS
   Autom. constraints  SOSCFAutoConstrain .... off
 Level Shifting         CNVShift        .... on
   Level shift para.    LevelShift      ....    0.2500
   Turn off err/grad.   ShiftErr        ....    0.0010
 Zerner damping         CNVZerner       .... off
 Static damping         CNVDamp         .... on
   Fraction old density DampFac         ....    0.7000
   Max. Damping (<1)    DampMax         ....    0.9800
   Min. Damping (>=0)   DampMin         ....    0.0000
   Turn off err/grad.   DampErr         ....    0.1000

SCF Procedure:
 Maximum # iterations   MaxIter         ....   125
 SCF integral mode      SCFMode         .... Direct
   Integral package                     .... SHARK and LIBINT hybrid scheme
 Reset frequency        DirectResetFreq ....    20
 Integral Threshold     Thresh          ....  2.500e-11 Eh
 Primitive CutOff       TCut            ....  2.500e-12 Eh

Convergence Tolerance:
 Convergence Check Mode ConvCheckMode   .... Total+1el-Energy
 Convergence forced     ConvForced      .... 0
 Energy Change          TolE            ....  1.000e-08 Eh
 1-El. energy change                    ....  1.000e-05 Eh
 Orbital Gradient       TolG            ....  1.000e-05
 Orbital Rotation angle TolX            ....  1.000e-05
 DIIS Error             TolErr          ....  5.000e-07

------------------------------
INITIAL GUESS: MODEL POTENTIAL
------------------------------
Loading Hartree-Fock densities                     ... done
Calculating cut-offs                               ... done
Initializing the effective Hamiltonian             ... done
Setting up the integral package (SHARK)            ... done
Starting the Coulomb interaction                   ... done (   0.1 sec)
Making the grid                                    ... done (   0.1 sec)
Mapping shells                                     ... done
Starting the XC term evaluation                    ... done (   0.1 sec)
  promolecular density results
     # of electrons  =     80.003419571
     EX              =    -63.613091737
     EC              =     -3.479357851
     EX+EC           =    -67.092449589
Transforming the Hamiltonian                       ... done (   0.0 sec)
Diagonalizing the Hamiltonian                      ... done (   0.0 sec)
Back transforming the eigenvectors                 ... done (   0.0 sec)
Now organizing SCF variables                       ... done
                      ------------------
                      INITIAL GUESS DONE (   0.3 sec)
                      ------------------
             **** ENERGY FILE WAS UPDATED (3.en.tmp) ****
Finished Guess after   0.3 sec
Maximum memory used throughout the entire GUESS-calculation: 14.6 MB

-------------------------------------------------------------------------------------------
                                      ORCA LEAN-SCF
                              memory conserving SCF solver
-------------------------------------------------------------------------------------------

----------------------------------------D-I-I-S--------------------------------------------
Iteration    Energy (Eh)           Delta-E    RMSDP     MaxDP     DIISErr   Damp  Time(sec)
-------------------------------------------------------------------------------------------
               ***  Starting incremental Fock matrix formation  ***
    1    -496.2750662545166733     0.00e+00  3.52e-03  9.91e-02  2.54e-01  0.700   0.6
    2    -496.4774073236438880    -2.02e-01  2.32e-03  5.04e-02  9.63e-02  0.700   0.6
                               ***Turning on AO-DIIS***
    3    -496.5405172200581774    -6.31e-02  8.95e-04  1.87e-02  3.41e-02  0.700   0.6
    4    -496.5810899976548853    -4.06e-02  1.20e-03  2.16e-02  1.16e-02  0.000   0.6
    5    -496.6750824103224886    -9.40e-02  3.98e-04  9.38e-03  1.18e-02  0.000   0.6
    6    -496.6760461172838177    -9.64e-04  1.50e-04  3.15e-03  3.68e-03  0.000   0.6
                              *** Initializing SOSCF ***
---------------------------------------S-O-S-C-F--------------------------------------
Iteration    Energy (Eh)           Delta-E    RMSDP     MaxDP     MaxGrad    Time(sec)
--------------------------------------------------------------------------------------
    7    -496.6761284014811508    -8.23e-05  5.55e-05  1.10e-03  1.78e-03     0.6
               *** Restarting incremental Fock matrix formation ***
    8    -496.6761397485296357    -1.13e-05  3.65e-05  6.96e-04  1.13e-04     0.6
    9    -496.6761398553720710    -1.07e-07  1.59e-05  4.85e-04  2.36e-04     0.5
   10    -496.6761406351516825    -7.80e-07  1.64e-05  4.19e-04  2.02e-04     0.5
   11    -496.6761406053793735     2.98e-08  7.80e-06  2.29e-04  1.23e-04     0.5
   12    -496.6761409549509381    -3.50e-07  5.66e-06  1.06e-04  2.48e-05     0.5
   13    -496.6761409509834948     3.97e-09  2.22e-06  6.01e-05  3.56e-05     0.5
                 **** Energy Check signals convergence ****

               *****************************************************
               *                     SUCCESS                       *
               *           SCF CONVERGED AFTER  13 CYCLES          *
               *****************************************************

             **** ENERGY FILE WAS UPDATED (3.en.tmp) ****

----------------
TOTAL SCF ENERGY
----------------

Total Energy       :       -496.67614098330921 Eh          -13515.24490 eV

Components:
Nuclear Repulsion  :        554.61920462175465 Eh           15091.95582 eV
Electronic Energy  :      -1051.29534560506363 Eh          -28607.20072 eV
One Electron Energy:      -1775.92160853075893 Eh          -48325.28378 eV
Two Electron Energy:        724.62626292569519 Eh           19718.08306 eV

Virial components:
Potential Energy   :       -990.79203547642419 Eh          -26960.82195 eV
Kinetic Energy     :        494.11589449311498 Eh           13445.57705 eV
Virial Ratio       :          2.00518146960810

DFT components:
N(Alpha)           :       39.999988969843 electrons
N(Beta)            :       39.999988969843 electrons
N(Total)           :       79.999977939686 electrons
E(X)               :      -65.199013626880 Eh       
E(C)               :       -3.471127763126 Eh       
E(XC)              :      -68.670141390005 Eh       

---------------
SCF CONVERGENCE
---------------

  Last Energy change         ...   -3.9674e-09  Tolerance :   1.0000e-08
  Last MAX-Density change    ...    6.0132e-05  Tolerance :   1.0000e-07
  Last RMS-Density change    ...    2.2235e-06  Tolerance :   5.0000e-09
  Last DIIS Error            ...    1.7767e-03  Tolerance :   5.0000e-07
  Last Orbital Gradient      ...    3.5561e-05  Tolerance :   1.0000e-05
  Last Orbital Rotation      ...    4.0030e-05  Tolerance :   1.0000e-05


----------------
ORBITAL ENERGIES
----------------

  NO   OCC          E(Eh)            E(eV) 
   0   2.0000     -18.816138      -512.0132 
   1   2.0000     -18.755698      -510.3685 
   2   2.0000     -13.990377      -380.6975 
   3   2.0000     -13.969733      -380.1357 
   4   2.0000     -10.028629      -272.8929 
   5   2.0000      -9.949973      -270.7525 
   6   2.0000      -9.912803      -269.7411 
   7   2.0000      -9.910261      -269.6719 
   8   2.0000      -9.898838      -269.3611 
   9   2.0000      -9.880968      -268.8748 
  10   2.0000      -1.022844       -27.8330 
  11   2.0000      -0.933973       -25.4147 
  12   2.0000      -0.819596       -22.3023 
  13   2.0000      -0.791763       -21.5450 
  14   2.0000      -0.717067       -19.5124 
  15   2.0000      -0.666573       -18.1384 
  16   2.0000      -0.614658       -16.7257 
  17   2.0000      -0.559137       -15.2149 
  18   2.0000      -0.533427       -14.5153 
  19   2.0000      -0.514421       -13.9981 
  20   2.0000      -0.455764       -12.4020 
  21   2.0000      -0.444437       -12.0937 
  22   2.0000      -0.435910       -11.8617 
  23   2.0000      -0.423472       -11.5233 
  24   2.0000      -0.405594       -11.0368 
  25   2.0000      -0.392277       -10.6744 
  26   2.0000      -0.375850       -10.2274 
  27   2.0000      -0.372347       -10.1321 
  28   2.0000      -0.359220        -9.7749 
  29   2.0000      -0.343989        -9.3604 
  30   2.0000      -0.326303        -8.8792 
  31   2.0000      -0.317206        -8.6316 
  32   2.0000      -0.300986        -8.1902 
  33   2.0000      -0.295565        -8.0427 
  34   2.0000      -0.284482        -7.7411 
  35   2.0000      -0.277994        -7.5646 
  36   2.0000      -0.273484        -7.4419 
  37   2.0000      -0.225846        -6.1456 
  38   2.0000      -0.196561        -5.3487 
  39   2.0000      -0.170224        -4.6320 
  40   0.0000      -0.018851        -0.5130 
  41   0.0000       0.048732         1.3261 
  42   0.0000       0.069291         1.8855 
  43   0.0000       0.074105         2.0165 
  44   0.0000       0.088867         2.4182 
  45   0.0000       0.094086         2.5602 
  46   0.0000       0.119861         3.2616 
  47   0.0000       0.126923         3.4538 
  48   0.0000       0.135273         3.6810 
  49   0.0000       0.143575         3.9069 
  50   0.0000       0.158982         4.3261 
*Only the first 10 virtual orbitals were printed.

                    ********************************
                    * MULLIKEN POPULATION ANALYSIS *
                    ********************************

-----------------------
MULLIKEN ATOMIC CHARGES
-----------------------
   0 C :   -0.083183
   1 C :   -0.193212
   2 H :    0.229002
   3 H :    0.231209
   4 N :   -0.575299
   5 C :   -0.188906
   6 H :    0.074565
   7 H :    0.132681
   8 C :   -0.194015
   9 H :    0.095217
  10 H :    0.094999
  11 C :   -0.039507
  12 H :    0.119026
  13 H :    0.100870
  14 C :    0.481580
  15 H :    0.318371
  16 N :   -0.545907
  17 O :   -0.453574
  18 H :    0.096595
  19 H :    0.099670
  20 H :    0.246339
  21 O :   -0.417333
  22 H :    0.126218
  23 H :    0.244595
Sum of atomic charges:   -0.0000000

--------------------------------
MULLIKEN REDUCED ORBITAL CHARGES
--------------------------------
  0 C s       :     3.195154  s :     3.195154
      pz      :     0.976837  p :     2.835545
      px      :     0.866432
      py      :     0.992275
      dz2     :     0.013915  d :     0.052484
      dxz     :     0.008918
      dyz     :     0.004442
      dx2y2   :     0.016538
      dxy     :     0.008672

  1 C s       :     3.225603  s :     3.225603
      pz      :     0.973116  p :     2.931830
      px      :     0.912918
      py      :     1.045797
      dz2     :     0.010725  d :     0.035778
      dxz     :     0.006005
      dyz     :     0.003115
      dx2y2   :     0.010066
      dxy     :     0.005867

  2 H s       :     0.747061  s :     0.747061
      pz      :     0.011150  p :     0.023937
      px      :     0.007433
      py      :     0.005353

  3 H s       :     0.744888  s :     0.744888
      pz      :     0.005185  p :     0.023903
      px      :     0.007360
      py      :     0.011358

  4 N s       :     3.589796  s :     3.589796
      pz      :     1.177812  p :     3.956624
      px      :     1.629565
      py      :     1.149246
      dz2     :     0.011166  d :     0.028880
      dxz     :     0.004091
      dyz     :     0.000962
      dx2y2   :     0.008083
      dxy     :     0.004578

  5 C s       :     3.227869  s :     3.227869
      pz      :     1.000963  p :     2.923785
      px      :     0.917034
      py      :     1.005789
      dz2     :     0.011445  d :     0.037252
      dxz     :     0.006140
      dyz     :     0.002720
      dx2y2   :     0.011321
      dxy     :     0.005627

  6 H s       :     0.913892  s :     0.913892
      pz      :     0.006080  p :     0.011543
      px      :     0.002603
      py      :     0.002861

  7 H s       :     0.854539  s :     0.854539
      pz      :     0.002426  p :     0.012779
      px      :     0.003175
      py      :     0.007179

  8 C s       :     3.228745  s :     3.228745
      pz      :     1.015261  p :     2.928836
      px      :     0.987300
      py      :     0.926276
      dz2     :     0.009986  d :     0.036434
      dxz     :     0.005314
      dyz     :     0.004471
      dx2y2   :     0.007190
      dxy     :     0.009473

  9 H s       :     0.893196  s :     0.893196
      pz      :     0.006191  p :     0.011587
      px      :     0.002611
      py      :     0.002785

 10 H s       :     0.893462  s :     0.893462
      pz      :     0.002594  p :     0.011540
      px      :     0.002639
      py      :     0.006307

 11 C s       :     3.200131  s :     3.200131
      pz      :     0.990079  p :     2.782137
      px      :     0.885631
      py      :     0.906427
      dz2     :     0.013753  d :     0.057239
      dxz     :     0.006261
      dyz     :     0.010072
      dx2y2   :     0.016902
      dxy     :     0.010252

 12 H s       :     0.869321  s :     0.869321
      pz      :     0.003370  p :     0.011653
      px      :     0.004179
      py      :     0.004104

 13 H s       :     0.887578  s :     0.887578
      pz      :     0.006411  p :     0.011552
      px      :     0.002589
      py      :     0.002551

 14 C s       :     2.988485  s :     2.988485
      pz      :     0.744184  p :     2.405619
      px      :     0.898605
      py      :     0.762830
      dz2     :     0.029991  d :     0.124316
      dxz     :     0.027565
      dyz     :     0.022846
      dx2y2   :     0.023921
      dxy     :     0.019993

 15 H s       :     0.643689  s :     0.643689
      pz      :     0.008124  p :     0.037941
      px      :     0.021228
      py      :     0.008589

 16 N s       :     3.586812  s :     3.586812
      pz      :     1.127674  p :     3.930646
      px      :     1.698814
      py      :     1.104159
      dz2     :     0.007591  d :     0.028449
      dxz     :     0.006418
      dyz     :     0.002911
      dx2y2   :     0.004403
      dxy     :     0.007125

 17 O s       :     3.824221  s :     3.824221
      pz      :     1.629473  p :     4.606615
      px      :     1.298741
      py      :     1.678401
      dz2     :     0.006257  d :     0.022738
      dxz     :     0.003189
      dyz     :     0.005245
      dx2y2   :     0.006030
      dxy     :     0.002017

 18 H s       :     0.892634  s :     0.892634
      pz      :     0.002275  p :     0.010772
      px      :     0.002329
      py      :     0.006168

 19 H s       :     0.889535  s :     0.889535
      pz      :     0.006054  p :     0.010795
      px      :     0.002259
      py      :     0.002482

 20 H s       :     0.729684  s :     0.729684
      pz      :     0.011149  p :     0.023977
      px      :     0.008292
      py      :     0.004536

 21 O s       :     3.854944  s :     3.854944
      pz      :     1.441507  p :     4.534305
      px      :     1.657864
      py      :     1.434933
      dz2     :     0.007671  d :     0.028084
      dxz     :     0.005682
      dyz     :     0.005691
      dx2y2   :     0.004454
      dxy     :     0.004586

 22 H s       :     0.862742  s :     0.862742
      pz      :     0.006198  p :     0.011041
      px      :     0.002682
      py      :     0.002161

 23 H s       :     0.731471  s :     0.731471
      pz      :     0.005137  p :     0.023935
      px      :     0.008187
      py      :     0.010610



                     *******************************
                     * LOEWDIN POPULATION ANALYSIS *
                     *******************************

----------------------
LOEWDIN ATOMIC CHARGES
----------------------
   0 C :   -0.075707
   1 C :   -0.153049
   2 H :    0.118080
   3 H :    0.119002
   4 N :   -0.270402
   5 C :   -0.121997
   6 H :    0.055253
   7 H :    0.074961
   8 C :   -0.117289
   9 H :    0.063989
  10 H :    0.065583
  11 C :   -0.049497
  12 H :    0.076555
  13 H :    0.068423
  14 C :    0.100086
  15 H :    0.182246
  16 N :   -0.234567
  17 O :   -0.140438
  18 H :    0.060568
  19 H :    0.062776
  20 H :    0.127868
  21 O :   -0.222934
  22 H :    0.082767
  23 H :    0.127721

-------------------------------
LOEWDIN REDUCED ORBITAL CHARGES
-------------------------------
  0 C s       :     2.891588  s :     2.891588
      pz      :     1.038683  p :     3.068571
      px      :     0.983409
      py      :     1.046479
      dz2     :     0.029321  d :     0.115548
      dxz     :     0.020184
      dyz     :     0.009602
      dx2y2   :     0.037565
      dxy     :     0.018875

  1 C s       :     2.912146  s :     2.912146
      pz      :     1.051586  p :     3.159878
      px      :     1.017178
      py      :     1.091114
      dz2     :     0.022474  d :     0.081024
      dxz     :     0.014903
      dyz     :     0.007150
      dx2y2   :     0.023053
      dxy     :     0.013445

  2 H s       :     0.803436  s :     0.803436
      pz      :     0.042064  p :     0.078484
      px      :     0.022553
      py      :     0.013867

  3 H s       :     0.802455  s :     0.802455
      pz      :     0.013036  p :     0.078542
      px      :     0.022690
      py      :     0.042817

  4 N s       :     3.199783  s :     3.199783
      pz      :     1.216788  p :     4.012339
      px      :     1.608681
      py      :     1.186870
      dz2     :     0.021727  d :     0.058281
      dxz     :     0.007798
      dyz     :     0.004707
      dx2y2   :     0.015657
      dxy     :     0.008391

  5 C s       :     2.897375  s :     2.897375
      pz      :     1.065019  p :     3.141409
      px      :     1.011755
      py      :     1.064635
      dz2     :     0.023679  d :     0.083212
      dxz     :     0.014649
      dyz     :     0.006130
      dx2y2   :     0.025747
      dxy     :     0.013007

  6 H s       :     0.905949  s :     0.905949
      pz      :     0.023015  p :     0.038798
      px      :     0.007230
      py      :     0.008552

  7 H s       :     0.880581  s :     0.880581
      pz      :     0.006841  p :     0.044458
      px      :     0.009259
      py      :     0.028358

  8 C s       :     2.902461  s :     2.902461
      pz      :     1.074037  p :     3.133807
      px      :     1.044768
      py      :     1.015003
      dz2     :     0.021618  d :     0.081021
      dxz     :     0.010929
      dyz     :     0.009653
      dx2y2   :     0.018105
      dxy     :     0.020716

  9 H s       :     0.897026  s :     0.897026
      pz      :     0.023728  p :     0.038984
      px      :     0.007326
      py      :     0.007930

 10 H s       :     0.895533  s :     0.895533
      pz      :     0.007225  p :     0.038884
      px      :     0.007524
      py      :     0.024135

 11 C s       :     2.882819  s :     2.882819
      pz      :     1.037363  p :     3.036502
      px      :     0.998692
      py      :     1.000447
      dz2     :     0.029756  d :     0.130176
      dxz     :     0.013491
      dyz     :     0.022474
      dx2y2   :     0.042016
      dxy     :     0.022439

 12 H s       :     0.883217  s :     0.883217
      pz      :     0.010830  p :     0.040228
      px      :     0.014543
      py      :     0.014856

 13 H s       :     0.891972  s :     0.891972
      pz      :     0.024944  p :     0.039605
      px      :     0.007474
      py      :     0.007188

 14 C s       :     2.858781  s :     2.858781
      pz      :     0.886924  p :     2.743843
      px      :     1.009857
      py      :     0.847062
      dz2     :     0.068579  d :     0.297290
      dxz     :     0.065599
      dyz     :     0.059962
      dx2y2   :     0.056984
      dxy     :     0.046166

 15 H s       :     0.702006  s :     0.702006
      pz      :     0.023326  p :     0.115748
      px      :     0.068038
      py      :     0.024384

 16 N s       :     3.196645  s :     3.196645
      pz      :     1.162616  p :     3.980122
      px      :     1.671634
      py      :     1.145871
      dz2     :     0.016665  d :     0.057800
      dxz     :     0.010186
      dyz     :     0.010185
      dx2y2   :     0.008779
      dxy     :     0.011984

 17 O s       :     3.469774  s :     3.469774
      pz      :     1.632394  p :     4.619647
      px      :     1.316670
      py      :     1.670582
      dz2     :     0.011318  d :     0.051017
      dxz     :     0.008829
      dyz     :     0.011025
      dx2y2   :     0.013931
      dxy     :     0.005913

 18 H s       :     0.901786  s :     0.901786
      pz      :     0.006690  p :     0.037645
      px      :     0.006740
      py      :     0.024215

 19 H s       :     0.899626  s :     0.899626
      pz      :     0.023736  p :     0.037598
      px      :     0.006246
      py      :     0.007615

 20 H s       :     0.792914  s :     0.792914
      pz      :     0.041807  p :     0.079219
      px      :     0.025837
      py      :     0.011575

 21 O s       :     3.554525  s :     3.554525
      pz      :     1.480585  p :     4.610347
      px      :     1.675791
      py      :     1.453971
      dz2     :     0.012070  d :     0.058062
      dxz     :     0.013904
      dyz     :     0.014370
      dx2y2   :     0.007689
      dxy     :     0.010030

 22 H s       :     0.877849  s :     0.877849
      pz      :     0.024177  p :     0.039383
      px      :     0.008244
      py      :     0.006962

 23 H s       :     0.793404  s :     0.793404
      pz      :     0.013967  p :     0.078875
      px      :     0.026046
      py      :     0.038862



                      *****************************
                      * MAYER POPULATION ANALYSIS *
                      *****************************

  NA   - Mulliken gross atomic population
  ZA   - Total nuclear charge
  QA   - Mulliken gross atomic charge
  VA   - Mayer's total valence
  BVA  - Mayer's bonded valence
  FA   - Mayer's free valence

  ATOM       NA         ZA         QA         VA         BVA        FA
  0 C      6.0832     6.0000    -0.0832     3.9094     3.9094    -0.0000
  1 C      6.1932     6.0000    -0.1932     3.8508     3.8508    -0.0000
  2 H      0.7710     1.0000     0.2290     0.9245     0.9245     0.0000
  3 H      0.7688     1.0000     0.2312     0.9242     0.9242    -0.0000
  4 N      7.5753     7.0000    -0.5753     2.8863     2.8863    -0.0000
  5 C      6.1889     6.0000    -0.1889     3.9004     3.9004    -0.0000
  6 H      0.9254     1.0000     0.0746     0.9613     0.9613    -0.0000
  7 H      0.8673     1.0000     0.1327     0.9727     0.9727    -0.0000
  8 C      6.1940     6.0000    -0.1940     3.8749     3.8749    -0.0000
  9 H      0.9048     1.0000     0.0952     0.9560     0.9560    -0.0000
 10 H      0.9050     1.0000     0.0950     0.9522     0.9522    -0.0000
 11 C      6.0395     6.0000    -0.0395     3.8614     3.8614     0.0000
 12 H      0.8810     1.0000     0.1190     0.9559     0.9559     0.0000
 13 H      0.8991     1.0000     0.1009     0.9572     0.9572     0.0000
 14 C      5.5184     6.0000     0.4816     3.9636     3.9636    -0.0000
 15 H      0.6816     1.0000     0.3184     0.9172     0.9172    -0.0000
 16 N      7.5459     7.0000    -0.5459     2.9320     2.9320    -0.0000
 17 O      8.4536     8.0000    -0.4536     2.0308     2.0308    -0.0000
 18 H      0.9034     1.0000     0.0966     0.9512     0.9512    -0.0000
 19 H      0.9003     1.0000     0.0997     0.9516     0.9516    -0.0000
 20 H      0.7537     1.0000     0.2463     0.9295     0.9295     0.0000
 21 O      8.4173     8.0000    -0.4173     2.1166     2.1166    -0.0000
 22 H      0.8738     1.0000     0.1262     0.9513     0.9513    -0.0000
 23 H      0.7554     1.0000     0.2446     0.9227     0.9227    -0.0000

  Mayer bond orders larger than 0.100000
B(  0-C ,  1-C ) :   0.9815 B(  0-C ,  4-N ) :   1.0270 B(  0-C , 18-H ) :   0.9504 
B(  0-C , 19-H ) :   0.9512 B(  1-C ,  5-C ) :   0.9989 B(  1-C ,  6-H ) :   0.9496 
B(  1-C ,  7-H ) :   0.9253 B(  2-H ,  4-N ) :   0.9161 B(  3-H ,  4-N ) :   0.9149 
B(  5-C ,  8-C ) :   0.9997 B(  5-C ,  9-H ) :   0.9475 B(  5-C , 10-H ) :   0.9478 
B(  8-C , 11-C ) :   0.9799 B(  8-C , 12-H ) :   0.9399 B(  8-C , 13-H ) :   0.9416 
B( 11-C , 14-C ) :   0.8974 B( 11-C , 16-N ) :   1.0449 B( 11-C , 22-H ) :   0.9222 
B( 14-C , 17-O ) :   1.0802 B( 14-C , 21-O ) :   1.9324 B( 15-H , 17-O ) :   0.8511 
B( 16-N , 20-H ) :   0.8999 B( 16-N , 23-H ) :   0.9062 

-------
TIMINGS
-------

Total SCF time: 0 days 0 hours 0 min 7 sec 

Total time                  ....       7.870 sec
Sum of individual times     ....       7.324 sec  ( 93.1%)

SCF preparation             ....       0.030 sec  (  0.4%)
Fock matrix formation       ....       7.216 sec  ( 91.7%)
  Startup                   ....       0.001 sec  (  0.0% of F)
  Split-RI-J                ....       2.687 sec  ( 37.2% of F)
  XC integration            ....       4.993 sec  ( 69.2% of F)
    XC Preparation          ....       0.000 sec  (  0.0% of XC)
    Basis function eval.    ....       1.775 sec  ( 35.5% of XC)
    Density eval.           ....       1.100 sec  ( 22.0% of XC)
    XC-Functional eval.     ....       0.895 sec  ( 17.9% of XC)
    XC-Potential eval.      ....       1.091 sec  ( 21.8% of XC)
Diagonalization             ....       0.000 sec  (  0.0%)
Density matrix formation    ....       0.006 sec  (  0.1%)
Total Energy calculation    ....       0.001 sec  (  0.0%)
Population analysis         ....       0.003 sec  (  0.0%)
Orbital Transformation      ....       0.008 sec  (  0.1%)
Orbital Orthonormalization  ....       0.000 sec  (  0.0%)
DIIS solution               ....       0.040 sec  (  0.5%)
SOSCF solution              ....       0.020 sec  (  0.3%)
Finished LeanSCF after   7.9 sec

Maximum memory used throughout the entire LEANSCF-calculation: 23.1 MB



-------------------------------------------------------------------------------
                          DFT DISPERSION CORRECTION                            
-------------------------------------------------------------------------------
Active option DFTDOPT                   ...         2   
Final C6-coefficient scaling factor     ...     1.250
Final VDW-radii scaling factor          ...     1.100
Damping factor alpha                    ...    20.000
-------------------------   ----------------
Dispersion correction           -0.034789318
-------------------------   ----------------


-------------------------   --------------------
FINAL SINGLE POINT ENERGY      -496.710930301611
-------------------------   --------------------

------------------------------------------------------------------------------
                         ORCA SCF GRADIENT CALCULATION
------------------------------------------------------------------------------

Nuc. rep. gradient        (SHARK) ... done (  0.0 sec)
HCore & Overlap gradient  (SHARK) ... done (  0.2 sec)
Split-RIJ-J gradient      (SHARK) ... done (  0.8 sec)
XC gradient                       ... done (  3.1 sec)
Dispersion correction             ... done (  0.0 sec)

-------------------
DISPERSION GRADIENT
-------------------

   1   C   :   -0.000159990   -0.000719764    0.000914656
   2   C   :   -0.001006221    0.001382383   -0.001145993
   3   H   :   -0.000789163   -0.000493840    0.000264797
   4   H   :   -0.000823026   -0.000234799    0.000491918
   5   N   :   -0.000212092    0.000427509   -0.000491300
   6   C   :    0.000618583    0.000022301    0.000894776
   7   H   :   -0.000148039   -0.000409069   -0.000009985
   8   H   :    0.000163534    0.000086478    0.000610014
   9   C   :   -0.000281189    0.000129879   -0.001027044
  10   H   :   -0.000012391    0.001116745    0.000023306
  11   H   :    0.000252972   -0.000012009   -0.000630822
  12   C   :    0.001211460    0.000236423    0.000569846
  13   H   :    0.000055334   -0.000107877    0.000711608
  14   H   :    0.000607253    0.001031212   -0.000471303
  15   C   :    0.000053268    0.000034818   -0.000538845
  16   H   :    0.000060382   -0.000286324    0.000290540
  17   N   :    0.000517172   -0.000192870   -0.000429081
  18   O   :    0.000569382   -0.000208741    0.000024329
  19   H   :   -0.000668287   -0.000391401   -0.000552457
  20   H   :   -0.000771364    0.000574625    0.000272745
  21   H   :   -0.000080841   -0.001183766    0.000398819
  22   O   :    0.000689112    0.000272492   -0.000547371
  23   H   :    0.000510789   -0.000445094   -0.000076797
  24   H   :   -0.000356638   -0.000629310    0.000453646

Difference to translation invariance:
           :    0.0000000000    0.0000000000    0.0000000000

Difference to rotation invariance:
           :   -0.0000000000   -0.0000000000   -0.0000000000

Norm of the Dispersion gradient    ...    0.0048473565
RMS gradient                       ...    0.0005712664
MAX gradient                       ...    0.0013823828

------------------
CARTESIAN GRADIENT
------------------

   1   C   :   -0.003946371    0.002158664   -0.005571887
   2   C   :    0.006357683   -0.003164749    0.007951789
   3   H   :   -0.001616972    0.000784837   -0.003955613
   4   H   :   -0.001942198    0.003723175   -0.001587313
   5   N   :    0.014620347    0.000484079    0.000477995
   6   C   :   -0.001264839    0.002201111   -0.006792176
   7   H   :   -0.000747046   -0.000582043   -0.007080350
   8   H   :    0.000175228    0.004069575   -0.001531459
   9   C   :    0.002754767   -0.000863917    0.007325032
  10   H   :    0.000566630    0.000350183    0.007577359
  11   H   :    0.001372372   -0.006618375    0.001109194
  12   C   :   -0.001982279   -0.000057300   -0.002161623
  13   H   :   -0.003986546   -0.003846747    0.000439636
  14   H   :   -0.002421667   -0.001109389   -0.006700675
  15   C   :    0.006711734    0.000569606    0.004842860
  16   H   :   -0.002225952    0.003459060   -0.004854159
  17   N   :    0.009307455    0.003712396    0.000758192
  18   O   :   -0.001253669   -0.017674248    0.023091985
  19   H   :    0.000376001   -0.006279202    0.002045367
  20   H   :   -0.000466301   -0.000700931    0.006530415
  21   H   :   -0.002944884    0.000332787   -0.002293925
  22   O   :   -0.015369558    0.016974137   -0.023195296
  23   H   :    0.001145785   -0.000690763    0.004046105
  24   H   :   -0.003219719    0.002768052   -0.000471454

Difference to translation invariance:
           :   -0.0000000000    0.0000000000    0.0000000000

Difference to rotation invariance:
           :   -0.0001899780    0.0002264326    0.0003641822

Norm of the Cartesian gradient     ...    0.0552847668
RMS gradient                       ...    0.0065153722
MAX gradient                       ...    0.0231952965

-------
TIMINGS
-------

Total SCF gradient time     ....        4.005 sec

Densities                   ....       0.000 sec  (  0.0%)
One electron gradient       ....       0.160 sec  (  4.0%)
RI-J Coulomb gradient       ....       0.784 sec  ( 19.6%)
XC gradient                 ....       3.060 sec  ( 76.4%)

Maximum memory used throughout the entire SCFGRAD-calculation: 29.3 MB
------------------------------------------------------------------------------
                         ORCA GEOMETRY RELAXATION STEP
------------------------------------------------------------------------------

Reading the OPT-File                    .... done
Getting information on internals        .... done
Copying old internal coords+grads       .... done
Making the new internal coordinates     .... (2022 redundants) done
Validating the new internal coordinates .... (2022 redundants) done
Calculating the B-matrix                .... done
Calculating the G,G- and P matrices     .... done
Transforming gradient to internals      .... done
Projecting the internal gradient        .... done
Number of atoms                         ....  24
Number of internal coordinates          .... 104
Current Energy                          ....  -496.710930302 Eh
Current gradient norm                   ....     0.055284767 Eh/bohr
Maximum allowed component of the step   ....  0.300
Current trust radius                    ....  0.300
Evaluating the initial hessian          ....  (Almloef) done
Projecting the Hessian                  .... done
Forming the augmented Hessian           .... done
Diagonalizing the augmented Hessian     .... done
Last element of RFO vector              ....  0.972352269
Lowest eigenvalues of augmented Hessian:
 -0.008348829  0.010555121  0.010768247  0.010800689  0.011458082
Length of the computed step             ....  0.240158718
The final length of the internal step   ....  0.240158718
Converting the step to Cartesian space:
 Initial RMS(Int)=    0.0235494998
Transforming coordinates:
 Iter   0:  RMS(Cart)=    0.1472268157 RMS(Int)=    0.8678217188
 Iter   5:  RMS(Cart)=    0.0000000884 RMS(Int)=    0.0000000405
done
Storing new coordinates                 .... done

                                .--------------------.
          ----------------------|Geometry convergence|-------------------------
          Item                value                   Tolerance       Converged
          ---------------------------------------------------------------------
          RMS gradient        0.0058627347            0.0001000000      NO
          MAX gradient        0.0325647292            0.0003000000      NO
          RMS step            0.0235494998            0.0020000000      NO
          MAX step            0.0679198213            0.0040000000      NO
          -------------------------------------------------------------------------
          ........................................................
          Max(Bonds)      0.0182      Max(Angles)    2.65
          Max(Dihed)        3.89      Max(Improp)    0.00
          ---------------------------------------------------------------------

The optimization has not yet converged - more geometry cycles are needed


    ---------------------------------------------------------------------------
                         Redundant Internal Coordinates
                            (Angstroem and degrees)

        Definition                    Value    dE/dq     Step     New-Value
    ----------------------------------------------------------------------------
     1. B(C   1,C   0)                1.5345 -0.005881  0.0083    1.5428   
     2. B(N   4,H   2)                1.0153 -0.003756  0.0046    1.0199   
     3. B(N   4,C   0)                1.4525 -0.012891  0.0151    1.4675   
     4. B(N   4,H   3)                1.0152 -0.003815  0.0047    1.0199   
     5. B(C   5,C   1)                1.5251 -0.010481  0.0143    1.5393   
     6. B(H   6,C   1)                1.0937 -0.007027  0.0102    1.1040   
     7. B(H   7,C   1)                1.0909 -0.003864  0.0056    1.0965   
     8. B(C   8,C   5)                1.5289 -0.013218  0.0182    1.5471   
     9. B(H   9,C   5)                1.0918 -0.007476  0.0108    1.1026   
    10. B(H  10,C   5)                1.0930 -0.006597  0.0096    1.1026   
    11. B(C  11,C   8)                1.5390 -0.011457  0.0164    1.5554   
    12. B(H  12,C   8)                1.0917 -0.005137  0.0074    1.0991   
    13. B(H  13,C   8)                1.0922 -0.006991  0.0101    1.1023   
    14. B(C  14,C  11)                1.5259 -0.012253  0.0167    1.5426   
    15. B(N  16,C  11)                1.4497 -0.007263  0.0084    1.4581   
    16. B(O  17,H  15)                0.9709 -0.002927  0.0030    0.9739   
    17. B(O  17,C  14)                1.3372 -0.022138  0.0170    1.3543   
    18. B(H  18,C   0)                1.0942 -0.006047  0.0088    1.1031   
    19. B(H  19,C   0)                1.0937 -0.006070  0.0088    1.1025   
    20. B(H  20,N  16)                1.0160 -0.003001  0.0037    1.0197   
    21. B(O  21,C  14)                1.2030 -0.032565  0.0154    1.2184   
    22. B(H  22,C  11)                1.0962 -0.004035  0.0059    1.1021   
    23. B(H  23,N  16)                1.0151 -0.003351  0.0041    1.0192   
    24. A(C   1,C   0,H  19)          109.54  0.001515   -0.38    109.16   
    25. A(C   1,C   0,N   4)          114.60 -0.004180    0.88    115.48   
    26. A(N   4,C   0,H  18)          107.44  0.000262    0.21    107.65   
    27. A(C   1,C   0,H  18)          109.80  0.001208   -0.18    109.62   
    28. A(H  18,C   0,H  19)          107.85  0.001577   -0.84    107.01   
    29. A(N   4,C   0,H  19)          107.38 -0.000120    0.22    107.60   
    30. A(C   5,C   1,H   6)          109.25  0.000449   -0.14    109.11   
    31. A(C   5,C   1,H   7)          109.07 -0.002143    0.41    109.48   
    32. A(C   0,C   1,H   6)          109.05  0.001532   -0.31    108.75   
    33. A(C   0,C   1,C   5)          111.83 -0.002694    0.51    112.34   
    34. A(H   6,C   1,H   7)          107.86  0.001882   -0.54    107.33   
    35. A(C   0,C   1,H   7)          109.69  0.001142    0.02    109.71   
    36. A(C   0,N   4,H   3)          109.81  0.000932   -0.38    109.43   
    37. A(C   0,N   4,H   2)          109.96  0.000841   -0.36    109.60   
    38. A(H   2,N   4,H   3)          107.28  0.001504   -0.79    106.49   
    39. A(C   8,C   5,H  10)          108.28  0.001580   -0.59    107.69   
    40. A(C   1,C   5,H  10)          109.00  0.005341   -0.88    108.12   
    41. A(C   8,C   5,H   9)          109.15  0.004214   -0.33    108.82   
    42. A(C   1,C   5,H   9)          109.34  0.003079   -0.00    109.34   
    43. A(C   1,C   5,C   8)          113.38 -0.014684    2.65    116.03   
    44. A(H   9,C   5,H  10)          107.52  0.001194   -1.04    106.48   
    45. A(H  12,C   8,H  13)          108.30  0.000849   -0.76    107.54   
    46. A(C  11,C   8,H  12)          107.77  0.004172   -0.90    106.87   
    47. A(C  11,C   8,H  13)          108.72  0.002126   -0.30    108.42   
    48. A(C   5,C   8,H  13)          109.68  0.002223    0.17    109.85   
    49. A(C   5,C   8,H  12)          108.68  0.003994   -0.64    108.04   
    50. A(C   5,C   8,C  11)          113.55 -0.012827    2.28    115.83   
    51. A(C  14,C  11,N  16)          111.61  0.001237    0.02    111.63   
    52. A(C   8,C  11,N  16)          111.72 -0.002714    0.83    112.55   
[...]
      dyz     :     0.005280
      dx2y2   :     0.005351
      dxy     :     0.002098

 18 H s       :     0.890119  s :     0.890119
      pz      :     0.002202  p :     0.010636
      px      :     0.002175
      py      :     0.006259

 19 H s       :     0.885718  s :     0.885718
      pz      :     0.005763  p :     0.010652
      px      :     0.002205
      py      :     0.002684

 20 H s       :     0.730317  s :     0.730317
      pz      :     0.011412  p :     0.023693
      px      :     0.007810
      py      :     0.004471

 21 O s       :     3.869717  s :     3.869717
      pz      :     1.404979  p :     4.526427
      px      :     1.676953
      py      :     1.444495
      dz2     :     0.008305  d :     0.027354
      dxz     :     0.005510
      dyz     :     0.006172
      dx2y2   :     0.003546
      dxy     :     0.003820

 22 H s       :     0.861021  s :     0.861021
      pz      :     0.006532  p :     0.010865
      px      :     0.002349
      py      :     0.001984

 23 H s       :     0.732294  s :     0.732294
      pz      :     0.005548  p :     0.023582
      px      :     0.008076
      py      :     0.009957



                     *******************************
                     * LOEWDIN POPULATION ANALYSIS *
                     *******************************

----------------------
LOEWDIN ATOMIC CHARGES
----------------------
   0 C :   -0.074383
   1 C :   -0.151712
   2 H :    0.119844
   3 H :    0.121113
   4 N :   -0.276058
   5 C :   -0.121920
   6 H :    0.055669
   7 H :    0.074133
   8 C :   -0.118814
   9 H :    0.067210
  10 H :    0.067091
  11 C :   -0.048979
  12 H :    0.077983
  13 H :    0.068776
  14 C :    0.123042
  15 H :    0.183705
  16 N :   -0.245717
  17 O :   -0.159172
  18 H :    0.062166
  19 H :    0.064646
  20 H :    0.129513
  21 O :   -0.230731
  22 H :    0.082989
  23 H :    0.129606

-------------------------------
LOEWDIN REDUCED ORBITAL CHARGES
-------------------------------
  0 C s       :     2.901277  s :     2.901277
      pz      :     1.027439  p :     3.063345
      px      :     0.977138
      py      :     1.058767
      dz2     :     0.026996  d :     0.109761
      dxz     :     0.021883
      dyz     :     0.010027
      dx2y2   :     0.036118
      dxy     :     0.014737

  1 C s       :     2.920319  s :     2.920319
      pz      :     1.047838  p :     3.152582
      px      :     1.016359
      py      :     1.088385
      dz2     :     0.020206  d :     0.078811
      dxz     :     0.015849
      dyz     :     0.008259
      dx2y2   :     0.023044
      dxy     :     0.011453

  2 H s       :     0.803622  s :     0.803622
      pz      :     0.039550  p :     0.076534
      px      :     0.021828
      py      :     0.015156

  3 H s       :     0.802300  s :     0.802300
      pz      :     0.012441  p :     0.076587
      px      :     0.021686
      py      :     0.042459

  4 N s       :     3.228444  s :     3.228444
      pz      :     1.205626  p :     3.990484
      px      :     1.595950
      py      :     1.188907
      dz2     :     0.018713  d :     0.057129
      dxz     :     0.010183
      dyz     :     0.006046
      dx2y2   :     0.015276
      dxy     :     0.006911

  5 C s       :     2.907388  s :     2.907388
      pz      :     1.062362  p :     3.135237
      px      :     1.006116
      py      :     1.066759
      dz2     :     0.020559  d :     0.079296
      dxz     :     0.015390
      dyz     :     0.007584
      dx2y2   :     0.024901
      dxy     :     0.010863

  6 H s       :     0.906855  s :     0.906855
      pz      :     0.021696  p :     0.037476
      px      :     0.006931
      py      :     0.008849

  7 H s       :     0.884351  s :     0.884351
      pz      :     0.006586  p :     0.041516
      px      :     0.007813
      py      :     0.027116

  8 C s       :     2.912897  s :     2.912897
      pz      :     1.073965  p :     3.128016
      px      :     1.035391
      py      :     1.018660
      dz2     :     0.021621  d :     0.077900
      dxz     :     0.010205
      dyz     :     0.008780
      dx2y2   :     0.016343
      dxy     :     0.020952

  9 H s       :     0.894976  s :     0.894976
      pz      :     0.022227  p :     0.037814
      px      :     0.006860
      py      :     0.008727

 10 H s       :     0.895131  s :     0.895131
      pz      :     0.006882  p :     0.037778
      px      :     0.007032
      py      :     0.023865

 11 C s       :     2.893165  s :     2.893165
      pz      :     1.050375  p :     3.030489
      px      :     0.990265
      py      :     0.989848
      dz2     :     0.030793  d :     0.125325
      dxz     :     0.010243
      dyz     :     0.018496
      dx2y2   :     0.040046
      dxy     :     0.025747

 12 H s       :     0.882845  s :     0.882845
      pz      :     0.009889  p :     0.039172
      px      :     0.013340
      py      :     0.015942

 13 H s       :     0.892821  s :     0.892821
      pz      :     0.024690  p :     0.038403
      px      :     0.006849
      py      :     0.006864

 14 C s       :     2.875398  s :     2.875398
      pz      :     0.894736  p :     2.724338
      px      :     0.992202
      py      :     0.837400
      dz2     :     0.060119  d :     0.277222
      dxz     :     0.069873
      dyz     :     0.056085
      dx2y2   :     0.049227
      dxy     :     0.041918

 15 H s       :     0.702276  s :     0.702276
      pz      :     0.026569  p :     0.114020
      px      :     0.063669
      py      :     0.023782

 16 N s       :     3.220048  s :     3.220048
      pz      :     1.183357  p :     3.968350
      px      :     1.645389
      py      :     1.139604
      dz2     :     0.018026  d :     0.057319
      dxz     :     0.007631
      dyz     :     0.008362
      dx2y2   :     0.007294
      dxy     :     0.016006

 17 O s       :     3.497015  s :     3.497015
      pz      :     1.643646  p :     4.613540
      px      :     1.306959
      py      :     1.662934
      dz2     :     0.008667  d :     0.048617
      dxz     :     0.011290
      dyz     :     0.010133
      dx2y2   :     0.012173
      dxy     :     0.006353

 18 H s       :     0.900983  s :     0.900983
      pz      :     0.006397  p :     0.036852
      px      :     0.006003
      py      :     0.024452

 19 H s       :     0.898508  s :     0.898508
      pz      :     0.022459  p :     0.036846
      px      :     0.006082
      py      :     0.008304

 20 H s       :     0.792927  s :     0.792927
      pz      :     0.043102  p :     0.077560
      px      :     0.023355
      py      :     0.011103

 21 O s       :     3.568914  s :     3.568914
      pz      :     1.458228  p :     4.606084
      px      :     1.687650
      py      :     1.460206
      dz2     :     0.013456  d :     0.055734
      dxz     :     0.013496
      dyz     :     0.014947
      dx2y2   :     0.006081
      dxy     :     0.007755

 22 H s       :     0.878202  s :     0.878202
      pz      :     0.025711  p :     0.038809
      px      :     0.006718
      py      :     0.006380

 23 H s       :     0.793358  s :     0.793358
      pz      :     0.014847  p :     0.077035
      px      :     0.026595
      py      :     0.035594



                      *****************************
                      * MAYER POPULATION ANALYSIS *
                      *****************************

  NA   - Mulliken gross atomic population
  ZA   - Total nuclear charge
  QA   - Mulliken gross atomic charge
  VA   - Mayer's total valence
  BVA  - Mayer's bonded valence
  FA   - Mayer's free valence

  ATOM       NA         ZA         QA         VA         BVA        FA
  0 C      6.0869     6.0000    -0.0869     3.9020     3.9020     0.0000
  1 C      6.1994     6.0000    -0.1994     3.8544     3.8544    -0.0000
  2 H      0.7717     1.0000     0.2283     0.9232     0.9232    -0.0000
  3 H      0.7691     1.0000     0.2309     0.9226     0.9226     0.0000
  4 N      7.5714     7.0000    -0.5714     2.8823     2.8823     0.0000
  5 C      6.1815     6.0000    -0.1815     3.8892     3.8892    -0.0000
  6 H      0.9228     1.0000     0.0772     0.9599     0.9599     0.0000
  7 H      0.8730     1.0000     0.1270     0.9713     0.9713     0.0000
  8 C      6.1957     6.0000    -0.1957     3.8707     3.8707     0.0000
  9 H      0.9019     1.0000     0.0981     0.9561     0.9561    -0.0000
 10 H      0.9039     1.0000     0.0961     0.9525     0.9525     0.0000
 11 C      6.0421     6.0000    -0.0421     3.8666     3.8666    -0.0000
 12 H      0.8808     1.0000     0.1192     0.9547     0.9547     0.0000
 13 H      0.8988     1.0000     0.1012     0.9574     0.9574     0.0000
 14 C      5.5123     6.0000     0.4877     3.9244     3.9244    -0.0000
 15 H      0.6804     1.0000     0.3196     0.9164     0.9164    -0.0000
 16 N      7.5440     7.0000    -0.5440     2.9233     2.9233     0.0000
 17 O      8.4617     8.0000    -0.4617     2.0261     2.0261     0.0000
 18 H      0.9008     1.0000     0.0992     0.9517     0.9517     0.0000
 19 H      0.8964     1.0000     0.1036     0.9510     0.9510     0.0000
 20 H      0.7540     1.0000     0.2460     0.9283     0.9283    -0.0000
 21 O      8.4235     8.0000    -0.4235     2.1081     2.1081    -0.0000
 22 H      0.8719     1.0000     0.1281     0.9503     0.9503    -0.0000
 23 H      0.7559     1.0000     0.2441     0.9200     0.9200     0.0000

  Mayer bond orders larger than 0.100000
B(  0-C ,  1-C ) :   0.9799 B(  0-C ,  4-N ) :   1.0214 B(  0-C , 18-H ) :   0.9499 
B(  0-C , 19-H ) :   0.9503 B(  1-C ,  5-C ) :   0.9946 B(  1-C ,  6-H ) :   0.9475 
B(  1-C ,  7-H ) :   0.9300 B(  2-H ,  4-N ) :   0.9146 B(  3-H ,  4-N ) :   0.9136 
B(  5-C ,  8-C ) :   0.9900 B(  5-C ,  9-H ) :   0.9462 B(  5-C , 10-H ) :   0.9476 
B(  8-C , 11-C ) :   0.9821 B(  8-C , 12-H ) :   0.9401 B(  8-C , 13-H ) :   0.9411 
B( 11-C , 14-C ) :   0.8936 B( 11-C , 16-N ) :   1.0460 B( 11-C , 22-H ) :   0.9215 
B( 14-C , 17-O ) :   1.0650 B( 14-C , 21-O ) :   1.9114 B( 15-H , 17-O ) :   0.8519 
B( 16-N , 20-H ) :   0.8981 B( 16-N , 23-H ) :   0.9055 

-------
TIMINGS
-------

Total SCF time: 0 days 0 hours 0 min 3 sec 

Total time                  ....       3.782 sec
Sum of individual times     ....       3.247 sec  ( 85.9%)

SCF preparation             ....       0.033 sec  (  0.9%)
Fock matrix formation       ....       3.158 sec  ( 83.5%)
  Startup                   ....       0.001 sec  (  0.0% of F)
  Split-RI-J                ....       1.254 sec  ( 39.7% of F)
  XC integration            ....       2.364 sec  ( 74.9% of F)
    XC Preparation          ....       0.000 sec  (  0.0% of XC)
    Basis function eval.    ....       0.874 sec  ( 37.0% of XC)
    Density eval.           ....       0.528 sec  ( 22.3% of XC)
    XC-Functional eval.     ....       0.448 sec  ( 18.9% of XC)
    XC-Potential eval.      ....       0.450 sec  ( 19.0% of XC)
Diagonalization             ....       0.000 sec  (  0.0%)
Density matrix formation    ....       0.002 sec  (  0.1%)
Total Energy calculation    ....       0.001 sec  (  0.0%)
Population analysis         ....       0.020 sec  (  0.5%)
Orbital Transformation      ....       0.010 sec  (  0.3%)
Orbital Orthonormalization  ....       0.000 sec  (  0.0%)
DIIS solution               ....       0.005 sec  (  0.1%)
SOSCF solution              ....       0.018 sec  (  0.5%)
Finished LeanSCF after   3.8 sec

Maximum memory used throughout the entire LEANSCF-calculation: 23.6 MB



-------------------------------------------------------------------------------
                          DFT DISPERSION CORRECTION                            
-------------------------------------------------------------------------------
Active option DFTDOPT                   ...         2   
Final C6-coefficient scaling factor     ...     1.250
Final VDW-radii scaling factor          ...     1.100
Damping factor alpha                    ...    20.000
-------------------------   ----------------
Dispersion correction           -0.033932654
-------------------------   ----------------


-------------------------   --------------------
FINAL SINGLE POINT ENERGY      -496.715866576645
-------------------------   --------------------

                                *** OPTIMIZATION RUN DONE ***


------------------------------------------------------------------------------
                              ORCA PROPERTY CALCULATIONS
------------------------------------------------------------------------------

GBWName                                 ... 3.gbw
Number of atoms                         ...     24
Number of basis functions               ...    210
Max core memory                         ...   4096 MB

Electric properties:
Dipole moment                           ... YES
Quadrupole moment                       ...  NO
Static polarizability (Dipole/Dipole)   ...  NO
Static polarizability (Dipole/Quad.)    ...  NO
Static polarizability (Quad./Quad.)     ...  NO
Static polarizability (Velocity)        ...  NO
Static hyperpolarizability              ...  NO

Atomic electric properties:
Dipole moment                           ...  NO
Quadrupole moment                       ...  NO
Static polarizability                   ...  NO

Choice of electric origin               ... Center of mass
Position of electric origin             ...   -20.097732    10.973137     1.061585

General magnetic properties:
Magnetizability                         ...  NO

EPR properties:
g-Tensor (aka g-matrix)                 ...  NO
Zero-Field splitting spin-orbit         ...  NO
Zero-field splitting spin-spin          ...  NO
Hyperfine couplings                     ...  NO (   0 nuclei)
Quadrupole couplings                    ...  NO (   0 nuclei)
Contact density                         ...  NO (   0 nuclei)

NMR properties:
Chemical shifts                         ...  NO (   0 nuclei)
Spin-rotation constants                 ...  NO (   0 nuclei)
Spin-spin couplings                     ...  NO (   0 nuclei,    0 pairs)

Choice of magnetic origin               ... GIAO
Position of magnetic origin             ...     0.000000     0.000000     0.000000

Properties with geometric perturbations:
SCF Hessian                             ...  NO
IR spectrum                             ...  NO
VCD spectrum                            ...  NO
X-ray spectroscopy properties:
SCF XES/XAS/RIXS spectra                ...  NO

SCF SOC stabilization energy            ...  NO
Diagonal Born-Oppenheimer correction    ...  NO

-------------
DIPOLE MOMENT
-------------

Method             : SCF
Type of density    : Electron Density
Multiplicity       :   1
Irrep              :   0
Energy             :  -496.6819339223217185 Eh
Basis              : AO
                                X                 Y                 Z
Electronic contribution:     13.900778840      -3.482619462      -0.816876947
Nuclear contribution   :    -13.040658001       3.540658594       0.723359444
                        -----------------------------------------
Total Dipole Moment    :      0.860120839       0.058039131      -0.093517503
                        -----------------------------------------
Magnitude (a.u.)       :      0.867134316
Magnitude (Debye)      :      2.204080270



--------------------
Rotational spectrum 
--------------------
 
Rotational constants in cm-1:             0.112788             0.015583             0.014410 
Rotational constants in MHz :          3381.308887           467.161856           431.988235 

Dipole components along the rotational axes: 
x,y,z [a.u.] :    -0.844151    -0.176348    -0.090731 
x,y,z [Debye]:    -2.145662    -0.448241    -0.230619 

 

Dipole moment calculation done in   0.0 sec 

Maximum memory used throughout the entire PROP-calculation: 13.3 MB

--------------------------------
SUGGESTED CITATIONS FOR THIS RUN
--------------------------------

Below you find a list of papers that are relevant to this ORCA run
We neither can nor want to force you to cite these papers, but we appreciate if you do
You receive ORCA, which is the product of decades of hard work by many enthusiastic individuals, for free
The only thing we kindly ask in return is that you cite our papers,
We deeply appreciate it, if you show your appreciation for ORCA by not just citing the generic ORCA reference.

Please note that relegating all ORCA citations to the supporting information does *not* help us.
SI sections are not indexed - citations you put there will not count into any citation statistics
But we need these citations in order to attract the funding resources that allow us to do what we are doing

Therefore, if you are a happy ORCA user, please consider citing a few of the papers listed below in the main body of your paper

In addition to the list printed below, the program has created the file 3.bibtex that contains the list in bibtex format
You can import this file easily into all common literature databanks and citation aid programs


List of essential papers. We consider these as the minimum necessary citations

  1. Neese, F.
     Software update: the ORCA program system, version 6.0
     WIRES Comput. Molec. Sci. 2025 15(1), e70019
     doi.org/10.1002/wcms.7019

List of papers to cite with high priority. The work reported in these papers was absolutely
necessary for this run to complete.
Our perspective: the developers of density functionals and basis sets usually get cited in chemistry papers
Good! But without the algorithms to do something with them, the functionals or basis sets would not do anything.
Hence, in our opinion, the algorithm design and method developments papers are equally worthy of getting cited

  1. Neese, F.
     An improvement of the resolution of the identity approximation for the formation of the Coulomb matrix
     J. Comp. Chem. 2003 24(14), 1740-1747
     doi.org/10.1002/jcc.10318
  2. Grimme, S.
     Semiempirical GGA-type density functional constructed with a long-range dispersion correction
     J.Comput.Chem. 2006 27(15), 1787-1799
     doi.org/10.1002/jcc.20495
  3. Neese, F.
     The SHARK Integral Generation and Digestion System
     J. Comp. Chem. 2022 44(3), 381
     doi.org/10.1002/jcc.26942

List of suggested additional citations. These are papers that are important in the 'surrounding' of 
of this run, or papers that preceded the highly important papers. If you like your results we are grateful for a citation.

  1. Neese, F.
     The ORCA program system
     WIRES Comput. Molec. Sci. 2012 2(1), 73-78
     doi.org/10.1002/wcms.81
  2. Neese, F.
     Software update: the ORCA program system, version 4.0
     WIRES Comput. Molec. Sci. 2018 8(1), 1-6
     doi.org/10.1002/wcms.1327
  3. Neese, F.; Wennmohs, F.; Becker, U.; Riplinger, C.
     The ORCA quantum chemistry program package
     J. Chem. Phys. 2020 152(22), 224108
     doi.org/10.1063/5.0004608
  4. Neese, F.
     Software update: The ORCA program system—Version 5.0
     WIRES Comput. Molec. Sci. 2022 12(1), e1606
     doi.org/10.1002/wcms.1606

List of optional additional citations

  1. Neese, F.
     Approximate second-order SCF convergence for spin unrestricted wavefunctions
     Chem. Phys. Lett. 2000 325(1-3), 93-98
     doi.org/10.1016/s0009-2614(00)00662-x

Timings for individual modules:

Sum of individual times          ...      124.133 sec (=   2.069 min)
Startup calculation              ...        6.794 sec (=   0.113 min)   5.5 %
SCF iterations                   ...       70.113 sec (=   1.169 min)  56.5 %
Property calculations            ...        0.038 sec (=   0.001 min)   0.0 %
SCF Gradient evaluation          ...       47.163 sec (=   0.786 min)  38.0 %
Geometry relaxation              ...        0.025 sec (=   0.000 min)   0.0 %
                             ****ORCA TERMINATED NORMALLY****
TOTAL RUN TIME: 0 days 0 hours 2 minutes 4 seconds 453 msec
