
                                 *****************
                                 * O   R   C   A *
                                 *****************

                                            #,                                       
                                            ###                                      
                                            ####                                     
                                            #####                                    
                                            ######                                   
                                           ########,                                 
                                     ,,################,,,,,                         
                               ,,#################################,,                 
                          ,,##########################################,,             
                       ,#########################################, ''#####,          
                    ,#############################################,,   '####,        
                  ,##################################################,,,,####,       
                ,###########''''           ''''###############################       
              ,#####''   ,,,,##########,,,,          '''####'''          '####       
            ,##' ,,,,###########################,,,                        '##       
           ' ,,###''''                  '''############,,,                           
         ,,##''                                '''############,,,,        ,,,,,,###''
      ,#''                                            '''#######################'''  
     '                                                          ''''####''''         
             ,#######,   #######,   ,#######,      ##                                
            ,#'     '#,  ##    ##  ,#'     '#,    #''#        ,####,    ,#,          
            ##       ##  ##   ,#'  ##            #'  '#       #'       ,# #          
            ##       ##  #######   ##           ,######,      #####,      #          
            '#,     ,#'  ##    ##  '#,     ,#' ,#      #,     #,   #      #          
             '#######'   ##     ##  '#######'  #'      '#     '####' #    #          



                #########################################################
                #                        -***-                          #
                #          Department of theory and spectroscopy        #
                #                                                       #
                #                      Frank Neese                      #
                #                                                       #
                #     Directorship, Architecture, Infrastructure        #
                #                    SHARK, DRIVERS                     #
                #        Core code/Algorithms in most modules           #
                #                                                       #
                #        Max Planck Institute fuer Kohlenforschung      #
                #                Kaiser Wilhelm Platz 1                 #
                #                 D-45470 Muelheim/Ruhr                 #
                #                      Germany                          #
                #                                                       #
                #                  All rights reserved                  #
                #                        -***-                          #
                #########################################################


                         Program Version 6.1.0  -  RELEASE   -
                                (GIT: $679e74b$)
                          ($2025-06-10 18:02:51 +0200$)


 With contributions from (in alphabetic order):
[Max-Planck-Institut fuer Kohlenforschung]                               
  Daniel Aravena         : Magnetic Suceptibility                        
  Michael Atanasov       : Ab Initio Ligand Field Theory (pilot matlab implementation)
  Alexander A. Auer      : GIAO ZORA, VPT2 properties, NMR spectrum      
  Ute Becker             : All parallelization in ORCA, NUMFREQ, NUMCALC 
  Giovanni Bistoni       : ED, misc. LED, open-shell LED, HFLD           
  Dmytro Bykov           : pre 5.0 version of the SCF Hessian            
  Marcos Casanova-Páez   : Triplet and SCS-CIS(D). UHF-(DLPNO)-IP/EA/STEOM-CCSD. UHF-CVS-IP/STEOM-CCSD   
  Vijay G. Chilkuri      : MRCI spin determinant printing, contributions to CSF-ICE 
  Pauline Colinet        : FMM embedding                                 
  Dipayan Datta          : RHF DLPNO-CCSD density                        
  Achintya Kumar Dutta   : EOM-CC, STEOM-CC                              
  Nicolas Foglia         : Exact transition moments, OPA infrastructure, MCD improvements    
  Dmitry Ganyushin       : Spin-Orbit,Spin-Spin,Magnetic field MRCI      
  Miquel Garcia-Rates    : C-PCM and meta-GGA Hessian, CCSD/C-PCM, Gaussian charge scheme 
  Tiago L. C. Gouveia    : GS-ROHF, GS-ROCIS                             
  Yang Guo               : DLPNO-NEVPT2, F12-NEVPT2, CIM, IAO-localization        
  Andreas Hansen         : Spin unrestricted coupled pair/coupled cluster methods 
  Ingolf Harden          : AUTO-CI MPn and infrastructure                
  Benjamin Helmich-Paris : MC-RPA, TRAH-(SCF,CASSCF), AVAS, COSX integrals, SCF dyn. polar., MC-PDFT, srDFT 
  Lee Huntington         : MR-EOM, pCC                                   
  Robert Izsak           : Overlap fitted RIJCOSX, COSX-SCS-MP3, EOM     
  Riya Kayal             : Wick's Theorem for AUTO-CI, AUTO-CI UHF-CCSDT 
  Emily Kempfer          : AUTO-CI RHF CISDT and CCSDT, approximate NEVPT4
  Christian Kollmar      : KDIIS, OOCD, Brueckner-CCSD(T), CCSD density, CASPT2, CASPT2-K, improved NEVPT2 
  Axel Koslowski         : Symmetry handling                             
  Simone Kossmann        : meta-GGA functionals, TD-DFT gradient, OOMP2, (MP2 Hessian; deprecated post 5.0) 
  Lucas Lang             : DCDCAS, Hyperfine gauge corrections, ICE-SOC+SSC
  Marvin Lechner         : AUTO-CI (C++ implementation), FIC-MRCC        
  Spencer Leger          : CASSCF response                               
  Dagmar Lenk            : GEPOL surface, SMD, ORCA-2-JSON               
  Dimitrios Liakos       : Extrapolation schemes; Compound Job, Property file
  Dimitrios Manganas     : Further ROCIS development; embedding schemes. LFT, Crystal Embedding 
  Dimitrios Pantazis     : SARC Basis sets                               
  Anastasios Papadopoulos: AUTO-CI, single reference methods and gradients 
  Taras Petrenko         : pre 6.0 DFT Hessian and TD-DFT gradient,  ECA, NRVS 
  Petra Pikulova         : Analytic Raman intensities                    
  Peter Pinski           : DLPNO-MP2, DLPNO-MP2 Gradient                 
  Shashank Vittal Rao    : ES-AILFT, MagRelax                            
  Christoph Reimann      : Effective Core Potentials                     
  Marius Retegan         : Local ZFS, SOC                                
  Christoph Riplinger    : Optimizer, TS searches, QM/MM, DLPNO-CCSD(T), (RO)-DLPNO pert. Triples 
  Michael Roemelt        : Original ROCIS implementation, recursive CI coupling coefficients
  Masaaki Saitow         : Open-shell DLPNO-CCSD energy and density      
  Barbara Sandhoefer     : DKH picture change effects                    
  Yorick L. A. Schmerwitz: GMF and freeze-and-release deltaSCF, NEB S-IDPP initial path                    
  Kantharuban Sivalingam : CASSCF convergence/infrastructure, NEVPT2, NEVPT3, NEVPT4(SD), FIC-MRCI and CEPA variants
  Bernardo de Souza      : ESD, SOC TD-DFT                               
  Georgi L. Stoychev     : AutoAux, RI-MP2 NMR, DLPNO-MP2 response, X2C  
  Van Anh Tran           : RI-MP2 g-tensors                              
  Willem Van den Heuvel  : Paramagnetic NMR                              
  Zikuan Wang            : NOTCH, Electric field optimization            
  Frank Wennmohs         : Technical directorship and infrastructure     
  Hang Xu                : AUTO-CI-Response properties                   
                                                                         
[FACCTs GmbH]                                                            
  Markus Bursch, Nicolas Foglia, Miquel Garcia-Rates, Ingolf Harden, Hagen Neugebauer, Anastasios Papadopoulos, 
  Christoph Riplinger, Bernardo de Souza, Georgi L. Stoychev                                                    
                                                                 
  APM, various basis sets, CI-OPT, improved COSX, DLPNO-Multilevel,           
  DOCKER, DRACO, updates on ESD, Fragmentator, GOAT, IRC, LR-CPCM, L-BFGS, MBIS, meta-GGA TD-DFT gradient, ML-optimized integration grids, 
  MM, NACMEs, nearIR, NEB, NEB-TS, NL-DFT gradient (VV10), 2- and 3-layer-ONIOM, interface openCOSMO-RS, QMMM,   
  Crystal-QMMM, RESP, rigid body optimization, SF, symmetry and pop. for TD-DFT, various functionals, SOLVATOR                                   
                                                                         
[Other institutions]                                                     
  V. Asgeirsson          : NEB                                           
  Christoph Bannwarth    : sTDA-DFT, sTD-DFT, PBEh-3c, B97-3c, D3        
  Giovanni Bistoni       : ETS/NOCV, ADLD/ADEX, COVALED                  
  Martin Brehm           : Molecular dynamics                            
  Ronald Cardenas        : ETS/NOCV                                      
  Martina Colucci        : COVALED                                       
  Sebastian Ehlert       : rSCAN, r2SCAN, r2SCAN-3c, D4, dhf basis sets  
  Marvin Friede          : D4 for Fr, Ra, Ac-Lr                          
  Lars Goerigk           : TD-DFT with DH, B97 family of functionals     
  Stefan Grimme          : VdW corrections, initial TS optimization, DFT functionals, gCP, sTDA/sTD-DF 
  Waldemar Hujo          : DFT-NL                                        
  H. Jonsson             : NEB                                           
  Holger Kruse           : gCP                                           
  Marcel Mueller         : wB97X-3c, vDZP basis set                      
  Hagen Neugebauer       : wr2SCAN, Native XTB                           
  Gianluca Regni         : ADLD/ADEX                                     
  Tobias Risthaus        : pre 6.0 range-separated hybrid DFT and stability analysis
  Lukas Wittmann         : regularized MP2, r2SCAN double-hybrids, wr2SCAN        
                                                                         
We gratefully acknowledge several colleagues who have allowed us to      
interface, adapt or use parts of their codes:                            
  Ed Valeev, F. Pavosevic, A. Kumar             : LibInt (2-el integral package), F12 methods 
  Garnet Chan, S. Sharma, J. Yang, R. Olivares  : DMRG                   
  Ulf Ekstrom                                   : XCFun DFT Library      
  Mihaly Kallay                                 : mrcc  (arbitrary order and MRCC methods)
  Frank Weinhold                                : gennbo (NPA and NBO analysis)           
  Simon Mueller                                 : openCOSMO-RS                            
  Christopher J. Cramer and Donald G. Truhlar   : smd solvation model                     
  S Lehtola, MJT Oliveira, MAL Marques          : LibXC Library                           
  Liviu Ungur et al                             : ANISO software                          


 Your calculation uses the libint2 library for the computation of 2-el integrals
 For citations please refer to: http://libint.valeyev.net

 Your ORCA version has been built with support for libXC version: 7.0.0
 For citations please refer to: https://libxc.gitlab.io

 This ORCA versions uses:
   CBLAS   interface :  Fast vector & matrix operations
   LAPACKE interface :  Fast linear algebra routines
   SCALAPACK package :  Parallel linear algebra routines
   Shared memory     :  Shared parallel matrices
   BLAS/LAPACK       :  OpenBLAS 0.3.29  USE64BITINT DYNAMIC_ARCH NO_AFFINITY Haswell SINGLE_THREADED
        Core in use  :  Haswell
   Copyright (c) 2011-2014, The OpenBLAS Project


  ***********************************
  * Starting time: Mon Sep  1 16:39:32 2025
  * Host name:     chemlab03
  * Process ID:    110108
  * Working dir.:  /home/vivek/mm-project/vivek/xtb-goat/MP2-opt/g/3
  ***********************************



***************************************
The coordinates will be read from file: /home/vivek/mm-project/vivek/xtb-goat/xtb-goat/g/G_CONF/3.xyz
***************************************


================================================================================

----- Orbital basis set information -----
Your calculation utilizes the basis: 6-31G**
   H-He, Li-Ne : W. J. Hehre, R. Ditchfield and J.A. Pople, J. Chem. Phys. 56, 2257 (1972).
                 Note: He and Ne are unpublished basis sets taken from the Gaussian program.
                 Note: Li and B from J. D. Dill and J. A. Pople, J. Chem. Phys. 62, 2921 (1975).
   Na - Ar     : M. M. Francl, W. J. Pietro, W. J. Hehre, J. S. Binkley, M. S. Gordon, 
                 D. J. DeFrees and J. A. Pople, J. Chem. Phys. 77, 3654 (1982).
   K - Zn      : V. A. Rassolov, J. A. Pople, M. A. Ratner, and T. L. Windus, J. Chem. Phys. 109, 1223 (1998).

================================================================================
                                        WARNINGS
                       Please study these warnings very carefully!
================================================================================

WARNING: Old DensityContainer found on disk!
         Will remove this file - 
         If you want to keep old densities, please start your calculation with a different basename. 


WARNING: The frozen-core approximation for MP2-gradient calculations is turned on by default.

WARNING: Geometry Optimization
  ===> : Switching off AutoStart
         For restart on a previous wavefunction, please use MOREAD

WARNING: Post HF methods need fully converged wavefunctions
  ===> : Setting SCFConvForced true
         You can overwrite this default with %scf ConvForced false 


================================================================================
                                       INPUT FILE
================================================================================
NAME = 3.inp
|  1> ! MP2 6-31G** opt
|  2> 
|  3> * xyzfile 0 1 /home/vivek/mm-project/vivek/xtb-goat/xtb-goat/g/G_CONF/3.xyz
|  4> 
|  5>                          ****END OF INPUT****
================================================================================

                       *****************************
                       * Geometry Optimization Run *
                       *****************************

Geometry optimization settings:
Update method            Update   .... BFGS
Choice of coordinates    CoordSys .... (2022) Redundant Internals
Initial Hessian          InHess   .... Almloef's Model
Max. no of cycles        MaxIter  .... 50

Convergence Tolerances:
Energy Change            TolE     ....  5.0000e-06 Eh
Max. Gradient            TolMAXG  ....  3.0000e-04 Eh/bohr
RMS Gradient             TolRMSG  ....  1.0000e-04 Eh/bohr
Max. Displacement        TolMAXD  ....  4.0000e-03 bohr
RMS Displacement         TolRMSD  ....  2.0000e-03 bohr
Strict Convergence                .... False

------------------------------------------------------------------------------
                        ORCA OPTIMIZATION COORDINATE SETUP
------------------------------------------------------------------------------

The optimization will be done in redundant internal coordinates (2022)
Making redundant internal coordinates   ...  (2022 redundants) done
Evaluating the initial hessian          ...  (Almloef) done
Evaluating the coordinates              ...  done
Calculating the B-matrix                .... done
Calculating the G-matrix                .... done
The number of degrees of freedom        ....   35

    -----------------------------------------------------------------
                    Redundant Internal Coordinates


    -----------------------------------------------------------------
         Definition                    Initial Value    Approx d2E/dq
    -----------------------------------------------------------------
      1. B(C   1,C   0)                  1.5119         0.399266   
      2. B(N   4,H   2)                  1.0124         0.428964   
      3. B(N   4,C   0)                  1.4497         0.449389   
      4. B(N   4,H   3)                  1.0161         0.423184   
      5. B(O   5,C   1)                  1.3363         0.681610   
      6. B(H   6,C   0)                  1.0952         0.353266   
      7. B(H   7,C   0)                  1.1023         0.344193   
      8. B(H   8,O   5)                  0.9708         0.499781   
      9. B(O   9,H   3)                  2.2731         0.010000   
     10. B(O   9,C   1)                  1.2013         1.119342   
     11. A(N   4,C   0,H   7)          114.0299         0.329874   
     12. A(C   1,C   0,H   7)          105.8033         0.325458   
     13. A(C   1,C   0,N   4)          110.8434         0.377018   
     14. A(H   6,C   0,H   7)          107.3490         0.287921   
     15. A(C   1,C   0,H   6)          108.6608         0.326854   
     16. A(N   4,C   0,H   6)          109.9272         0.331297   
     17. A(C   0,C   1,O   9)          124.9009         0.443100   
     18. A(C   0,C   1,O   5)          112.0325         0.405495   
     19. A(O   5,C   1,O   9)          123.0486         0.485378   
     20. A(C   0,N   4,H   3)          109.2489         0.338464   
     21. A(C   0,N   4,H   2)          111.5823         0.339231   
     22. A(H   2,N   4,H   3)          108.4956         0.301762   
     23. A(C   1,O   5,H   8)          110.4097         0.373648   
     24. D(O   5,C   1,C   0,N   4)   -161.8044         0.011833   
     25. D(O   9,C   1,C   0,N   4)     19.7042         0.011833   
     26. D(O   9,C   1,C   0,H   6)    140.6021         0.011833   
     27. D(O   5,C   1,C   0,H   6)    -40.9066         0.011833   
     28. D(O   5,C   1,C   0,H   7)     74.0978         0.011833   
     29. D(H   2,N   4,C   0,H   6)     96.0910         0.017227   
     30. D(H   2,N   4,C   0,C   1)   -143.7631         0.017227   
     31. D(H   3,N   4,C   0,H   6)   -143.9433         0.017227   
     32. D(H   3,N   4,C   0,C   1)    -23.7974         0.017227   
     33. D(H   2,N   4,C   0,H   7)    -24.5007         0.017227   
     34. D(H   8,O   5,C   1,O   9)     -0.3053         0.034619   
     35. D(H   8,O   5,C   1,C   0)   -178.8292         0.034619   
    -----------------------------------------------------------------

Number of atoms                         .... 10
Number of degrees of freedom            .... 35


         *************************************************************
         *                GEOMETRY OPTIMIZATION CYCLE   1            *
         *************************************************************
---------------------------------
CARTESIAN COORDINATES (ANGSTROEM)
---------------------------------
  C     -5.042063   -1.351505   -0.101382
  C     -4.722816   -2.284308    1.044822
  H     -6.027644    0.446265   -0.154997
  H     -5.597792   -0.054876    1.352970
  N     -5.300779   -0.009599    0.382348
  O     -4.111198   -3.397560    0.629713
  H     -4.192426   -1.341858   -0.792412
  H     -5.892689   -1.808911   -0.632680
  H     -3.934038   -3.986633    1.380717
  O     -5.002843   -2.080699    2.195129

----------------------------
CARTESIAN COORDINATES (A.U.)
----------------------------
  NO LB      ZA    FRAG     MASS         X           Y           Z
   0 C     6.0000    0    12.011   -9.528118   -2.553973   -0.191585
   1 C     6.0000    0    12.011   -8.924828   -4.316717    1.974428
   2 H     1.0000    0     1.008  -11.390596    0.843319   -0.292902
   3 H     1.0000    0     1.008  -10.578294   -0.103702    2.556742
   4 N     7.0000    0    14.007  -10.017021   -0.018139    0.722532
   5 O     8.0000    0    15.999   -7.769039   -6.420459    1.189986
   6 H     1.0000    0     1.008   -7.922537   -2.535745   -1.497441
   7 H     1.0000    0     1.008  -11.135568   -3.418347   -1.195592
   8 H     1.0000    0     1.008   -7.434255   -7.533645    2.609177
   9 O     8.0000    0    15.999   -9.454003   -3.931951    4.148193

--------------------------------
INTERNAL COORDINATES (ANGSTROEM)
--------------------------------
 C      0   0   0     0.000000000000     0.00000000     0.00000000
 C      1   0   0     1.511895007973     0.00000000     0.00000000
 H      1   2   0     2.050907334537   131.46153502     0.00000000
 H      3   1   2     1.646171247820    65.39969076    13.76554272
 N      3   1   2     1.012365403293    41.09440101    47.49133044
 O      2   1   3     1.336308889729   112.03253288   176.96840514
 H      1   2   3     1.095215612917   108.66082797   142.12502303
 H      1   2   3     1.102298618972   105.80333936   257.12940423
 H      6   2   1     0.970772487238   110.40974452   181.17082550
 O      2   1   3     1.201282104493   124.90088717   358.47704565

---------------------------
INTERNAL COORDINATES (A.U.)
---------------------------
 C      0   0   0     0.000000000000     0.00000000     0.00000000
 C      1   0   0     2.857067508312     0.00000000     0.00000000
 H      1   2   0     3.875653188325   131.46153502     0.00000000
 H      3   1   2     3.110812827915    65.39969076    13.76554272
 N      3   1   2     1.913093359681    41.09440101    47.49133044
 O      2   1   3     2.525257831913   112.03253288   176.96840514
 H      1   2   3     2.069657566007   108.66082797   142.12502303
 H      1   2   3     2.083042507657   105.80333936   257.12940423
 H      6   2   1     1.834494139226   110.40974452   181.17082550
 O      2   1   3     2.270094187073   124.90088717   358.47704565

---------------------
BASIS SET INFORMATION
---------------------
There are 4 groups of distinct atoms

 Group   1 Type C   : 10s4p1d contracted to 3s2p1d pattern {631/31/1}
 Group   2 Type H   : 4s1p contracted to 2s1p pattern {31/1}
 Group   3 Type N   : 10s4p1d contracted to 3s2p1d pattern {631/31/1}
 Group   4 Type O   : 10s4p1d contracted to 3s2p1d pattern {631/31/1}

Atom   0C    basis set group =>   1
Atom   1C    basis set group =>   1
Atom   2H    basis set group =>   2
Atom   3H    basis set group =>   2
Atom   4N    basis set group =>   3
Atom   5O    basis set group =>   4
Atom   6H    basis set group =>   2
Atom   7H    basis set group =>   2
Atom   8H    basis set group =>   2
Atom   9O    basis set group =>   4
------------------------------------------------------------------------------
                             ORCA STARTUP CALCULATIONS
------------------------------------------------------------------------------
------------------------------------------------------------------------------
                   ___                                                        
                  /   \      - P O W E R E D   B Y -                         
                 /     \                                                     
                 |  |  |   _    _      __       _____    __    __             
                 |  |  |  | |  | |    /  \     |  _  \  |  |  /  |          
                  \  \/   | |  | |   /    \    | | | |  |  | /  /          
                 / \  \   | |__| |  /  /\  \   | |_| |  |  |/  /          
                |  |  |   |  __  | /  /__\  \  |    /   |      \           
                |  |  |   | |  | | |   __   |  |    \   |  |\   \          
                \     /   | |  | | |  |  |  |  | |\  \  |  | \   \       
                 \___/    |_|  |_| |__|  |__|  |_| \__\ |__|  \__/        
                                                                              
                      - O R C A' S   B I G   F R I E N D -                    
                                      &                                       
                       - I N T E G R A L  F E E D E R -                       
                                                                              
 v1 FN, 2020, v2 2021, v3 2022-2024                                           
------------------------------------------------------------------------------


----------------------
SHARK INTEGRAL PACKAGE
----------------------

Number of atoms                             ...     10
Number of basis functions                   ...     95
Number of shells                            ...     45
Maximum angular momentum                    ...      2
Integral batch strategy                     ... SHARK/LIBINT Hybrid
RI-J (if used) integral strategy            ... SPLIT-RIJ (Revised 2003 algorithm where possible)
Printlevel                                  ...      1
Contraction scheme used                     ... SEGMENTED contraction
Prescreening option                         ... SCHWARTZ
   Thresh                                   ... 2.500e-11
   Tcut                                     ... 2.500e-12
   Tpresel                                  ... 2.500e-12 
Coulomb Range Separation                    ... NOT USED
Exchange Range Separation                   ... NOT USED
Multipole approximations                    ... NOT USED
Finite Nucleus Model                        ... NOT USED
CABS basis                                  ... NOT available
Auxiliary Coulomb fitting basis             ... NOT available
Auxiliary J/K fitting basis                 ... NOT available
Auxiliary Correlation fitting basis         ... NOT available
Auxiliary 'external' fitting basis          ... NOT available

Checking pre-screening integrals            ... done (  0.0 sec) Dimension = 45
   => SHARK Basis and OBASIS are compatible. Storing Pre-screening
Shell pair information
Shell pair cut-off parameter TPreSel        ...   2.5e-12
Total number of shell pairs                 ...      1035
Shell pairs after pre-screening             ...      1002
Total number of primitive shell pairs       ...      5170
Primitive shell pairs kept                  ...      3727
          la=0 lb=0:    311 shell pairs
          la=1 lb=0:    361 shell pairs
          la=1 lb=1:    117 shell pairs
          la=2 lb=0:    123 shell pairs
          la=2 lb=1:     75 shell pairs
          la=2 lb=2:     15 shell pairs

Checking whether 4 symmetric matrices of dimension 95 fit in memory
:Max Core in MB      =   4096.00
 MB in use           =      2.62
 MB left             =   4093.38
 MB needed           =      0.14
 Data fit in memory  = YES
Calculating Nuclear repulsion               ... done (  0.0 sec) ENN=    180.385903333635 Eh

Diagonalization of the overlap matrix:
Smallest eigenvalue                        ... 4.371e-03
Time for diagonalization                   ...    0.001 sec
Threshold for overlap eigenvalues          ... 1.000e-07
Number of eigenvalues below threshold      ... 0
Time for construction of square roots      ...    0.000 sec
Total time needed                          ...    0.001 sec

-------------------
DFT GRID GENERATION
-------------------

General Integration Accuracy     IntAcc      ... 4.388
Radial Grid Type                 RadialGrid  ... OptM3 with GC (2021)
Angular Grid (max. ang.)         AngularGrid ... 4 (Lebedev-302)
Angular grid pruning method      GridPruning ... 4 (adaptive)
Weight generation scheme         WeightScheme... mBecke (2022)
Basis function cutoff            BFCut       ... 1.0000e-11
Integration weight cutoff        WCut        ... 1.0000e-14
Partially contracted basis set               ... off
Rotationally invariant grid construction     ... off
Angular grids for H and He will be reduced by one unit

Total number of grid points                  ...    46618
Total number of batches                      ...      734
Average number of points per batch           ...       63
Average number of grid points per atom       ...     4662
Grids setup in   0.1 sec
Initializing property integral containers    ... done (  0.0 sec)

SHARK setup successfully completed in   0.2 seconds

Maximum memory used throughout the entire STARTUP-calculation: 17.7 MB
-------------------------------------------------------------------------------
                                 ORCA GUESS
                   Start orbitals & Density for SCF / CASSCF
-------------------------------------------------------------------------------

------------
SCF SETTINGS
------------
Hamiltonian:
 Ab initio Hamiltonian  Method          .... Hartree-Fock(GTOs)


General Settings:
 Integral files         IntName         .... 3
 Hartree-Fock type      HFTyp           .... RHF
 Total Charge           Charge          ....    0
 Multiplicity           Mult            ....    1
 Number of Electrons    NEL             ....   40
 Basis Dimension        Dim             ....   95
 Nuclear Repulsion      ENuc            ....    180.3859033336 Eh

Convergence Acceleration:
 AO-DIIS                CNVDIIS         .... on
   Start iteration      DIISMaxIt       ....    12
   Startup error        DIISStart       ....  0.200000
   # of expansion vecs  DIISMaxEq       ....     5
   Bias factor          DIISBfac        ....   1.050
   Max. coefficient     DIISMaxC        ....  10.000
 MO-DIIS                CNVKDIIS        .... off
 Trust-Rad. Augm. Hess. CNVTRAH         .... auto
   Auto Start mean grad. ratio tolernc. ....  1.125000
   Auto Start start iteration           ....    50
   Auto Start num. interpolation iter.  ....    10
   Max. Number of Micro iterations      ....    24
   Max. Number of Macro iterations      .... Maxiter - #DIIS iter
   Number of Davidson start vectors     ....     2
   Converg. threshold    (grad. norm)   ....   1.000e-05
   Grad. Scal. Fac. for Micro threshold ....   0.100
   Minimum threshold for Micro iter.    ....   1.000e-02
   NR start threshold (gradient norm)   ....   1.000e-04
   Initial trust radius                 ....   0.400
   Minimum AH scaling param. (alpha)    ....   1.000
   Maximum AH scaling param. (alpha)    .... 1000.000
   Quad. conv. algorithm                .... NR
   White noise on init. David. guess    .... on
   Maximum white noise                  ....   0.010
   Pseudo random numbers                .... off
   Inactive MOs                         .... canonical
   Orbital update algorithm             .... Taylor
   Preconditioner                       .... Diag
   Full preconditioner red. dimension   ....   250
 SOSCF                 CNVSOSCF           .... on
   Start iteration     SOSCFMaxIt         ....   150
   Startup grad/error  SOSCFStart         ....  0.003300
   Hessian update      SOSCFHessUp        .... L-BFGS
   Autom. constraints  SOSCFAutoConstrain .... off
 Level Shifting         CNVShift        .... on
   Level shift para.    LevelShift      ....    0.2500
   Turn off err/grad.   ShiftErr        ....    0.0010
 Zerner damping         CNVZerner       .... off
 Static damping         CNVDamp         .... on
   Fraction old density DampFac         ....    0.7000
   Max. Damping (<1)    DampMax         ....    0.9800
   Min. Damping (>=0)   DampMin         ....    0.0000
   Turn off err/grad.   DampErr         ....    0.1000

SCF Procedure:
 Maximum # iterations   MaxIter         ....   125
 SCF integral mode      SCFMode         .... Direct
   Integral package                     .... SHARK and LIBINT hybrid scheme
 Reset frequency        DirectResetFreq ....    20
 Integral Threshold     Thresh          ....  2.500e-11 Eh
 Primitive CutOff       TCut            ....  2.500e-12 Eh

Convergence Tolerance:
 Convergence Check Mode ConvCheckMode   .... Total+1el-Energy
 Convergence forced     ConvForced      .... 1
 Energy Change          TolE            ....  1.000e-08 Eh
 1-El. energy change                    ....  1.000e-05 Eh
 Orbital Gradient       TolG            ....  1.000e-05
 Orbital Rotation angle TolX            ....  1.000e-05
 DIIS Error             TolErr          ....  5.000e-07

------------------------------
INITIAL GUESS: MODEL POTENTIAL
------------------------------
Loading Hartree-Fock densities                     ... done
Calculating cut-offs                               ... done
Initializing the effective Hamiltonian             ... done
Setting up the integral package (SHARK)            ... done
Starting the Coulomb interaction                   ... done (   0.0 sec)
Making the grid                                    ... done (   0.0 sec)
Mapping shells                                     ... done
Starting the XC term evaluation                    ... done (   0.0 sec)
Transforming the Hamiltonian                       ... done (   0.0 sec)
Diagonalizing the Hamiltonian                      ... done (   0.0 sec)
Back transforming the eigenvectors                 ... done (   0.0 sec)
Now organizing SCF variables                       ... done
                      ------------------
                      INITIAL GUESS DONE (   0.1 sec)
                      ------------------
             **** ENERGY FILE WAS UPDATED (3.en.tmp) ****
Finished Guess after   0.1 sec
Maximum memory used throughout the entire GUESS-calculation: 6.1 MB

-------------------------------------------------------------------------------------------
                                      ORCA LEAN-SCF
                              memory conserving SCF solver
-------------------------------------------------------------------------------------------

----------------------------------------D-I-I-S--------------------------------------------
Iteration    Energy (Eh)           Delta-E    RMSDP     MaxDP     DIISErr   Damp  Time(sec)
-------------------------------------------------------------------------------------------
               ***  Starting incremental Fock matrix formation  ***
    1    -282.6030270005587681     0.00e+00  3.59e-03  6.91e-02  2.59e-01  0.700   0.2
    2    -282.6906310355346932    -8.76e-02  2.61e-03  4.97e-02  1.59e-01  0.700   0.2
                               ***Turning on AO-DIIS***
    3    -282.7405947787494824    -5.00e-02  1.34e-03  2.20e-02  8.77e-02  0.700   0.2
    4    -282.7718383087674283    -3.12e-02  3.02e-03  4.43e-02  6.03e-02  0.000   0.2
    5    -282.8411514182076871    -6.93e-02  4.04e-04  5.60e-03  5.49e-03  0.000   0.2
                              *** Initializing SOSCF ***
---------------------------------------S-O-S-C-F--------------------------------------
Iteration    Energy (Eh)           Delta-E    RMSDP     MaxDP     MaxGrad    Time(sec)
--------------------------------------------------------------------------------------
    6    -282.8414750143438141    -3.24e-04  2.04e-04  2.37e-03  3.08e-03     0.2
               *** Restarting incremental Fock matrix formation ***
    7    -282.8415536072091072    -7.86e-05  1.28e-04  2.24e-03  1.79e-03     0.2
    8    -282.8415793165709147    -2.57e-05  1.50e-04  1.87e-03  5.04e-04     0.2
    9    -282.8415883174719738    -9.00e-06  2.71e-05  3.21e-04  2.92e-04     0.2
   10    -282.8415891985562212    -8.81e-07  8.34e-06  1.02e-04  6.98e-05     0.2
   11    -282.8415892782055607    -7.96e-08  4.06e-06  7.16e-05  1.75e-05     0.2
   12    -282.8415892898939319    -1.17e-08  8.48e-07  1.90e-05  7.66e-06     0.2
   13    -282.8415892908554952    -9.62e-10  2.02e-07  3.59e-06  1.02e-06     0.2
                 **** Energy Check signals convergence ****

               *****************************************************
               *                     SUCCESS                       *
               *           SCF CONVERGED AFTER  13 CYCLES          *
               *****************************************************

             **** ENERGY FILE WAS UPDATED (3.en.tmp) ****

----------------
TOTAL SCF ENERGY
----------------

Total Energy       :       -282.84158929122634 Eh           -7696.51093 eV

Components:
Nuclear Repulsion  :        180.38590333363479 Eh            4908.54998 eV
Electronic Energy  :       -463.22749262486110 Eh          -12605.06090 eV
One Electron Energy:       -744.46530566380829 Eh          -20257.93086 eV
Two Electron Energy:        281.23781303894719 Eh            7652.86996 eV

Virial components:
Potential Energy   :       -565.23496360080162 Eh          -15380.82531 eV
Kinetic Energy     :        282.39337430957534 Eh            7684.31438 eV
Virial Ratio       :          2.00158720077178

---------------
SCF CONVERGENCE
---------------

  Last Energy change         ...    9.6156e-10  Tolerance :   1.0000e-08
  Last MAX-Density change    ...    3.5896e-06  Tolerance :   1.0000e-07
  Last RMS-Density change    ...    2.0195e-07  Tolerance :   5.0000e-09
  Last DIIS Error            ...    3.0807e-03  Tolerance :   5.0000e-07
  Last Orbital Gradient      ...    1.0190e-06  Tolerance :   1.0000e-05
  Last Orbital Rotation      ...    1.3031e-06  Tolerance :   1.0000e-05


----------------
ORBITAL ENERGIES
----------------

  NO   OCC          E(Eh)            E(eV) 
   0   2.0000     -20.622067      -561.1550 
   1   2.0000     -20.560161      -559.4704 
   2   2.0000     -15.545482      -423.0141 
   3   2.0000     -11.392990      -310.0190 
   4   2.0000     -11.274307      -306.7895 
   5   2.0000      -1.474495       -40.1231 
   6   2.0000      -1.369330       -37.2614 
   7   2.0000      -1.187592       -32.3160 
   8   2.0000      -0.976157       -26.5626 
   9   2.0000      -0.817690       -22.2505 
  10   2.0000      -0.717674       -19.5289 
  11   2.0000      -0.704255       -19.1637 
  12   2.0000      -0.668224       -18.1833 
  13   2.0000      -0.624746       -17.0002 
  14   2.0000      -0.597562       -16.2605 
  15   2.0000      -0.570513       -15.5244 
  16   2.0000      -0.554465       -15.0878 
  17   2.0000      -0.485262       -13.2047 
  18   2.0000      -0.456320       -12.4171 
  19   2.0000      -0.395548       -10.7634 
  20   0.0000       0.180567         4.9135 
  21   0.0000       0.221295         6.0217 
  22   0.0000       0.236781         6.4431 
  23   0.0000       0.277953         7.5635 
  24   0.0000       0.318638         8.6706 
  25   0.0000       0.337247         9.1770 
  26   0.0000       0.412961        11.2372 
  27   0.0000       0.442048        12.0287 
  28   0.0000       0.488783        13.3005 
  29   0.0000       0.542519        14.7627 
  30   0.0000       0.745279        20.2801 
*Only the first 10 virtual orbitals were printed.

                    ********************************
                    * MULLIKEN POPULATION ANALYSIS *
                    ********************************

-----------------------
MULLIKEN ATOMIC CHARGES
-----------------------
   0 C :   -0.090614
   1 C :    0.780963
   2 H :    0.272183
   3 H :    0.300978
   4 N :   -0.720270
   5 O :   -0.633432
   6 H :    0.159957
   7 H :    0.137503
   8 H :    0.374576
   9 O :   -0.581845
Sum of atomic charges:    0.0000000

--------------------------------
MULLIKEN REDUCED ORBITAL CHARGES
--------------------------------
  0 C s       :     3.201229  s :     3.201229
      pz      :     0.956031  p :     2.825986
      px      :     1.079119
      py      :     0.790835
      dz2     :     0.005163  d :     0.063398
      dxz     :     0.013526
      dyz     :     0.017015
      dx2y2   :     0.014503
      dxy     :     0.013191

  1 C s       :     2.944776  s :     2.944776
      pz      :     0.804319  p :     2.126104
      px      :     0.626583
      py      :     0.695202
      dz2     :     0.035719  d :     0.148157
      dxz     :     0.029373
      dyz     :     0.048684
      dx2y2   :     0.016799
      dxy     :     0.017581

  2 H s       :     0.701436  s :     0.701436
      pz      :     0.007319  p :     0.026381
      px      :     0.011233
      py      :     0.007829

  3 H s       :     0.672152  s :     0.672152
      pz      :     0.015823  p :     0.026870
      px      :     0.006655
      py      :     0.004392

  4 N s       :     3.613339  s :     3.613339
      pz      :     1.201361  p :     4.073937
      px      :     1.609304
      py      :     1.263272
      dz2     :     0.006574  d :     0.032993
      dxz     :     0.008796
      dyz     :     0.005015
      dx2y2   :     0.009026
      dxy     :     0.003581

  5 O s       :     3.835149  s :     3.835149
      pz      :     1.633513  p :     4.772744
      px      :     1.748079
      py      :     1.391153
      dz2     :     0.005154  d :     0.025539
      dxz     :     0.003376
      dyz     :     0.009880
      dx2y2   :     0.003211
      dxy     :     0.003917

  6 H s       :     0.827722  s :     0.827722
      pz      :     0.004754  p :     0.012320
      px      :     0.006496
      py      :     0.001071

  7 H s       :     0.849864  s :     0.849864
      pz      :     0.003775  p :     0.012633
      px      :     0.006157
      py      :     0.002701

  8 H s       :     0.583837  s :     0.583837
      pz      :     0.018308  p :     0.041588
      px      :     0.008969
      py      :     0.014310

  9 O s       :     3.873633  s :     3.873633
      pz      :     1.392693  p :     4.675277
      px      :     1.530050
      py      :     1.752534
      dz2     :     0.011153  d :     0.032934
      dxz     :     0.011724
      dyz     :     0.008345
      dx2y2   :     0.001136
      dxy     :     0.000577



                     *******************************
                     * LOEWDIN POPULATION ANALYSIS *
                     *******************************

----------------------
LOEWDIN ATOMIC CHARGES
----------------------
   0 C :   -0.060152
   1 C :    0.242631
   2 H :    0.130123
   3 H :    0.140231
   4 N :   -0.300456
   5 O :   -0.206421
   6 H :    0.082475
   7 H :    0.073914
   8 H :    0.203232
   9 O :   -0.305577

-------------------------------
LOEWDIN REDUCED ORBITAL CHARGES
-------------------------------
  0 C s       :     2.884353  s :     2.884353
      pz      :     1.032331  p :     3.053231
      px      :     1.080373
      py      :     0.940528
      dz2     :     0.010267  d :     0.122568
      dxz     :     0.025087
      dyz     :     0.034465
      dx2y2   :     0.027962
      dxy     :     0.024787

  1 C s       :     2.839141  s :     2.839141
      pz      :     1.035758  p :     2.599044
      px      :     0.709785
      py      :     0.853502
      dz2     :     0.078230  d :     0.319184
      dxz     :     0.059963
      dyz     :     0.107790
      dx2y2   :     0.034511
      dxy     :     0.038690

  2 H s       :     0.787795  s :     0.787795
      pz      :     0.021935  p :     0.082082
      px      :     0.036786
      py      :     0.023360

  3 H s       :     0.775002  s :     0.775002
      pz      :     0.047591  p :     0.084767
      px      :     0.022818
      py      :     0.014358

  4 N s       :     3.184088  s :     3.184088
      pz      :     1.184390  p :     4.057770
      px      :     1.578589
      py      :     1.294792
      dz2     :     0.013096  d :     0.058598
      dxz     :     0.012241
      dyz     :     0.011244
      dx2y2   :     0.013924
      dxy     :     0.008093

  5 O s       :     3.457415  s :     3.457415
      pz      :     1.606643  p :     4.701213
      px      :     1.709902
      py      :     1.384668
      dz2     :     0.007944  d :     0.047793
      dxz     :     0.004730
      dyz     :     0.018048
      dx2y2   :     0.007463
      dxy     :     0.009608

  6 H s       :     0.877736  s :     0.877736
      pz      :     0.015200  p :     0.039789
      px      :     0.019931
      py      :     0.004658

  7 H s       :     0.886720  s :     0.886720
      pz      :     0.011666  p :     0.039366
      px      :     0.018490
      py      :     0.009211

  8 H s       :     0.676483  s :     0.676483
      pz      :     0.053542  p :     0.120285
      px      :     0.027229
      py      :     0.039514

  9 O s       :     3.546726  s :     3.546726
      pz      :     1.482923  p :     4.701364
      px      :     1.503767
      py      :     1.714674
      dz2     :     0.025820  d :     0.057487
      dxz     :     0.015423
      dyz     :     0.013515
      dx2y2   :     0.001434
      dxy     :     0.001294



                      *****************************
                      * MAYER POPULATION ANALYSIS *
                      *****************************

  NA   - Mulliken gross atomic population
  ZA   - Total nuclear charge
  QA   - Mulliken gross atomic charge
  VA   - Mayer's total valence
  BVA  - Mayer's bonded valence
  FA   - Mayer's free valence

  ATOM       NA         ZA         QA         VA         BVA        FA
  0 C      6.0906     6.0000    -0.0906     3.7710     3.7710    -0.0000
  1 C      5.2190     6.0000     0.7810     3.7348     3.7348     0.0000
  2 H      0.7278     1.0000     0.2722     0.9051     0.9051    -0.0000
  3 H      0.6990     1.0000     0.3010     0.9012     0.9012     0.0000
  4 N      7.7203     7.0000    -0.7203     2.7188     2.7188    -0.0000
  5 O      8.6334     8.0000    -0.6334     1.8374     1.8374     0.0000
  6 H      0.8400     1.0000     0.1600     0.9367     0.9367     0.0000
  7 H      0.8625     1.0000     0.1375     0.9414     0.9414     0.0000
  8 H      0.6254     1.0000     0.3746     0.8696     0.8696    -0.0000
  9 O      8.5818     8.0000    -0.5818     1.9015     1.9015     0.0000

  Mayer bond orders larger than 0.100000
B(  0-C ,  1-C ) :   0.9467 B(  0-C ,  4-N ) :   0.9476 B(  0-C ,  6-H ) :   0.9528 
B(  0-C ,  7-H ) :   0.9503 B(  1-C ,  5-O ) :   0.9851 B(  1-C ,  9-O ) :   1.8218 
B(  2-H ,  4-N ) :   0.9109 B(  3-H ,  4-N ) :   0.8832 B(  5-O ,  8-H ) :   0.8385 


-------
TIMINGS
-------

Total SCF time: 0 days 0 hours 0 min 2 sec 

Total time                  ....       2.909 sec
Sum of individual times     ....       2.747 sec  ( 94.4%)

SCF preparation             ....       0.013 sec  (  0.5%)
Fock matrix formation       ....       2.718 sec  ( 93.4%)
  Startup                   ....       0.000 sec  (  0.0% of F)
  Coulomb+Exchange Fock     ....       2.871 sec  (105.6% of F)
Diagonalization             ....       0.000 sec  (  0.0%)
Density matrix formation    ....       0.002 sec  (  0.1%)
Total Energy calculation    ....       0.000 sec  (  0.0%)
Population analysis         ....       0.001 sec  (  0.0%)
Orbital Transformation      ....       0.001 sec  (  0.1%)
Orbital Orthonormalization  ....       0.000 sec  (  0.0%)
DIIS solution               ....       0.007 sec  (  0.2%)
SOSCF solution              ....       0.004 sec  (  0.1%)
Finished LeanSCF after   2.9 sec

Maximum memory used throughout the entire LEANSCF-calculation: 9.3 MB

------------------------------------------------------------------------------
                                ORCA  MP2 
------------------------------------------------------------------------------

Freezing NCore=10 chemical core electrons
MP2 will be done in the AO integral direct mode
The Q1-step will be done using symmetric double matrices
Dimension of the basis                    ...   95
Memory devoted for MP2                    ... 4096 MB   
Memory needed for all in one shot         ...   51 MB
Number of MOs that can be treated together... 1238      
MP2 density construction                  ... relaxed
The MP2 gradient is requested => amplitudes will be stored on disk
Total number of MOs              ...   15
Number of MOs treated per batch  ...   15 
Number of batches necessary      ...    1 
OPERATORS   0/  0 PASS   0
-----------------------------------------------
 MP2 CORRELATION ENERGY   :     -0.789262165 Eh
-----------------------------------------------


---------------------
MP2 DENSITY FORMATION
---------------------

Completing the external part of the density      ... done
Storing the unrelaxed density                    ... done

Calculating G(D)                                 ... done
Completing the Lagrangian                        ... done
Solving the Z-vector equations                   ... 
-------------------
SHARK CP-SCF DRIVER
-------------------

Dimension of the orbital basis          ...     95
Dimension of the CPSCF-problem          ...   1500
Number of operators                     ...      1
Max. number of iterations               ...    128
Convergence Tolerance                   ... 1.0e-04
Number of perturbations                 ...      1
Perturbation type                       ... REAL

----------------------------
POPLE LINEAR EQUATION SOLVER
----------------------------

  ITERATION   0:   ||err||_max =   1.0970e-01 (   0.3 sec)
  ITERATION   1:   ||err||_max =   2.7970e-02 (   0.3 sec)
  ITERATION   2:   ||err||_max =   1.2019e-02 (   0.3 sec)
  ITERATION   3:   ||err||_max =   2.8934e-03 (   0.3 sec)
  ITERATION   4:   ||err||_max =   9.5385e-04 (   0.3 sec)
  ITERATION   5:   ||err||_max =   2.4276e-04 (   0.3 sec)
  ITERATION   6:   ||err||_max =   6.7526e-05 (   0.3 sec)
                                                 ... done
Finalizing the relaxed density                   ... done
Transforming P to the AO basis                   ... done
Storing the relaxed density                      ... done

------------------------------------
ENERGY WEIGHTED DENSITY FINALIZATION
------------------------------------

Gathering the parts of the W-matrix              ...                                                      done
Forming the Z-density                            ... done
Transforming Z to the AO basis                   ... done
Calculating G(Z)                                 ... done
Finalizing the W-matrix                          ...                                                      done
Transforming W to the AO basis and storing       ... done

                *********************************************
                * UNRELAXED MP2 DENSITY POPULATION ANALYSIS *
                *********************************************

------------------------------------------------------------------------------
                           ORCA POPULATION ANALYSIS
------------------------------------------------------------------------------
Input electron density              ... 3.pmp2ur
BaseName (.gbw .S,...)              ... 3

                    ********************************
                    * MULLIKEN POPULATION ANALYSIS *
                    ********************************

-----------------------
MULLIKEN ATOMIC CHARGES
-----------------------
   0 C :   -0.095796
   1 C :    0.748553
   2 H :    0.271155
   3 H :    0.299003
   4 N :   -0.713652
   5 O :   -0.620247
   6 H :    0.160589
   7 H :    0.138168
   8 H :    0.371471
   9 O :   -0.559245
Sum of atomic charges:    0.0000000

--------------------------------
MULLIKEN REDUCED ORBITAL CHARGES
--------------------------------
  0 C s       :     3.198619  s :     3.198619
      pz      :     0.953274  p :     2.818853
      px      :     1.074858
      py      :     0.790721
      dz2     :     0.008459  d :     0.078324
      dxz     :     0.016597
      dyz     :     0.019639
      dx2y2   :     0.017339
      dxy     :     0.016290
  1 C s       :     2.946291  s :     2.946291
      pz      :     0.803722  p :     2.146727
      px      :     0.640933
      py      :     0.702072
      dz2     :     0.037883  d :     0.158429
      dxz     :     0.031336
      dyz     :     0.050761
      dx2y2   :     0.018884
      dxy     :     0.019564
  2 H s       :     0.700472  s :     0.700472
      pz      :     0.007974  p :     0.028372
      px      :     0.011864
      py      :     0.008535
  3 H s       :     0.672197  s :     0.672197
      pz      :     0.016046  p :     0.028799
      px      :     0.007493
      py      :     0.005260
  4 N s       :     3.608821  s :     3.608821
      pz      :     1.195455  p :     4.050016
      px      :     1.599013
      py      :     1.255548
      dz2     :     0.010769  d :     0.054815
      dxz     :     0.013116
      dyz     :     0.009254
      dx2y2   :     0.013400
      dxy     :     0.008275
  5 O s       :     3.831064  s :     3.831064
      pz      :     1.623131  p :     4.740830
      px      :     1.735471
      py      :     1.382227
      dz2     :     0.009557  d :     0.048353
      dxz     :     0.007879
      dyz     :     0.014380
      dx2y2   :     0.007993
      dxy     :     0.008544
  6 H s       :     0.824450  s :     0.824450
      pz      :     0.005613  p :     0.014961
      px      :     0.007239
      py      :     0.002108
  7 H s       :     0.846517  s :     0.846517
      pz      :     0.004702  p :     0.015315
      px      :     0.006922
      py      :     0.003690
  8 H s       :     0.585808  s :     0.585808
      pz      :     0.018564  p :     0.042721
      px      :     0.009564
      py      :     0.014593
  9 O s       :     3.869241  s :     3.869241
      pz      :     1.383649  p :     4.635536
      px      :     1.514432
      py      :     1.737456
      dz2     :     0.015174  d :     0.054468
      dxz     :     0.015894
      dyz     :     0.012918
      dx2y2   :     0.005515
      dxy     :     0.004967


                     *******************************
                     * LOEWDIN POPULATION ANALYSIS *
                     *******************************

----------------------
LOEWDIN ATOMIC CHARGES
----------------------
   0 C :   -0.062985
   1 C :    0.219073
   2 H :    0.129555
   3 H :    0.139116
   4 N :   -0.297072
   5 O :   -0.198004
   6 H :    0.082558
   7 H :    0.073896
   8 H :    0.200958
   9 O :   -0.287094

-------------------------------
LOEWDIN REDUCED ORBITAL CHARGES
-------------------------------
  0 C s       :     2.884198  s :     2.884198
      pz      :     1.027280  p :     3.039201
      px      :     1.074857
      py      :     0.937063
      dz2     :     0.013861  d :     0.139587
      dxz     :     0.028758
      dyz     :     0.037592
      dx2y2   :     0.031388
      dxy     :     0.027989
  1 C s       :     2.839894  s :     2.839894
      pz      :     1.032436  p :     2.610799
      px      :     0.721705
      py      :     0.856658
      dz2     :     0.081318  d :     0.330235
      dxz     :     0.061799
      dyz     :     0.109293
      dx2y2   :     0.036736
      dxy     :     0.041089
  2 H s       :     0.784719  s :     0.784719
      pz      :     0.023096  p :     0.085726
      px      :     0.038205
      py      :     0.024425
  3 H s       :     0.772581  s :     0.772581
      pz      :     0.049110  p :     0.088303
      px      :     0.023819
      py      :     0.015374
  4 N s       :     3.182346  s :     3.182346
      pz      :     1.178012  p :     4.032589
      px      :     1.568145
      py      :     1.286433
      dz2     :     0.017732  d :     0.082137
      dxz     :     0.016923
      dyz     :     0.015673
      dx2y2   :     0.018731
      dxy     :     0.013077
  5 O s       :     3.455481  s :     3.455481
      pz      :     1.596643  p :     4.670468
      px      :     1.697787
      py      :     1.376037
      dz2     :     0.012483  d :     0.072055
      dxz     :     0.009275
      dyz     :     0.023110
      dx2y2   :     0.012496
      dxy     :     0.014691
  6 H s       :     0.873190  s :     0.873190
      pz      :     0.016769  p :     0.044252
      px      :     0.021553
      py      :     0.005930
  7 H s       :     0.882207  s :     0.882207
      pz      :     0.013109  p :     0.043897
      px      :     0.020153
      py      :     0.010635
  8 H s       :     0.676335  s :     0.676335
      pz      :     0.054605  p :     0.122707
      px      :     0.027862
      py      :     0.040240
  9 O s       :     3.543701  s :     3.543701
      pz      :     1.472784  p :     4.661853
      px      :     1.488855
      py      :     1.700214
      dz2     :     0.031242  d :     0.081541
      dxz     :     0.020251
      dyz     :     0.018445
      dx2y2   :     0.005875
      dxy     :     0.005728


                      *****************************
                      * MAYER POPULATION ANALYSIS *
                      *****************************

  NA   - Mulliken gross atomic population
  ZA   - Total nuclear charge
  QA   - Mulliken gross atomic charge
  VA   - Mayer's total valence
  BVA  - Mayer's bonded valence
  FA   - Mayer's free valence

  ATOM       NA         ZA         QA         VA         BVA        FA
  0 C      6.0958     6.0000    -0.0958     3.8493     3.5936     0.2557
  1 C      5.2514     6.0000     0.7486     3.7952     3.5118     0.2834
  2 H      0.7288     1.0000     0.2712     0.9119     0.8674     0.0445
  3 H      0.7010     1.0000     0.2990     0.9084     0.8641     0.0443
  4 N      7.7137     7.0000    -0.7137     2.9125     2.5927     0.3199
  5 O      8.6202     8.0000    -0.6202     2.0942     1.7406     0.3536
  6 H      0.8394     1.0000     0.1606     0.9449     0.8989     0.0460
  7 H      0.8618     1.0000     0.1382     0.9502     0.9021     0.0481
  8 H      0.6285     1.0000     0.3715     0.8763     0.8328     0.0436
  9 O      8.5592     8.0000    -0.5592     2.1662     1.7704     0.3959

  Mayer bond orders larger than 0.100000
B(  0-C ,  1-C ) :   0.8982 B(  0-C ,  4-N ) :   0.8950 B(  0-C ,  6-H ) :   0.9170 
B(  0-C ,  7-H ) :   0.9137 B(  1-C ,  5-O ) :   0.9317 B(  1-C ,  9-O ) :   1.7038 
B(  2-H ,  4-N ) :   0.8747 B(  3-H ,  4-N ) :   0.8480 B(  5-O ,  8-H ) :   0.8040 



                *******************************************
                * RELAXED MP2 DENSITY POPULATION ANALYSIS *
                *******************************************

------------------------------------------------------------------------------
                           ORCA POPULATION ANALYSIS
------------------------------------------------------------------------------
Input electron density              ... 3.pmp2re
BaseName (.gbw .S,...)              ... 3

                    ********************************
                    * MULLIKEN POPULATION ANALYSIS *
                    ********************************

-----------------------
MULLIKEN ATOMIC CHARGES
-----------------------
   0 C :   -0.120423
   1 C :    0.569807
   2 H :    0.257091
   3 H :    0.274156
   4 N :   -0.652229
   5 O :   -0.523278
   6 H :    0.148984
   7 H :    0.129142
   8 H :    0.346613
   9 O :   -0.429863
Sum of atomic charges:    0.0000000

--------------------------------
MULLIKEN REDUCED ORBITAL CHARGES
--------------------------------
  0 C s       :     3.181184  s :     3.181184
      pz      :     0.976953  p :     2.867091
      px      :     1.070860
      py      :     0.819278
      dz2     :     0.008130  d :     0.072147
      dxz     :     0.015504
      dyz     :     0.017065
      dx2y2   :     0.015850
      dxy     :     0.015598
  1 C s       :     2.964236  s :     2.964236
      pz      :     0.817155  p :     2.317062
      px      :     0.740953
      py      :     0.758954
      dz2     :     0.035846  d :     0.148895
      dxz     :     0.028581
      dyz     :     0.047545
      dx2y2   :     0.018148
      dxy     :     0.018776
  2 H s       :     0.715672  s :     0.715672
      pz      :     0.007715  p :     0.027236
      px      :     0.011187
      py      :     0.008334
  3 H s       :     0.698264  s :     0.698264
      pz      :     0.014216  p :     0.027580
      px      :     0.007750
      py      :     0.005614
  4 N s       :     3.591095  s :     3.591095
      pz      :     1.175491  p :     4.009131
      px      :     1.584007
      py      :     1.249633
      dz2     :     0.010055  d :     0.052003
      dxz     :     0.012489
      dyz     :     0.008651
      dx2y2   :     0.012313
      dxy     :     0.008494
  5 O s       :     3.814243  s :     3.814243
      pz      :     1.598145  p :     4.662190
      px      :     1.700450
      py      :     1.363595
      dz2     :     0.009216  d :     0.046845
      dxz     :     0.007852
      dyz     :     0.013699
      dx2y2   :     0.008034
      dxy     :     0.008044
  6 H s       :     0.836945  s :     0.836945
      pz      :     0.005232  p :     0.014072
      px      :     0.006554
      py      :     0.002286
  7 H s       :     0.856325  s :     0.856325
      pz      :     0.004560  p :     0.014533
      px      :     0.006267
      py      :     0.003706
  8 H s       :     0.612498  s :     0.612498
      pz      :     0.017276  p :     0.040890
      px      :     0.009813
      py      :     0.013800
  9 O s       :     3.846240  s :     3.846240
      pz      :     1.386649  p :     4.531871
      px      :     1.459309
      py      :     1.685912
      dz2     :     0.014094  d :     0.051752
      dxz     :     0.014517
      dyz     :     0.012676
      dx2y2   :     0.005420
      dxy     :     0.005044


                     *******************************
                     * LOEWDIN POPULATION ANALYSIS *
                     *******************************

----------------------
LOEWDIN ATOMIC CHARGES
----------------------
   0 C :   -0.086163
   1 C :    0.141415
   2 H :    0.128499
   3 H :    0.132751
   4 N :   -0.287245
   5 O :   -0.163089
   6 H :    0.082629
   7 H :    0.074344
   8 H :    0.191556
   9 O :   -0.214696

-------------------------------
LOEWDIN REDUCED ORBITAL CHARGES
-------------------------------
  0 C s       :     2.887052  s :     2.887052
      pz      :     1.039956  p :     3.065835
      px      :     1.079594
      py      :     0.946286
      dz2     :     0.013498  d :     0.133276
      dxz     :     0.028143
      dyz     :     0.034404
      dx2y2   :     0.029866
      dxy     :     0.027366
  1 C s       :     2.842361  s :     2.842361
      pz      :     1.023205  p :     2.693025
      px      :     0.791963
      py      :     0.877857
      dz2     :     0.081324  d :     0.323199
      dxz     :     0.058383
      dyz     :     0.107070
      dx2y2   :     0.035854
      dxy     :     0.040568
  2 H s       :     0.787032  s :     0.787032
      pz      :     0.022677  p :     0.084468
      px      :     0.037679
      py      :     0.024112
  3 H s       :     0.780280  s :     0.780280
      pz      :     0.047323  p :     0.086969
      px      :     0.023948
      py      :     0.015698
  4 N s       :     3.182741  s :     3.182741
      pz      :     1.175863  p :     4.024299
      px      :     1.563270
      py      :     1.285166
      dz2     :     0.017374  d :     0.080205
      dxz     :     0.016536
      dyz     :     0.015196
      dx2y2   :     0.017939
      dxy     :     0.013159
  5 O s       :     3.460828  s :     3.460828
      pz      :     1.586410  p :     4.629466
      px      :     1.671715
      py      :     1.371341
      dz2     :     0.012270  d :     0.072795
      dxz     :     0.009427
      dyz     :     0.023110
      dx2y2   :     0.013169
      dxy     :     0.014820
  6 H s       :     0.873406  s :     0.873406
      pz      :     0.016592  p :     0.043964
      px      :     0.021061
      py      :     0.006311
  7 H s       :     0.881857  s :     0.881857
      pz      :     0.013132  p :     0.043799
      px      :     0.019674
      py      :     0.010992
  8 H s       :     0.687912  s :     0.687912
      pz      :     0.053518  p :     0.120532
      px      :     0.027701
      py      :     0.039312
  9 O s       :     3.545860  s :     3.545860
      pz      :     1.476606  p :     4.587600
      px      :     1.446291
      py      :     1.664703
      dz2     :     0.030313  d :     0.081237
      dxz     :     0.020276
      dyz     :     0.018876
      dx2y2   :     0.005940
      dxy     :     0.005831


                      *****************************
                      * MAYER POPULATION ANALYSIS *
                      *****************************

  NA   - Mulliken gross atomic population
  ZA   - Total nuclear charge
  QA   - Mulliken gross atomic charge
  VA   - Mayer's total valence
  BVA  - Mayer's bonded valence
  FA   - Mayer's free valence

  ATOM       NA         ZA         QA         VA         BVA        FA
  0 C      6.1204     6.0000    -0.1204     3.8912     3.6382     0.2530
  1 C      5.4302     6.0000     0.5698     3.9990     3.7322     0.2667
  2 H      0.7429     1.0000     0.2571     0.9187     0.8741     0.0447
  3 H      0.7258     1.0000     0.2742     0.9263     0.8824     0.0439
  4 N      7.6522     7.0000    -0.6522     2.9717     2.6553     0.3164
  5 O      8.5233     8.0000    -0.5233     2.2065     1.8610     0.3455
  6 H      0.8510     1.0000     0.1490     0.9485     0.9026     0.0459
  7 H      0.8709     1.0000     0.1291     0.9518     0.9038     0.0480
  8 H      0.6534     1.0000     0.3466     0.8969     0.8543     0.0426
  9 O      8.4299     8.0000    -0.4299     2.3294     1.9485     0.3809

  Mayer bond orders larger than 0.100000
B(  0-C ,  1-C ) :   0.9012 B(  0-C ,  4-N ) :   0.9332 B(  0-C ,  6-H ) :   0.9091 
B(  0-C ,  7-H ) :   0.9051 B(  1-C ,  5-O ) :   1.0100 B(  1-C ,  9-O ) :   1.8231 
B(  2-H ,  4-N ) :   0.8773 B(  3-H ,  4-N ) :   0.8528 B(  5-O ,  8-H ) :   0.8110 



----------------------------------
MP2 DERIVATIVE INTEGRAL GENERATION
----------------------------------

Input SCF Electron Density              ... 3.scfp
Input Correlated Electron Density       ... 3.pmp2re
Input Energy Weighted Density           ... 3.wmp2.tmp
Input Wavefunction Amplitudes           ... 3.mp2tsaa.tmp

Nuclear repulsion gradient              ... done (  0.0 sec)
HCore & Overlap gradient  (SHARK)       ... done (  0.0 sec)
Analytic two-electron gradient terms    ... 
  Batch handling in the gradient evaluation:
  General contraction                   ... not used
  Memory available                      ... 4091.4 MB
  Memory per occupied orbital in Q2     ...    1.0 MB
  Memory per occupied orbital in Q3     ...    0.0 MB
  Total memory requirement per |i>      ...    1.1 MB
  Number of orbitals treated per batch  ...     15
  Number of batches to be done          ...      1
done (  1.6 sec)

---------------------------------------
MP2 TOTAL ENERGY:     -283.630851457 Eh
---------------------------------------

The final MP2 gradient
  0:   0.00031617   0.00089734   0.00709308
  1:  -0.00235067  -0.00357535   0.01695364
  2:  -0.00075123   0.00192998  -0.00109918
  3:   0.00123358   0.00048304   0.00276388
  4:  -0.00034380  -0.00377632  -0.00603975
  5:  -0.01027531   0.01508891   0.01697062
  6:   0.00267292   0.00337882  -0.00073230
  7:  -0.00328532   0.00009906  -0.00045723
  8:   0.00375744  -0.00549820  -0.00284302
  9:   0.00902621  -0.00902729  -0.03260974

-----------------------------------
NORM OF THE MP2 GRADIENT:  0.048506
-----------------------------------

Maximum memory used throughout the entire MP2-calculation: 63.0 MB

-------------------------   --------------------
FINAL SINGLE POINT ENERGY      -283.630851456585
-------------------------   --------------------

------------------------------------------------------------------------------
                         ORCA GEOMETRY RELAXATION STEP
------------------------------------------------------------------------------

Reading the OPT-File                    .... done
Getting information on internals        .... done
Copying old internal coords+grads       .... done
Making the new internal coordinates     .... (2022 redundants) done
Validating the new internal coordinates .... (2022 redundants) done
Calculating the B-matrix                .... done
Calculating the G,G- and P matrices     .... done
Transforming gradient to internals      .... done
Projecting the internal gradient        .... done
Number of atoms                         ....  10
Number of internal coordinates          ....  35
Current Energy                          ....  -283.630851457 Eh
Current gradient norm                   ....     0.048506288 Eh/bohr
Maximum allowed component of the step   ....  0.300
Current trust radius                    ....  0.300
Evaluating the initial hessian          ....  (Almloef) done
Projecting the Hessian                  .... done
Forming the augmented Hessian           .... done
Diagonalizing the augmented Hessian     .... done
Last element of RFO vector              ....  0.994863724
Lowest eigenvalues of augmented Hessian:
 -0.002490623  0.011837466  0.016700584  0.018274435  0.032267246
Length of the computed step             ....  0.101745970
The final length of the internal step   ....  0.101745970
Converting the step to Cartesian space:
 Initial RMS(Int)=    0.0171982079
Transforming coordinates:
 Iter   0:  RMS(Cart)=    0.0226537838 RMS(Int)=    0.0170982297
done
Storing new coordinates                 .... done

                                .--------------------.
          ----------------------|Geometry convergence|-------------------------
          Item                value                   Tolerance       Converged
          ---------------------------------------------------------------------
          RMS gradient        0.0071533727            0.0001000000      NO
          MAX gradient        0.0349808430            0.0003000000      NO
          RMS step            0.0171982079            0.0020000000      NO
          MAX step            0.0366635317            0.0040000000      NO
          -------------------------------------------------------------------------
          ........................................................
          Max(Bonds)      0.0165      Max(Angles)    1.95
          Max(Dihed)        2.10      Max(Improp)    0.00
          ---------------------------------------------------------------------

The optimization has not yet converged - more geometry cycles are needed


    ---------------------------------------------------------------------------
                         Redundant Internal Coordinates
                            (Angstroem and degrees)

        Definition                    Value    dE/dq     Step     New-Value
    ----------------------------------------------------------------------------
     1. B(C   1,C   0)                1.5119 -0.000017 -0.0006    1.5113   
     2. B(N   4,H   2)                1.0124  0.001992 -0.0024    1.0099   
     3. B(N   4,C   0)                1.4497 -0.003379  0.0035    1.4532   
     4. B(N   4,H   3)                1.0161  0.002526 -0.0029    1.0131   
     5. B(O   5,C   1)                1.3363 -0.015362  0.0119    1.3482   
     6. B(H   6,C   0)                1.0952  0.002565 -0.0038    1.0914   
     7. B(H   7,C   0)                1.1023  0.002714 -0.0041    1.0982   
     8. B(H   8,O   5)                0.9708  0.001823 -0.0019    0.9689   
     9. B(O   9,H   3)                2.2731  0.000846 -0.0138    2.2593   
    10. B(O   9,C   1)                1.2013 -0.034981  0.0165    1.2177   
    11. A(N   4,C   0,H   7)          114.03 -0.001804    0.37    114.40   
    12. A(C   1,C   0,H   7)          105.80 -0.000126   -0.04    105.77   
    13. A(C   1,C   0,N   4)          110.84  0.003188   -0.67    110.17   
    14. A(H   6,C   0,H   7)          107.35  0.001604   -0.42    106.93   
    15. A(C   1,C   0,H   6)          108.66  0.001246   -0.27    108.39   
    16. A(N   4,C   0,H   6)          109.93 -0.003861    0.95    110.88   
    17. A(C   0,C   1,O   9)          124.90 -0.000333   -0.01    124.89   
    18. A(C   0,C   1,O   5)          112.03  0.006271   -0.78    111.25   
    19. A(O   5,C   1,O   9)          123.05 -0.005940    0.78    123.83   
    20. A(C   0,N   4,H   3)          109.25 -0.000150   -0.31    108.93   
    21. A(C   0,N   4,H   2)          111.58  0.002163   -0.54    111.04   
    22. A(H   2,N   4,H   3)          108.50  0.000935   -0.58    107.92   
    23. A(C   1,O   5,H   8)          110.41  0.012816   -1.95    108.46   
    24. D(O   5,C   1,C   0,N   4)   -161.80  0.000902   -1.48   -163.28   
    25. D(O   9,C   1,C   0,N   4)     19.70  0.001081   -1.15     18.55   
    26. D(O   9,C   1,C   0,H   6)    140.60 -0.000910   -0.56    140.04   
    27. D(O   5,C   1,C   0,H   6)    -40.91 -0.001090   -0.89    -41.79   
    28. D(O   5,C   1,C   0,H   7)     74.10  0.001285   -1.51     72.59   
    29. D(H   2,N   4,C   0,H   6)     96.09 -0.001288   -0.69     95.40   
    30. D(H   2,N   4,C   0,C   1)   -143.76 -0.000206   -0.83   -144.60   
    31. D(H   3,N   4,C   0,H   6)   -143.94  0.001144   -1.96   -145.90   
    32. D(H   3,N   4,C   0,C   1)    -23.80  0.002226   -2.10    -25.90   
    33. D(H   2,N   4,C   0,H   7)    -24.50  0.000703   -1.11    -25.61   
    34. D(H   8,O   5,C   1,O   9)     -0.31 -0.000512    0.56      0.26   
    35. D(H   8,O   5,C   1,C   0)   -178.83 -0.000430    0.89   -177.93   
    ----------------------------------------------------------------------------

Geometry step timings:
Preparation and reading OPT file:      0.000 s ( 2.494 %)
Internal coordinates            :      0.000 s ( 2.041 %)
B/P matrices and projection     :      0.000 s (31.293 %)
Hessian update/contruction      :      0.000 s (12.472 %)
Making the step                 :      0.000 s (23.583 %)
Converting the step to Cartesian:      0.000 s ( 4.762 %)
Storing new data                :      0.000 s ( 2.494 %)
Checking convergence            :      0.000 s ( 2.721 %)
Final printing                  :      0.000 s (18.141 %)
Total time                      :      0.000 s

Time for energy+gradient        :      8.268 s
Time for complete geometry iter :      8.280 s

         *************************************************************
         *                GEOMETRY OPTIMIZATION CYCLE   2            *
         *************************************************************
---------------------------------
CARTESIAN COORDINATES (ANGSTROEM)
---------------------------------
  C     -5.035997   -1.349787   -0.103562
  C     -4.711843   -2.275640    1.046048
  H     -6.021086    0.442535   -0.153037
  H     -5.627953   -0.072197    1.349099
  N     -5.301248   -0.009782    0.392110
  O     -4.117261   -3.404922    0.611519
  H     -4.190866   -1.348953   -0.794146
  H     -5.879862   -1.813564   -0.631527
  H     -3.957866   -3.980686    1.374254
  O     -4.980306   -2.056689    2.213470

----------------------------
CARTESIAN COORDINATES (A.U.)
----------------------------
  NO LB      ZA    FRAG     MASS         X           Y           Z
   0 C     6.0000    0    12.011   -9.516655   -2.550728   -0.195703
   1 C     6.0000    0    12.011   -8.904092   -4.300336    1.976744
   2 H     1.0000    0     1.008  -11.378204    0.836270   -0.289198
   3 H     1.0000    0     1.008  -10.635289   -0.136432    2.549428
   4 N     7.0000    0    14.007  -10.017907   -0.018486    0.740981
   5 O     8.0000    0    15.999   -7.780496   -6.434371    1.155604
   6 H     1.0000    0     1.008   -7.919590   -2.549151   -1.500718
   7 H     1.0000    0     1.008  -11.111329   -3.427139   -1.193413
   8 H     1.0000    0     1.008   -7.479282   -7.522406    2.596963
   9 O     8.0000    0    15.999   -9.411414   -3.886578    4.182852

--------------------------------
INTERNAL COORDINATES (ANGSTROEM)
--------------------------------
 C      0   0   0     0.000000000000     0.00000000     0.00000000
 C      1   0   0     1.511251574180     0.00000000     0.00000000
 H      1   2   0     2.045792004854   131.17908654     0.00000000
 H      3   1   2     1.635822962323    65.56842407    11.90043268
 N      3   1   2     1.009922463184    41.52665817    46.26399081
 O      2   1   3     1.348191665474   111.25893364   175.94523138
 H      1   2   3     1.091399674265   108.40353455   142.26061833
 H      1   2   3     1.098155206817   105.77252009   256.64362053
 H      6   2   1     0.968852163044   108.45749318   182.06637485
 O      2   1   3     1.217738351811   124.87775016   357.77958805

---------------------------
INTERNAL COORDINATES (A.U.)
---------------------------
 C      0   0   0     0.000000000000     0.00000000     0.00000000
 C      1   0   0     2.855851594658     0.00000000     0.00000000
 H      1   2   0     3.865986616139   131.17908654     0.00000000
 H      3   1   2     3.091257402371    65.56842407    11.90043268
 N      3   1   2     1.908476871912    41.52665817    46.26399081
 O      2   1   3     2.547713023780   111.25893364   175.94523138
 H      1   2   3     2.062446487012   108.40353455   142.26061833
 H      1   2   3     2.075212593425   105.77252009   256.64362053
 H      6   2   1     1.830865252411   108.45749318   182.06637485
 O      2   1   3     2.301191987695   124.87775016   357.77958805

------------------------------------------------------------------------------
                   ___                                                        
                  /   \      - P O W E R E D   B Y -                         
                 /     \                                                     
                 |  |  |   _    _      __       _____    __    __             
                 |  |  |  | |  | |    /  \     |  _  \  |  |  /  |          
                  \  \/   | |  | |   /    \    | | | |  |  | /  /          
                 / \  \   | |__| |  /  /\  \   | |_| |  |  |/  /          
                |  |  |   |  __  | /  /__\  \  |    /   |      \           
                |  |  |   | |  | | |   __   |  |    \   |  |\   \          
                \     /   | |  | | |  |  |  |  | |\  \  |  | \   \       
                 \___/    |_|  |_| |__|  |__|  |_| \__\ |__|  \__/        
                                                                              
                      - O R C A' S   B I G   F R I E N D -                    
                                      &                                       
                       - I N T E G R A L  F E E D E R -                       
                                                                              
 v1 FN, 2020, v2 2021, v3 2022-2024                                           
------------------------------------------------------------------------------


----------------------
SHARK INTEGRAL PACKAGE
----------------------

Number of atoms                             ...     10
Number of basis functions                   ...     95
Number of shells                            ...     45
Maximum angular momentum                    ...      2
Integral batch strategy                     ... SHARK/LIBINT Hybrid
RI-J (if used) integral strategy            ... SPLIT-RIJ (Revised 2003 algorithm where possible)
Printlevel                                  ...      1
Contraction scheme used                     ... SEGMENTED contraction
Prescreening option                         ... SCHWARTZ
   Thresh                                   ... 2.500e-11
   Tcut                                     ... 2.500e-12
   Tpresel                                  ... 2.500e-12 
Coulomb Range Separation                    ... NOT USED
Exchange Range Separation                   ... NOT USED
Multipole approximations                    ... NOT USED
Finite Nucleus Model                        ... NOT USED
CABS basis                                  ... NOT available
Auxiliary Coulomb fitting basis             ... NOT available
Auxiliary J/K fitting basis                 ... NOT available
Auxiliary Correlation fitting basis         ... NOT available
Auxiliary 'external' fitting basis          ... NOT available

[...]
  4 N      7.6938     7.0000    -0.6938     2.9250     2.6054     0.3197
  5 O      8.6246     8.0000    -0.6246     2.0961     1.7373     0.3588
  6 H      0.8368     1.0000     0.1632     0.9459     0.9005     0.0454
  7 H      0.8640     1.0000     0.1360     0.9482     0.8998     0.0484
  8 H      0.6302     1.0000     0.3698     0.8786     0.8341     0.0445
  9 O      8.5672     8.0000    -0.5672     2.1602     1.7561     0.4041

  Mayer bond orders larger than 0.100000
B(  0-C ,  1-C ) :   0.8958 B(  0-C ,  4-N ) :   0.9056 B(  0-C ,  6-H ) :   0.9179 
B(  0-C ,  7-H ) :   0.9108 B(  1-C ,  5-O ) :   0.9233 B(  1-C ,  9-O ) :   1.6903 
B(  2-H ,  4-N ) :   0.8735 B(  3-H ,  4-N ) :   0.8528 B(  5-O ,  8-H ) :   0.8054 



                *******************************************
                * RELAXED MP2 DENSITY POPULATION ANALYSIS *
                *******************************************

------------------------------------------------------------------------------
                           ORCA POPULATION ANALYSIS
------------------------------------------------------------------------------
Input electron density              ... 3.pmp2re
BaseName (.gbw .S,...)              ... 3

                    ********************************
                    * MULLIKEN POPULATION ANALYSIS *
                    ********************************

-----------------------
MULLIKEN ATOMIC CHARGES
-----------------------
   0 C :   -0.133587
   1 C :    0.583879
   2 H :    0.255431
   3 H :    0.269868
   4 N :   -0.634712
   5 O :   -0.526452
   6 H :    0.151051
   7 H :    0.126173
   8 H :    0.343920
   9 O :   -0.435572
Sum of atomic charges:   -0.0000000

--------------------------------
MULLIKEN REDUCED ORBITAL CHARGES
--------------------------------
  0 C s       :     3.182176  s :     3.182176
      pz      :     0.984645  p :     2.879012
      px      :     1.069821
      py      :     0.824546
      dz2     :     0.008217  d :     0.072398
      dxz     :     0.015586
      dyz     :     0.017566
      dx2y2   :     0.014673
      dxy     :     0.016357
  1 C s       :     2.969631  s :     2.969631
      pz      :     0.803559  p :     2.303527
      px      :     0.743365
      py      :     0.756604
      dz2     :     0.033903  d :     0.142962
      dxz     :     0.028704
      dyz     :     0.046452
      dx2y2   :     0.016726
      dxy     :     0.017177
  2 H s       :     0.717433  s :     0.717433
      pz      :     0.008794  p :     0.027136
      px      :     0.009299
      py      :     0.009042
  3 H s       :     0.702765  s :     0.702765
      pz      :     0.012800  p :     0.027367
      px      :     0.009315
      py      :     0.005252
  4 N s       :     3.604105  s :     3.604105
      pz      :     1.181463  p :     3.977409
      px      :     1.616981
      py      :     1.178965
      dz2     :     0.006535  d :     0.053198
      dxz     :     0.015761
      dyz     :     0.010741
      dx2y2   :     0.011245
      dxy     :     0.008916
  5 O s       :     3.827283  s :     3.827283
      pz      :     1.575859  p :     4.651472
      px      :     1.698947
      py      :     1.376666
      dz2     :     0.009916  d :     0.047697
      dxz     :     0.008092
      dyz     :     0.013819
      dx2y2   :     0.007857
      dxy     :     0.008013
  6 H s       :     0.834743  s :     0.834743
      pz      :     0.005619  p :     0.014207
      px      :     0.006291
      py      :     0.002297
  7 H s       :     0.859328  s :     0.859328
      pz      :     0.004309  p :     0.014499
      px      :     0.006520
      py      :     0.003670
  8 H s       :     0.615284  s :     0.615284
      pz      :     0.018118  p :     0.040797
      px      :     0.009684
      py      :     0.012995
  9 O s       :     3.859367  s :     3.859367
      pz      :     1.377842  p :     4.525226
      px      :     1.465625
      py      :     1.681760
      dz2     :     0.014033  d :     0.050979
      dxz     :     0.014239
      dyz     :     0.012555
      dx2y2   :     0.005242
      dxy     :     0.004911


                     *******************************
                     * LOEWDIN POPULATION ANALYSIS *
                     *******************************

----------------------
LOEWDIN ATOMIC CHARGES
----------------------
   0 C :   -0.087156
   1 C :    0.160933
   2 H :    0.127371
   3 H :    0.132484
   4 N :   -0.279627
   5 O :   -0.175354
   6 H :    0.084930
   7 H :    0.069519
   8 H :    0.189430
   9 O :   -0.222530

-------------------------------
LOEWDIN REDUCED ORBITAL CHARGES
-------------------------------
  0 C s       :     2.886406  s :     2.886406
      pz      :     1.041255  p :     3.067101
      px      :     1.080529
      py      :     0.945317
      dz2     :     0.013484  d :     0.133649
      dxz     :     0.027900
      dyz     :     0.035699
      dx2y2   :     0.027350
      dxy     :     0.029216
  1 C s       :     2.850428  s :     2.850428
      pz      :     1.015698  p :     2.681479
      px      :     0.793231
      py      :     0.872551
      dz2     :     0.076628  d :     0.307159
      dxz     :     0.058406
      dyz     :     0.103349
      dx2y2   :     0.032255
      dxy     :     0.036520
  2 H s       :     0.788510  s :     0.788510
      pz      :     0.027376  p :     0.084119
      px      :     0.030322
      py      :     0.026421
  3 H s       :     0.781649  s :     0.781649
      pz      :     0.040330  p :     0.085867
      px      :     0.031139
      py      :     0.014399
  4 N s       :     3.193706  s :     3.193706
      pz      :     1.188001  p :     4.004425
      px      :     1.594331
      py      :     1.222093
      dz2     :     0.011089  d :     0.081496
      dxz     :     0.021496
      dyz     :     0.019338
      dx2y2   :     0.016732
      dxy     :     0.012841
  5 O s       :     3.480307  s :     3.480307
      pz      :     1.567836  p :     4.623234
      px      :     1.672514
      py      :     1.382884
      dz2     :     0.012917  d :     0.071814
      dxz     :     0.009559
      dyz     :     0.022588
      dx2y2   :     0.012341
      dxy     :     0.014409
  6 H s       :     0.870547  s :     0.870547
      pz      :     0.017967  p :     0.044523
      px      :     0.020049
      py      :     0.006507
  7 H s       :     0.886198  s :     0.886198
      pz      :     0.012451  p :     0.044283
      px      :     0.020558
      py      :     0.011273
  8 H s       :     0.690172  s :     0.690172
      pz      :     0.055960  p :     0.120398
      px      :     0.027336
      py      :     0.037102
  9 O s       :     3.560284  s :     3.560284
      pz      :     1.466592  p :     4.583419
      px      :     1.453805
      py      :     1.663022
      dz2     :     0.029922  d :     0.078828
      dxz     :     0.019580
      dyz     :     0.018183
      dx2y2   :     0.005637
      dxy     :     0.005506


                      *****************************
                      * MAYER POPULATION ANALYSIS *
                      *****************************

  NA   - Mulliken gross atomic population
  ZA   - Total nuclear charge
  QA   - Mulliken gross atomic charge
  VA   - Mayer's total valence
  BVA  - Mayer's bonded valence
  FA   - Mayer's free valence

  ATOM       NA         ZA         QA         VA         BVA        FA
  0 C      6.1336     6.0000    -0.1336     3.8980     3.6442     0.2538
  1 C      5.4161     6.0000     0.5839     3.9749     3.7019     0.2730
  2 H      0.7446     1.0000     0.2554     0.9184     0.8734     0.0450
  3 H      0.7301     1.0000     0.2699     0.9233     0.8791     0.0441
  4 N      7.6347     7.0000    -0.6347     2.9807     2.6645     0.3162
  5 O      8.5265     8.0000    -0.5265     2.2090     1.8590     0.3499
  6 H      0.8489     1.0000     0.1511     0.9505     0.9051     0.0454
  7 H      0.8738     1.0000     0.1262     0.9495     0.9013     0.0482
  8 H      0.6561     1.0000     0.3439     0.9004     0.8570     0.0434
  9 O      8.4356     8.0000    -0.4356     2.3241     1.9365     0.3877

  Mayer bond orders larger than 0.100000
B(  0-C ,  1-C ) :   0.9009 B(  0-C ,  4-N ) :   0.9390 B(  0-C ,  6-H ) :   0.9106 
B(  0-C ,  7-H ) :   0.9016 B(  1-C ,  5-O ) :   1.0009 B(  1-C ,  9-O ) :   1.8117 
B(  2-H ,  4-N ) :   0.8755 B(  3-H ,  4-N ) :   0.8577 B(  5-O ,  8-H ) :   0.8128 



----------------------------------
MP2 DERIVATIVE INTEGRAL GENERATION
----------------------------------

Input SCF Electron Density              ... 3.scfp
Input Correlated Electron Density       ... 3.pmp2re
Input Energy Weighted Density           ... 3.wmp2.tmp
Input Wavefunction Amplitudes           ... 3.mp2tsaa.tmp

Nuclear repulsion gradient              ... done (  0.0 sec)
HCore & Overlap gradient  (SHARK)       ... done (  0.0 sec)
Analytic two-electron gradient terms    ... 
  Batch handling in the gradient evaluation:
  General contraction                   ... not used
  Memory available                      ... 4090.9 MB
  Memory per occupied orbital in Q2     ...    1.0 MB
  Memory per occupied orbital in Q3     ...    0.0 MB
  Total memory requirement per |i>      ...    1.1 MB
  Number of orbitals treated per batch  ...     15
  Number of batches to be done          ...      1
done (  1.6 sec)

---------------------------------------
MP2 TOTAL ENERGY:     -283.633039890 Eh
---------------------------------------

The final MP2 gradient
  0:   0.00001433   0.00004589  -0.00000678
  1:   0.00000469  -0.00005249  -0.00005606
  2:   0.00003808   0.00000692   0.00000238
  3:   0.00003429   0.00000336  -0.00000042
  4:  -0.00008918  -0.00004457  -0.00000239
  5:   0.00002291  -0.00001924  -0.00006465
  6:  -0.00000336  -0.00000094  -0.00000289
  7:   0.00001162  -0.00000631  -0.00000279
  8:  -0.00001099   0.00001240   0.00001592
  9:  -0.00002239   0.00005496   0.00011768

-----------------------------------
NORM OF THE MP2 GRADIENT:  0.000210
-----------------------------------

Maximum memory used throughout the entire MP2-calculation: 63.5 MB

-------------------------   --------------------
FINAL SINGLE POINT ENERGY      -283.633039890343
-------------------------   --------------------

                                *** OPTIMIZATION RUN DONE ***


------------------------------------------------------------------------------
                              ORCA PROPERTY CALCULATIONS
------------------------------------------------------------------------------

GBWName                                 ... 3.gbw
Number of atoms                         ...     10
Number of basis functions               ...     95
Max core memory                         ...   4096 MB

Electric properties:
Dipole moment                           ... YES
Quadrupole moment                       ...  NO
Static polarizability (Dipole/Dipole)   ...  NO
Static polarizability (Dipole/Quad.)    ...  NO
Static polarizability (Quad./Quad.)     ...  NO
Static polarizability (Velocity)        ...  NO
Static hyperpolarizability              ...  NO

Atomic electric properties:
Dipole moment                           ...  NO
Quadrupole moment                       ...  NO
Static polarizability                   ...  NO

Choice of electric origin               ... Center of mass
Position of electric origin             ...    -9.102542    -3.498846     1.612090

General magnetic properties:
Magnetizability                         ...  NO

EPR properties:
g-Tensor (aka g-matrix)                 ...  NO
Zero-Field splitting spin-orbit         ...  NO
Zero-field splitting spin-spin          ...  NO
Hyperfine couplings                     ...  NO (   0 nuclei)
Quadrupole couplings                    ...  NO (   0 nuclei)
Contact density                         ...  NO (   0 nuclei)

NMR properties:
Chemical shifts                         ...  NO (   0 nuclei)
Spin-rotation constants                 ...  NO (   0 nuclei)
Spin-spin couplings                     ...  NO (   0 nuclei,    0 pairs)

Choice of magnetic origin               ... GIAO
Position of magnetic origin             ...     0.000000     0.000000     0.000000

Properties with geometric perturbations:
SCF Hessian                             ...  NO
IR spectrum                             ...  NO
VCD spectrum                            ...  NO
X-ray spectroscopy properties:
SCF XES/XAS/RIXS spectra                ...  NO

SCF SOC stabilization energy            ...  NO
Diagonal Born-Oppenheimer correction    ...  NO

-------------
DIPOLE MOMENT
-------------

Method             : SCF
Type of density    : Electron Density
Multiplicity       :   1
Irrep              :   0
Energy             :  -282.8397780028251987 Eh
Basis              : AO
                                X                 Y                 Z
Electronic contribution:      1.144728403      -2.752749988       2.240485642
Nuclear contribution   :     -1.559794305       2.391360145      -2.982113520
                        -----------------------------------------
Total Dipole Moment    :     -0.415065902      -0.361389844      -0.741627878
                        -----------------------------------------
Magnitude (a.u.)       :      0.923522729
Magnitude (Debye)      :      2.347408226



--------------------
Rotational spectrum 
--------------------
 
Rotational constants in cm-1:             0.339946             0.132814             0.098743 
Rotational constants in MHz :         10191.335753          3981.653598          2960.250014 

Dipole components along the rotational axes: 
x,y,z [a.u.] :    -0.006718    -0.694315     0.608913 
x,y,z [Debye]:    -0.017075    -1.764809     1.547734 

 

-------------
DIPOLE MOMENT
-------------

Method             : MP2
Type of density    : Electron Density
Multiplicity       :   1
Level              : Unrelaxed density
Irrep              :   0
Energy             :     0.0000000000000000 Eh
Basis              : AO
                                X                 Y                 Z
Electronic contribution:      1.144625445      -2.752558286       2.278485402
Nuclear contribution   :     -1.559794305       2.391360145      -2.982113520
                        -----------------------------------------
Total Dipole Moment    :     -0.415168860      -0.361198141      -0.703628118
                        -----------------------------------------
Magnitude (a.u.)       :      0.893264691
Magnitude (Debye)      :      2.270498405



--------------------
Rotational spectrum 
--------------------
 
Rotational constants in cm-1:             0.339946             0.132814             0.098743 
Rotational constants in MHz :         10191.335753          3981.653598          2960.250014 

Dipole components along the rotational axes: 
x,y,z [a.u.] :    -0.016053    -0.657791     0.604132 
x,y,z [Debye]:    -0.040802    -1.671972     1.535581 

 

-------------
DIPOLE MOMENT
-------------

Method             : MP2
Type of density    : Electron Density
Multiplicity       :   1
Level              : Relaxed density
Irrep              :   0
Energy             :     0.0000000000000000 Eh
Basis              : AO
                                X                 Y                 Z
Electronic contribution:      1.158482176      -2.773043032       2.430707940
Nuclear contribution   :     -1.559794305       2.391360145      -2.982113520
                        -----------------------------------------
Total Dipole Moment    :     -0.401312129      -0.381682887      -0.551405579
                        -----------------------------------------
Magnitude (a.u.)       :      0.781525025
Magnitude (Debye)      :      1.986478744



--------------------
Rotational spectrum 
--------------------
 
Rotational constants in cm-1:             0.339946             0.132814             0.098743 
Rotational constants in MHz :         10191.335753          3981.653598          2960.250014 

Dipole components along the rotational axes: 
x,y,z [a.u.] :    -0.077482    -0.518475     0.579622 
x,y,z [Debye]:    -0.196943    -1.317858     1.473283 

 

Dipole moment calculation done in   0.0 sec 

Maximum memory used throughout the entire PROP-calculation: 4.2 MB

--------------------------------
SUGGESTED CITATIONS FOR THIS RUN
--------------------------------

Below you find a list of papers that are relevant to this ORCA run
We neither can nor want to force you to cite these papers, but we appreciate if you do
You receive ORCA, which is the product of decades of hard work by many enthusiastic individuals, for free
The only thing we kindly ask in return is that you cite our papers,
We deeply appreciate it, if you show your appreciation for ORCA by not just citing the generic ORCA reference.

Please note that relegating all ORCA citations to the supporting information does *not* help us.
SI sections are not indexed - citations you put there will not count into any citation statistics
But we need these citations in order to attract the funding resources that allow us to do what we are doing

Therefore, if you are a happy ORCA user, please consider citing a few of the papers listed below in the main body of your paper

In addition to the list printed below, the program has created the file 3.bibtex that contains the list in bibtex format
You can import this file easily into all common literature databanks and citation aid programs


List of essential papers. We consider these as the minimum necessary citations

  1. Neese, F.
     Software update: the ORCA program system, version 6.0
     WIRES Comput. Molec. Sci. 2025 15(1), e70019
     doi.org/10.1002/wcms.7019

List of papers to cite with high priority. The work reported in these papers was absolutely
necessary for this run to complete.
Our perspective: the developers of density functionals and basis sets usually get cited in chemistry papers
Good! But without the algorithms to do something with them, the functionals or basis sets would not do anything.
Hence, in our opinion, the algorithm design and method developments papers are equally worthy of getting cited

  1. Neese, F.
     The SHARK Integral Generation and Digestion System
     J. Comp. Chem. 2022 44(3), 381
     doi.org/10.1002/jcc.26942

List of suggested additional citations. These are papers that are important in the 'surrounding' of 
of this run, or papers that preceded the highly important papers. If you like your results we are grateful for a citation.

  1. Neese, F.
     The ORCA program system
     WIRES Comput. Molec. Sci. 2012 2(1), 73-78
     doi.org/10.1002/wcms.81
  2. Neese, F.
     Software update: the ORCA program system, version 4.0
     WIRES Comput. Molec. Sci. 2018 8(1), 1-6
     doi.org/10.1002/wcms.1327
  3. Neese, F.; Wennmohs, F.; Becker, U.; Riplinger, C.
     The ORCA quantum chemistry program package
     J. Chem. Phys. 2020 152(22), 224108
     doi.org/10.1063/5.0004608
  4. Neese, F.
     Software update: The ORCA program system—Version 5.0
     WIRES Comput. Molec. Sci. 2022 12(1), e1606
     doi.org/10.1002/wcms.1606

List of optional additional citations

  1. Neese, F.
     Approximate second-order SCF convergence for spin unrestricted wavefunctions
     Chem. Phys. Lett. 2000 325(1-3), 93-98
     doi.org/10.1016/s0009-2614(00)00662-x

Timings for individual modules:

Sum of individual times          ...       80.488 sec (=   1.341 min)
Startup calculation              ...        2.006 sec (=   0.033 min)   2.5 %
SCF iterations                   ...       22.338 sec (=   0.372 min)  27.8 %
Property calculations            ...        0.033 sec (=   0.001 min)   0.0 %
MP2 module                       ...       56.102 sec (=   0.935 min)  69.7 %
Geometry relaxation              ...        0.008 sec (=   0.000 min)   0.0 %
                             ****ORCA TERMINATED NORMALLY****
TOTAL RUN TIME: 0 days 0 hours 1 minutes 20 seconds 683 msec
