
                                 *****************
                                 * O   R   C   A *
                                 *****************

                                            #,                                       
                                            ###                                      
                                            ####                                     
                                            #####                                    
                                            ######                                   
                                           ########,                                 
                                     ,,################,,,,,                         
                               ,,#################################,,                 
                          ,,##########################################,,             
                       ,#########################################, ''#####,          
                    ,#############################################,,   '####,        
                  ,##################################################,,,,####,       
                ,###########''''           ''''###############################       
              ,#####''   ,,,,##########,,,,          '''####'''          '####       
            ,##' ,,,,###########################,,,                        '##       
           ' ,,###''''                  '''############,,,                           
         ,,##''                                '''############,,,,        ,,,,,,###''
      ,#''                                            '''#######################'''  
     '                                                          ''''####''''         
             ,#######,   #######,   ,#######,      ##                                
            ,#'     '#,  ##    ##  ,#'     '#,    #''#        ,####,    ,#,          
            ##       ##  ##   ,#'  ##            #'  '#       #'       ,# #          
            ##       ##  #######   ##           ,######,      #####,      #          
            '#,     ,#'  ##    ##  '#,     ,#' ,#      #,     #,   #      #          
             '#######'   ##     ##  '#######'  #'      '#     '####' #    #          



                #########################################################
                #                        -***-                          #
                #          Department of theory and spectroscopy        #
                #                                                       #
                #                      Frank Neese                      #
                #                                                       #
                #     Directorship, Architecture, Infrastructure        #
                #                    SHARK, DRIVERS                     #
                #        Core code/Algorithms in most modules           #
                #                                                       #
                #        Max Planck Institute fuer Kohlenforschung      #
                #                Kaiser Wilhelm Platz 1                 #
                #                 D-45470 Muelheim/Ruhr                 #
                #                      Germany                          #
                #                                                       #
                #                  All rights reserved                  #
                #                        -***-                          #
                #########################################################


                         Program Version 6.1.0  -  RELEASE   -
                                (GIT: $679e74b$)
                          ($2025-06-10 18:02:51 +0200$)


 With contributions from (in alphabetic order):
[Max-Planck-Institut fuer Kohlenforschung]                               
  Daniel Aravena         : Magnetic Suceptibility                        
  Michael Atanasov       : Ab Initio Ligand Field Theory (pilot matlab implementation)
  Alexander A. Auer      : GIAO ZORA, VPT2 properties, NMR spectrum      
  Ute Becker             : All parallelization in ORCA, NUMFREQ, NUMCALC 
  Giovanni Bistoni       : ED, misc. LED, open-shell LED, HFLD           
  Dmytro Bykov           : pre 5.0 version of the SCF Hessian            
  Marcos Casanova-Páez   : Triplet and SCS-CIS(D). UHF-(DLPNO)-IP/EA/STEOM-CCSD. UHF-CVS-IP/STEOM-CCSD   
  Vijay G. Chilkuri      : MRCI spin determinant printing, contributions to CSF-ICE 
  Pauline Colinet        : FMM embedding                                 
  Dipayan Datta          : RHF DLPNO-CCSD density                        
  Achintya Kumar Dutta   : EOM-CC, STEOM-CC                              
  Nicolas Foglia         : Exact transition moments, OPA infrastructure, MCD improvements    
  Dmitry Ganyushin       : Spin-Orbit,Spin-Spin,Magnetic field MRCI      
  Miquel Garcia-Rates    : C-PCM and meta-GGA Hessian, CCSD/C-PCM, Gaussian charge scheme 
  Tiago L. C. Gouveia    : GS-ROHF, GS-ROCIS                             
  Yang Guo               : DLPNO-NEVPT2, F12-NEVPT2, CIM, IAO-localization        
  Andreas Hansen         : Spin unrestricted coupled pair/coupled cluster methods 
  Ingolf Harden          : AUTO-CI MPn and infrastructure                
  Benjamin Helmich-Paris : MC-RPA, TRAH-(SCF,CASSCF), AVAS, COSX integrals, SCF dyn. polar., MC-PDFT, srDFT 
  Lee Huntington         : MR-EOM, pCC                                   
  Robert Izsak           : Overlap fitted RIJCOSX, COSX-SCS-MP3, EOM     
  Riya Kayal             : Wick's Theorem for AUTO-CI, AUTO-CI UHF-CCSDT 
  Emily Kempfer          : AUTO-CI RHF CISDT and CCSDT, approximate NEVPT4
  Christian Kollmar      : KDIIS, OOCD, Brueckner-CCSD(T), CCSD density, CASPT2, CASPT2-K, improved NEVPT2 
  Axel Koslowski         : Symmetry handling                             
  Simone Kossmann        : meta-GGA functionals, TD-DFT gradient, OOMP2, (MP2 Hessian; deprecated post 5.0) 
  Lucas Lang             : DCDCAS, Hyperfine gauge corrections, ICE-SOC+SSC
  Marvin Lechner         : AUTO-CI (C++ implementation), FIC-MRCC        
  Spencer Leger          : CASSCF response                               
  Dagmar Lenk            : GEPOL surface, SMD, ORCA-2-JSON               
  Dimitrios Liakos       : Extrapolation schemes; Compound Job, Property file
  Dimitrios Manganas     : Further ROCIS development; embedding schemes. LFT, Crystal Embedding 
  Dimitrios Pantazis     : SARC Basis sets                               
  Anastasios Papadopoulos: AUTO-CI, single reference methods and gradients 
  Taras Petrenko         : pre 6.0 DFT Hessian and TD-DFT gradient,  ECA, NRVS 
  Petra Pikulova         : Analytic Raman intensities                    
  Peter Pinski           : DLPNO-MP2, DLPNO-MP2 Gradient                 
  Shashank Vittal Rao    : ES-AILFT, MagRelax                            
  Christoph Reimann      : Effective Core Potentials                     
  Marius Retegan         : Local ZFS, SOC                                
  Christoph Riplinger    : Optimizer, TS searches, QM/MM, DLPNO-CCSD(T), (RO)-DLPNO pert. Triples 
  Michael Roemelt        : Original ROCIS implementation, recursive CI coupling coefficients
  Masaaki Saitow         : Open-shell DLPNO-CCSD energy and density      
  Barbara Sandhoefer     : DKH picture change effects                    
  Yorick L. A. Schmerwitz: GMF and freeze-and-release deltaSCF, NEB S-IDPP initial path                    
  Kantharuban Sivalingam : CASSCF convergence/infrastructure, NEVPT2, NEVPT3, NEVPT4(SD), FIC-MRCI and CEPA variants
  Bernardo de Souza      : ESD, SOC TD-DFT                               
  Georgi L. Stoychev     : AutoAux, RI-MP2 NMR, DLPNO-MP2 response, X2C  
  Van Anh Tran           : RI-MP2 g-tensors                              
  Willem Van den Heuvel  : Paramagnetic NMR                              
  Zikuan Wang            : NOTCH, Electric field optimization            
  Frank Wennmohs         : Technical directorship and infrastructure     
  Hang Xu                : AUTO-CI-Response properties                   
                                                                         
[FACCTs GmbH]                                                            
  Markus Bursch, Nicolas Foglia, Miquel Garcia-Rates, Ingolf Harden, Hagen Neugebauer, Anastasios Papadopoulos, 
  Christoph Riplinger, Bernardo de Souza, Georgi L. Stoychev                                                    
                                                                 
  APM, various basis sets, CI-OPT, improved COSX, DLPNO-Multilevel,           
  DOCKER, DRACO, updates on ESD, Fragmentator, GOAT, IRC, LR-CPCM, L-BFGS, MBIS, meta-GGA TD-DFT gradient, ML-optimized integration grids, 
  MM, NACMEs, nearIR, NEB, NEB-TS, NL-DFT gradient (VV10), 2- and 3-layer-ONIOM, interface openCOSMO-RS, QMMM,   
  Crystal-QMMM, RESP, rigid body optimization, SF, symmetry and pop. for TD-DFT, various functionals, SOLVATOR                                   
                                                                         
[Other institutions]                                                     
  V. Asgeirsson          : NEB                                           
  Christoph Bannwarth    : sTDA-DFT, sTD-DFT, PBEh-3c, B97-3c, D3        
  Giovanni Bistoni       : ETS/NOCV, ADLD/ADEX, COVALED                  
  Martin Brehm           : Molecular dynamics                            
  Ronald Cardenas        : ETS/NOCV                                      
  Martina Colucci        : COVALED                                       
  Sebastian Ehlert       : rSCAN, r2SCAN, r2SCAN-3c, D4, dhf basis sets  
  Marvin Friede          : D4 for Fr, Ra, Ac-Lr                          
  Lars Goerigk           : TD-DFT with DH, B97 family of functionals     
  Stefan Grimme          : VdW corrections, initial TS optimization, DFT functionals, gCP, sTDA/sTD-DF 
  Waldemar Hujo          : DFT-NL                                        
  H. Jonsson             : NEB                                           
  Holger Kruse           : gCP                                           
  Marcel Mueller         : wB97X-3c, vDZP basis set                      
  Hagen Neugebauer       : wr2SCAN, Native XTB                           
  Gianluca Regni         : ADLD/ADEX                                     
  Tobias Risthaus        : pre 6.0 range-separated hybrid DFT and stability analysis
  Lukas Wittmann         : regularized MP2, r2SCAN double-hybrids, wr2SCAN        
                                                                         
We gratefully acknowledge several colleagues who have allowed us to      
interface, adapt or use parts of their codes:                            
  Ed Valeev, F. Pavosevic, A. Kumar             : LibInt (2-el integral package), F12 methods 
  Garnet Chan, S. Sharma, J. Yang, R. Olivares  : DMRG                   
  Ulf Ekstrom                                   : XCFun DFT Library      
  Mihaly Kallay                                 : mrcc  (arbitrary order and MRCC methods)
  Frank Weinhold                                : gennbo (NPA and NBO analysis)           
  Simon Mueller                                 : openCOSMO-RS                            
  Christopher J. Cramer and Donald G. Truhlar   : smd solvation model                     
  S Lehtola, MJT Oliveira, MAL Marques          : LibXC Library                           
  Liviu Ungur et al                             : ANISO software                          


 Your calculation uses the libint2 library for the computation of 2-el integrals
 For citations please refer to: http://libint.valeyev.net

 Your ORCA version has been built with support for libXC version: 7.0.0
 For citations please refer to: https://libxc.gitlab.io

 This ORCA versions uses:
   CBLAS   interface :  Fast vector & matrix operations
   LAPACKE interface :  Fast linear algebra routines
   SCALAPACK package :  Parallel linear algebra routines
   Shared memory     :  Shared parallel matrices
   BLAS/LAPACK       :  OpenBLAS 0.3.29  USE64BITINT DYNAMIC_ARCH NO_AFFINITY Haswell SINGLE_THREADED
        Core in use  :  Haswell
   Copyright (c) 2011-2014, The OpenBLAS Project


  ***********************************
  * Starting time: Wed Aug 13 12:06:43 2025
  * Host name:     CHEMLAB02
  * Process ID:    1531985
  * Working dir.:  /home/vivek/mm-project/vivek/B97-D/f/5
  ***********************************



***************************************
The coordinates will be read from file: /home/vivek/mm-project/vivek/xtb-goat/f/F_CONF/5.xyz
***************************************


Your calculation utilizes empirical dispersion correction


Warning: RI is on but no J-basis has been assigned. Assigning Def2/J (nothing to worry about!)
================================================================================

----- Orbital basis set information -----
Your calculation utilizes the basis: 6-31G**
   H-He, Li-Ne : W. J. Hehre, R. Ditchfield and J.A. Pople, J. Chem. Phys. 56, 2257 (1972).
                 Note: He and Ne are unpublished basis sets taken from the Gaussian program.
                 Note: Li and B from J. D. Dill and J. A. Pople, J. Chem. Phys. 62, 2921 (1975).
   Na - Ar     : M. M. Francl, W. J. Pietro, W. J. Hehre, J. S. Binkley, M. S. Gordon, 
                 D. J. DeFrees and J. A. Pople, J. Chem. Phys. 77, 3654 (1982).
   K - Zn      : V. A. Rassolov, J. A. Pople, M. A. Ratner, and T. L. Windus, J. Chem. Phys. 109, 1223 (1998).

----- AuxJ basis set information -----
Your calculation utilizes the auxiliary basis: def2/J
   H-Rn: F. Weigend, Phys. Chem. Chem. Phys. 8, 1057 (2006).
   Fr-Lr: K. Eichkorn, F. Weigend, O. Treutler, R. Ahlrichs; Theor. Chem. Acc. 97, 119 (1997).

================================================================================
                                        WARNINGS
                       Please study these warnings very carefully!
================================================================================


INFO   : The exchange functional is Grimme's B97(-D)
         As described in S. Grimme, J. Comput. Chem. 27, 1787 (2006).
         Note that this functional defaults to a pure GGA. 

INFO   : The correlation functional is Grimme's B97(-D)
         As described in S. Grimme, J. Comput. Chem. 27, 1787 (2006).

================================================================================
                                       INPUT FILE
================================================================================
NAME = 5.inp
|  1> ! B97-D 6-31G** 
|  2> 
|  3> * xyzfile 0 1 /home/vivek/mm-project/vivek/xtb-goat/f/F_CONF/5.xyz
|  4> 
|  5>                          ****END OF INPUT****
================================================================================

                       ****************************
                       * Single Point Calculation *
                       ****************************

---------------------------------
CARTESIAN COORDINATES (ANGSTROEM)
---------------------------------
  C     -6.475344    0.997302   -1.394099
  C     -5.288045    0.773011   -2.068203
  C     -5.265924    1.143052    0.672232
  H     -7.385882    1.353421    0.510193
  H     -5.257959    1.286986    1.743247
  C     -4.091645    0.733839   -1.372536
  C     -2.769805    0.928652    0.754738
  H     -5.291437    0.627969   -3.138625
  C     -4.067826    0.915281    0.004982
  H     -7.408994    1.027395   -1.935761
  C     -6.461516    1.180348   -0.021052
  H     -3.168468    0.548569   -1.904548
  C     -2.282273    2.397766    0.950337
  H     -2.893548    0.472595    1.738319
  H     -2.002055    0.380199    0.203932
  C     -0.998189    2.311099    1.749330
  H     -0.388596    2.225510    3.554189
  N     -2.029863    3.119942   -0.273463
  O     -1.223848    2.313346    3.066674
  H     -1.161350    2.798034   -0.689069
  O      0.099565    2.196691    1.275697
  H     -3.033586    2.940363    1.534425
  H     -2.784913    2.976472   -0.935272

----------------------------
CARTESIAN COORDINATES (A.U.)
----------------------------
  NO LB      ZA    FRAG     MASS         X           Y           Z
   0 C     6.0000    0    12.011  -12.236627    1.884629   -2.634465
   1 C     6.0000    0    12.011   -9.992957    1.460779   -3.908338
   2 C     6.0000    0    12.011   -9.951155    2.160055    1.270335
   3 H     1.0000    0     1.008  -13.957294    2.557596    0.964125
   4 H     1.0000    0     1.008   -9.936102    2.432052    3.294259
   5 C     6.0000    0    12.011   -7.732088    1.386754   -2.593717
   6 C     6.0000    0    12.011   -5.234173    1.754897    1.426249
   7 H     1.0000    0     1.008   -9.999366    1.186690   -5.931142
   8 C     6.0000    0    12.011   -7.687077    1.729630    0.009415
   9 H     1.0000    0     1.008  -14.000970    1.941495   -3.658057
  10 C     6.0000    0    12.011  -12.210496    2.230534   -0.039783
  11 H     1.0000    0     1.008   -5.987538    1.036645   -3.599074
  12 C     6.0000    0    12.011   -4.312872    4.531121    1.795877
  13 H     1.0000    0     1.008   -5.468014    0.893074    3.284948
  14 H     1.0000    0     1.008   -3.783335    0.718471    0.385376
  15 C     6.0000    0    12.011   -1.886304    4.367345    3.305755
  16 H     1.0000    0     1.008   -0.734341    4.205605    6.716444
  17 N     7.0000    0    14.007   -3.835885    5.895836   -0.516771
  18 O     8.0000    0    15.999   -2.312738    4.371590    5.795173
  19 H     1.0000    0     1.008   -2.194633    5.287517   -1.302151
  20 O     8.0000    0    15.999    0.188150    4.151144    2.410718
  21 H     1.0000    0     1.008   -5.732646    5.556481    2.899643
  22 H     1.0000    0     1.008   -5.262722    5.624717   -1.767407

--------------------------------
INTERNAL COORDINATES (ANGSTROEM)
--------------------------------
 C      0   0   0     0.000000000000     0.00000000     0.00000000
 C      1   0   0     1.383619667466     0.00000000     0.00000000
 C      1   2   0     2.398679671562    89.82166932     0.00000000
 H      3   1   2     2.136523739110    55.96879354   180.14248734
 H      3   1   2     1.080672312562   149.94624603   180.07930327
 C      2   1   3     1.384507796824   120.08645881     0.00000000
 C      3   1   2     2.506668115716   121.68423737     1.40964513
 H      2   1   3     1.080208875620   120.12322649   180.00505532
 C      6   2   1     1.389620329816   120.61103372     0.14551638
 H      1   2   3     1.079817133921   120.13764465   180.03607361
 C      4   3   1     1.080105406799    34.14193961     0.02858889
 H      6   2   1     1.081487883544   119.69021369   179.41110982
 C      7   3   1     1.560205843153   103.57702091   103.95374807
 H      7   3   1     1.091206685954    87.27698928   212.25027312
 H      7   3   1     1.092533309623   136.56132188   327.21007591
 C     13   7   3     1.514850599999   106.08899043   149.08521327
 H     16  13   7     1.906946337840   140.60092700   273.55983715
 N     13   7   3     1.443238684773   114.80398944   269.67763977
 O     17  16  13     0.971098057066    41.04798333   357.08660752
 H     18  13   7     1.015218186404   109.76035320   285.22878588
 O     16  13   7     1.201033391613   124.90536707    89.11959349
 H     13   7   3     1.095463506266   108.59811181    31.84276115
 H     18  13   7     1.014235642087   110.62961631    45.50167033

---------------------------
INTERNAL COORDINATES (A.U.)
---------------------------
 C      0   0   0     0.000000000000     0.00000000     0.00000000
 C      1   0   0     2.614662245018     0.00000000     0.00000000
 C      1   2   0     4.532847662257    89.82166932     0.00000000
 H      3   1   2     4.037444745539    55.96879354   180.14248734
 H      3   1   2     2.042174711254   149.94624603   180.07930327
 C      2   1   3     2.616340566275   120.08645881     0.00000000
 C      3   1   2     4.736916247336   121.68423737     1.40964513
 H      2   1   3     2.041298942353   120.12322649   180.00505532
 C      6   2   1     2.626001853482   120.61103372     0.14551638
 H      1   2   3     2.040558657827   120.13764465   180.03607361
 C      4   3   1     2.041103414619    34.14193961     0.02858889
 H      6   2   1     2.043715917053   119.69021369   179.41110982
 C      7   3   1     2.948361756103   103.57702091   103.95374807
 H      7   3   1     2.062081791956    87.27698928   212.25027312
 H      7   3   1     2.064588747375   136.56132188   327.21007591
 C     13   7   3     2.862652767805   106.08899043   149.08521327
 H     16  13   7     3.603606330603   140.60092700   273.55983715
 N     13   7   3     2.727325860102   114.80398944   269.67763977
 O     17  16  13     1.835109377037    41.04798333   357.08660752
 H     18  13   7     1.918484338479   109.76035320   285.22878588
 O     16  13   7     2.269624187843   124.90536707    89.11959349
 H     13   7   3     2.070126016549   108.59811181    31.84276115
 H     18  13   7     1.916627598807   110.62961631    45.50167033

---------------------
BASIS SET INFORMATION
---------------------
There are 4 groups of distinct atoms

 Group   1 Type C   : 10s4p1d contracted to 3s2p1d pattern {631/31/1}
 Group   2 Type H   : 4s1p contracted to 2s1p pattern {31/1}
 Group   3 Type N   : 10s4p1d contracted to 3s2p1d pattern {631/31/1}
 Group   4 Type O   : 10s4p1d contracted to 3s2p1d pattern {631/31/1}

Atom   0C    basis set group =>   1
Atom   1C    basis set group =>   1
Atom   2C    basis set group =>   1
Atom   3H    basis set group =>   2
Atom   4H    basis set group =>   2
Atom   5C    basis set group =>   1
Atom   6C    basis set group =>   1
Atom   7H    basis set group =>   2
Atom   8C    basis set group =>   1
Atom   9H    basis set group =>   2
Atom  10C    basis set group =>   1
Atom  11H    basis set group =>   2
Atom  12C    basis set group =>   1
Atom  13H    basis set group =>   2
Atom  14H    basis set group =>   2
Atom  15C    basis set group =>   1
Atom  16H    basis set group =>   2
Atom  17N    basis set group =>   3
Atom  18O    basis set group =>   4
Atom  19H    basis set group =>   2
Atom  20O    basis set group =>   4
Atom  21H    basis set group =>   2
Atom  22H    basis set group =>   2
---------------------------------
AUXILIARY/J BASIS SET INFORMATION
---------------------------------
There are 4 groups of distinct atoms

 Group   1 Type C   : 12s5p4d2f1g contracted to 6s4p3d1f1g pattern {711111/2111/211/2/1}
 Group   2 Type H   : 5s2p1d contracted to 3s1p1d pattern {311/2/1}
 Group   3 Type N   : 12s5p4d2f1g contracted to 6s4p3d1f1g pattern {711111/2111/211/2/1}
 Group   4 Type O   : 12s5p4d2f1g contracted to 6s4p3d1f1g pattern {711111/2111/211/2/1}

Atom   0C    basis set group =>   1
Atom   1C    basis set group =>   1
Atom   2C    basis set group =>   1
Atom   3H    basis set group =>   2
Atom   4H    basis set group =>   2
Atom   5C    basis set group =>   1
Atom   6C    basis set group =>   1
Atom   7H    basis set group =>   2
Atom   8C    basis set group =>   1
Atom   9H    basis set group =>   2
Atom  10C    basis set group =>   1
Atom  11H    basis set group =>   2
Atom  12C    basis set group =>   1
Atom  13H    basis set group =>   2
Atom  14H    basis set group =>   2
Atom  15C    basis set group =>   1
Atom  16H    basis set group =>   2
Atom  17N    basis set group =>   3
Atom  18O    basis set group =>   4
Atom  19H    basis set group =>   2
Atom  20O    basis set group =>   4
Atom  21H    basis set group =>   2
Atom  22H    basis set group =>   2
------------------------------------------------------------------------------
                             ORCA STARTUP CALCULATIONS
                           -- RI-GTO INTEGRALS CHOSEN --
------------------------------------------------------------------------------
------------------------------------------------------------------------------
                   ___                                                        
                  /   \      - P O W E R E D   B Y -                         
                 /     \                                                     
                 |  |  |   _    _      __       _____    __    __             
                 |  |  |  | |  | |    /  \     |  _  \  |  |  /  |          
                  \  \/   | |  | |   /    \    | | | |  |  | /  /          
                 / \  \   | |__| |  /  /\  \   | |_| |  |  |/  /          
                |  |  |   |  __  | /  /__\  \  |    /   |      \           
                |  |  |   | |  | | |   __   |  |    \   |  |\   \          
                \     /   | |  | | |  |  |  |  | |\  \  |  | \   \       
                 \___/    |_|  |_| |__|  |__|  |_| \__\ |__|  \__/        
                                                                              
                      - O R C A' S   B I G   F R I E N D -                    
                                      &                                       
                       - I N T E G R A L  F E E D E R -                       
                                                                              
 v1 FN, 2020, v2 2021, v3 2022-2024                                           
------------------------------------------------------------------------------


----------------------
SHARK INTEGRAL PACKAGE
----------------------

Number of atoms                             ...     23
Number of basis functions                   ...    223
Number of shells                            ...    105
Maximum angular momentum                    ...      2
Integral batch strategy                     ... SHARK/LIBINT Hybrid
RI-J (if used) integral strategy            ... SPLIT-RIJ (Revised 2003 algorithm where possible)
Printlevel                                  ...      1
Contraction scheme used                     ... SEGMENTED contraction
Prescreening option                         ... SCHWARTZ
   Thresh                                   ... 1.000e-10
   Tcut                                     ... 1.000e-11
   Tpresel                                  ... 1.000e-11 
Coulomb Range Separation                    ... NOT USED
Exchange Range Separation                   ... NOT USED
Multipole approximations                    ... NOT USED
Finite Nucleus Model                        ... NOT USED
CABS basis                                  ... NOT available
Auxiliary Coulomb fitting basis             ... AVAILABLE
   # of basis functions in Aux-J            ...    709
   # of shells in Aux-J                     ...    235
   Maximum angular momentum in Aux-J        ...      4
Auxiliary J/K fitting basis                 ... NOT available
Auxiliary Correlation fitting basis         ... NOT available
Auxiliary 'external' fitting basis          ... NOT available

Checking pre-screening integrals            ... done (  0.0 sec) Dimension = 105
   => SHARK Basis and OBASIS are compatible. Storing Pre-screening
Shell pair information
Shell pair cut-off parameter TPreSel        ...   1.0e-11
Total number of shell pairs                 ...      5565
Shell pairs after pre-screening             ...      4614
Total number of primitive shell pairs       ...     28015
Primitive shell pairs kept                  ...     14635
          la=0 lb=0:   1416 shell pairs
          la=1 lb=0:   1695 shell pairs
          la=1 lb=1:    535 shell pairs
          la=2 lb=0:    561 shell pairs
          la=2 lb=1:    345 shell pairs
          la=2 lb=2:     62 shell pairs

Checking whether 4 symmetric matrices of dimension 223 fit in memory
:Max Core in MB      =   4096.00
 MB in use           =      9.67
 MB left             =   4086.33
 MB needed           =      0.76
 Data fit in memory  = YES
Calculating RI/J V-Matrix + Cholesky decomp.... done (  0.0 sec)
Calculating Nuclear repulsion               ... done (  0.0 sec) ENN=    673.981182309571 Eh

Diagonalization of the overlap matrix:
Smallest eigenvalue                        ... 4.376e-04
Time for diagonalization                   ...    0.003 sec
Threshold for overlap eigenvalues          ... 1.000e-07
Number of eigenvalues below threshold      ... 0
Time for construction of square roots      ...    0.001 sec
Total time needed                          ...    0.004 sec

-------------------
DFT GRID GENERATION
-------------------

General Integration Accuracy     IntAcc      ... 4.388
Radial Grid Type                 RadialGrid  ... OptM3 with GC (2021)
Angular Grid (max. ang.)         AngularGrid ... 4 (Lebedev-302)
Angular grid pruning method      GridPruning ... 4 (adaptive)
Weight generation scheme         WeightScheme... mBecke (2022)
Basis function cutoff            BFCut       ... 1.0000e-10
Integration weight cutoff        WCut        ... 1.0000e-14
Partially contracted basis set               ... off
Rotationally invariant grid construction     ... off
Angular grids for H and He will be reduced by one unit

Total number of grid points                  ...   107188
Total number of batches                      ...     1686
Average number of points per batch           ...       63
Average number of grid points per atom       ...     4660
Grids setup in   0.5 sec
Initializing property integral containers    ... done (  0.0 sec)

SHARK setup successfully completed in   0.6 seconds

Maximum memory used throughout the entire STARTUP-calculation: 45.3 MB
-------------------------------------------------------------------------------
                                 ORCA GUESS
                   Start orbitals & Density for SCF / CASSCF
-------------------------------------------------------------------------------

------------
SCF SETTINGS
------------
Hamiltonian:
 Density Functional     Method          .... DFT(GTOs)
 Exchange Functional    Exchange        .... B97(D)
 Correlation Functional Correlation     .... B97(D)
 Gradients option       PostSCFGGA      .... off
 RI-approximation to the Coulomb term is turned on
   Number of AuxJ basis functions       .... 709


General Settings:
 Integral files         IntName         .... 5
 Hartree-Fock type      HFTyp           .... RHF
 Total Charge           Charge          ....    0
 Multiplicity           Mult            ....    1
 Number of Electrons    NEL             ....   88
 Basis Dimension        Dim             ....  223
 Nuclear Repulsion      ENuc            ....    673.9811823096 Eh

Convergence Acceleration:
 AO-DIIS                CNVDIIS         .... on
   Start iteration      DIISMaxIt       ....    12
   Startup error        DIISStart       ....  0.200000
   # of expansion vecs  DIISMaxEq       ....     5
   Bias factor          DIISBfac        ....   1.050
   Max. coefficient     DIISMaxC        ....  10.000
 MO-DIIS                CNVKDIIS        .... off
 Trust-Rad. Augm. Hess. CNVTRAH         .... auto
   Auto Start mean grad. ratio tolernc. ....  1.125000
   Auto Start start iteration           ....    50
   Auto Start num. interpolation iter.  ....    10
   Max. Number of Micro iterations      ....    24
   Max. Number of Macro iterations      .... Maxiter - #DIIS iter
   Number of Davidson start vectors     ....     2
   Converg. threshold    (grad. norm)   ....   5.000e-05
   Grad. Scal. Fac. for Micro threshold ....   0.100
   Minimum threshold for Micro iter.    ....   1.000e-02
   NR start threshold (gradient norm)   ....   1.000e-04
   Initial trust radius                 ....   0.400
   Minimum AH scaling param. (alpha)    ....   1.000
   Maximum AH scaling param. (alpha)    .... 1000.000
   Quad. conv. algorithm                .... NR
   White noise on init. David. guess    .... on
   Maximum white noise                  ....   0.010
   Pseudo random numbers                .... off
   Inactive MOs                         .... canonical
   Orbital update algorithm             .... Taylor
   Preconditioner                       .... Diag
   Full preconditioner red. dimension   ....   250
 SOSCF                 CNVSOSCF           .... on
   Start iteration     SOSCFMaxIt         ....   150
   Startup grad/error  SOSCFStart         ....  0.003300
   Hessian update      SOSCFHessUp        .... L-BFGS
   Autom. constraints  SOSCFAutoConstrain .... off
 Level Shifting         CNVShift        .... on
   Level shift para.    LevelShift      ....    0.2500
   Turn off err/grad.   ShiftErr        ....    0.0010
 Zerner damping         CNVZerner       .... off
 Static damping         CNVDamp         .... on
   Fraction old density DampFac         ....    0.7000
   Max. Damping (<1)    DampMax         ....    0.9800
   Min. Damping (>=0)   DampMin         ....    0.0000
   Turn off err/grad.   DampErr         ....    0.1000

SCF Procedure:
 Maximum # iterations   MaxIter         ....   125
 SCF integral mode      SCFMode         .... Direct
   Integral package                     .... SHARK and LIBINT hybrid scheme
 Reset frequency        DirectResetFreq ....    20
 Integral Threshold     Thresh          ....  1.000e-10 Eh
 Primitive CutOff       TCut            ....  1.000e-11 Eh

Convergence Tolerance:
 Convergence Check Mode ConvCheckMode   .... Total+1el-Energy
 Convergence forced     ConvForced      .... 0
 Energy Change          TolE            ....  1.000e-06 Eh
 1-El. energy change                    ....  1.000e-03 Eh
 Orbital Gradient       TolG            ....  5.000e-05
 Orbital Rotation angle TolX            ....  5.000e-05
 DIIS Error             TolErr          ....  1.000e-06

------------------------------
INITIAL GUESS: MODEL POTENTIAL
------------------------------
Loading Hartree-Fock densities                     ... done
Calculating cut-offs                               ... done
Initializing the effective Hamiltonian             ... done
Setting up the integral package (SHARK)            ... done
Starting the Coulomb interaction                   ... done (   0.1 sec)
Making the grid                                    ... done (   0.1 sec)
Mapping shells                                     ... done
Starting the XC term evaluation                    ... done (   0.1 sec)
  promolecular density results
     # of electrons  =     87.993683588
     EX              =    -71.443630402
     EC              =     -3.853277782
     EX+EC           =    -75.296908184
Transforming the Hamiltonian                       ... done (   0.0 sec)
Diagonalizing the Hamiltonian                      ... done (   0.0 sec)
Back transforming the eigenvectors                 ... done (   0.0 sec)
Now organizing SCF variables                       ... done
                      ------------------
                      INITIAL GUESS DONE (   0.4 sec)
                      ------------------
             **** ENERGY FILE WAS UPDATED (5.en.tmp) ****
Finished Guess after   0.4 sec
Maximum memory used throughout the entire GUESS-calculation: 15.8 MB

-------------------------------------------------------------------------------------------
                                      ORCA LEAN-SCF
                              memory conserving SCF solver
-------------------------------------------------------------------------------------------

----------------------------------------D-I-I-S--------------------------------------------
Iteration    Energy (Eh)           Delta-E    RMSDP     MaxDP     DIISErr   Damp  Time(sec)
-------------------------------------------------------------------------------------------
               ***  Starting incremental Fock matrix formation  ***
    1    -554.0359847938204894     0.00e+00  3.05e-03  1.09e-01  2.57e-01  0.700   0.7
    2    -554.2080026399648887    -1.72e-01  2.02e-03  5.83e-02  9.68e-02  0.700   0.7
                               ***Turning on AO-DIIS***
    3    -554.2648338264341419    -5.68e-02  7.96e-04  1.69e-02  2.80e-02  0.700   0.6
    4    -554.3010429231333092    -3.62e-02  1.14e-03  2.19e-02  1.29e-02  0.000   0.6
    5    -554.3830931510117352    -8.21e-02  3.46e-04  9.14e-03  7.74e-03  0.000   0.6
    6    -554.3838382138994803    -7.45e-04  1.28e-04  3.01e-03  3.34e-03  0.000   0.6
                              *** Initializing SOSCF ***
---------------------------------------S-O-S-C-F--------------------------------------
Iteration    Energy (Eh)           Delta-E    RMSDP     MaxDP     MaxGrad    Time(sec)
--------------------------------------------------------------------------------------
    7    -554.3838936590784670    -5.54e-05  4.53e-05  1.16e-03  1.51e-03     0.6
               *** Restarting incremental Fock matrix formation ***
    8    -554.3839024720841735    -8.81e-06  2.85e-05  5.92e-04  9.37e-05     0.7
    9    -554.3839019158824613     5.56e-07  1.38e-05  6.32e-04  2.90e-04     0.6
                 **** Energy Check signals convergence ****

               *****************************************************
               *                     SUCCESS                       *
               *           SCF CONVERGED AFTER   9 CYCLES          *
               *****************************************************

             **** ENERGY FILE WAS UPDATED (5.en.tmp) ****

----------------
TOTAL SCF ENERGY
----------------

Total Energy       :       -554.38390321746851 Eh          -15085.55294 eV

Components:
Nuclear Repulsion  :        673.98118230957130 Eh           18339.96036 eV
Electronic Energy  :      -1228.36508552703981 Eh          -33425.51330 eV
One Electron Energy:      -2090.35597569159381 Eh          -56881.47790 eV
Two Electron Energy:        861.99089016455400 Eh           23455.96460 eV

Virial components:
Potential Energy   :      -1106.05110224375585 Eh          -30097.18060 eV
Kinetic Energy     :        551.66719902628745 Eh           15011.62766 eV
Virial Ratio       :          2.00492453456717

DFT components:
N(Alpha)           :       43.999901088785 electrons
N(Beta)            :       43.999901088785 electrons
N(Total)           :       87.999802177569 electrons
E(X)               :      -73.002929831902 Eh       
E(C)               :       -3.853333110098 Eh       
E(XC)              :      -76.856262942000 Eh       

---------------
SCF CONVERGENCE
---------------

  Last Energy change         ...   -5.5620e-07  Tolerance :   1.0000e-06
  Last MAX-Density change    ...    6.3178e-04  Tolerance :   1.0000e-05
  Last RMS-Density change    ...    1.3842e-05  Tolerance :   1.0000e-06
  Last DIIS Error            ...    1.5095e-03  Tolerance :   1.0000e-06
  Last Orbital Gradient      ...    2.9036e-04  Tolerance :   5.0000e-05
  Last Orbital Rotation      ...    4.1956e-04  Tolerance :   5.0000e-05


----------------
ORBITAL ENERGIES
----------------

  NO   OCC          E(Eh)            E(eV) 
   0   2.0000     -18.816392      -512.0201 
   1   2.0000     -18.755346      -510.3589 
   2   2.0000     -13.981390      -380.4530 
   3   2.0000     -10.032221      -272.9906 
   4   2.0000      -9.948616      -270.7156 
   5   2.0000      -9.917982      -269.8820 
   6   2.0000      -9.915325      -269.8097 
   7   2.0000      -9.911028      -269.6928 
   8   2.0000      -9.910831      -269.6874 
   9   2.0000      -9.909874      -269.6614 
  10   2.0000      -9.909280      -269.6452 
  11   2.0000      -9.909181      -269.6425 
  12   2.0000      -1.023586       -27.8532 
  13   2.0000      -0.934767       -25.4363 
  14   2.0000      -0.816505       -22.2182 
  15   2.0000      -0.784757       -21.3543 
  16   2.0000      -0.710770       -19.3410 
  17   2.0000      -0.680069       -18.5056 
  18   2.0000      -0.663119       -18.0444 
  19   2.0000      -0.607705       -16.5365 
  20   2.0000      -0.550092       -14.9688 
  21   2.0000      -0.541380       -14.7317 
  22   2.0000      -0.521816       -14.1993 
  23   2.0000      -0.474901       -12.9227 
  24   2.0000      -0.458885       -12.4869 
  25   2.0000      -0.425413       -11.5761 
  26   2.0000      -0.416768       -11.3408 
  27   2.0000      -0.414403       -11.2765 
  28   2.0000      -0.400596       -10.9008 
  29   2.0000      -0.386139       -10.5074 
  30   2.0000      -0.376167       -10.2360 
  31   2.0000      -0.371647       -10.1130 
  32   2.0000      -0.367876       -10.0104 
  33   2.0000      -0.358369        -9.7517 
  34   2.0000      -0.332058        -9.0358 
  35   2.0000      -0.320500        -8.7213 
  36   2.0000      -0.317986        -8.6528 
  37   2.0000      -0.296573        -8.0702 
  38   2.0000      -0.295309        -8.0358 
  39   2.0000      -0.274655        -7.4737 
  40   2.0000      -0.229487        -6.2447 
  41   2.0000      -0.224470        -6.1082 
  42   2.0000      -0.217260        -5.9119 
  43   2.0000      -0.185713        -5.0535 
  44   0.0000      -0.033812        -0.9201 
  45   0.0000      -0.028309        -0.7703 
  46   0.0000      -0.010308        -0.2805 
  47   0.0000       0.052174         1.4197 
  48   0.0000       0.068808         1.8724 
  49   0.0000       0.090788         2.4705 
  50   0.0000       0.098965         2.6930 
  51   0.0000       0.105626         2.8742 
  52   0.0000       0.124065         3.3760 
  53   0.0000       0.132268         3.5992 
  54   0.0000       0.142374         3.8742 
*Only the first 10 virtual orbitals were printed.

                    ********************************
                    * MULLIKEN POPULATION ANALYSIS *
                    ********************************

-----------------------
MULLIKEN ATOMIC CHARGES
-----------------------
   0 C :   -0.087934
   1 C :   -0.089690
   2 C :   -0.113519
   3 H :    0.091969
   4 H :    0.087568
   5 C :   -0.136106
   6 C :   -0.262796
   7 H :    0.091888
   8 C :    0.105980
   9 H :    0.090989
  10 C :   -0.090037
  11 H :    0.086222
  12 C :   -0.022016
  13 H :    0.117826
  14 H :    0.115792
  15 C :    0.522416
  16 H :    0.319377
  17 N :   -0.572663
  18 O :   -0.456995
  19 H :    0.248016
  20 O :   -0.419275
  21 H :    0.128824
  22 H :    0.244161
Sum of atomic charges:    0.0000000

--------------------------------
MULLIKEN REDUCED ORBITAL CHARGES
--------------------------------
  0 C s       :     3.176624  s :     3.176624
      pz      :     0.936523  p :     2.876659
      px      :     0.951145
      py      :     0.988992
      dz2     :     0.008774  d :     0.034651
      dxz     :     0.012359
      dyz     :     0.005192
      dx2y2   :     0.005045
      dxy     :     0.003281

  1 C s       :     3.180205  s :     3.180205
      pz      :     0.964818  p :     2.874621
      px      :     0.926041
      py      :     0.983762
      dz2     :     0.010477  d :     0.034864
      dxz     :     0.009893
      dyz     :     0.002443
      dx2y2   :     0.005526
      dxy     :     0.006526

  2 C s       :     3.182850  s :     3.182850
      pz      :     0.958667  p :     2.896061
      px      :     0.939536
      py      :     0.997858
      dz2     :     0.010498  d :     0.034609
      dxz     :     0.009835
      dyz     :     0.002413
      dx2y2   :     0.005556
      dxy     :     0.006307

  3 H s       :     0.895589  s :     0.895589
      pz      :     0.003436  p :     0.012442
      px      :     0.005908
      py      :     0.003098

  4 H s       :     0.899958  s :     0.899958
      pz      :     0.007151  p :     0.012474
      px      :     0.002188
      py      :     0.003135

  5 C s       :     3.192288  s :     3.192288
      pz      :     0.948042  p :     2.909090
      px      :     0.951534
      py      :     1.009514
      dz2     :     0.008958  d :     0.034729
      dxz     :     0.012173
      dyz     :     0.005325
      dx2y2   :     0.004733
      dxy     :     0.003540

  6 C s       :     3.237415  s :     3.237415
      pz      :     1.042876  p :     2.988997
      px      :     0.997286
      py      :     0.948834
      dz2     :     0.006495  d :     0.036384
      dxz     :     0.007584
      dyz     :     0.006962
      dx2y2   :     0.007201
      dxy     :     0.008143

  7 H s       :     0.895671  s :     0.895671
      pz      :     0.007163  p :     0.012442
      px      :     0.002213
      py      :     0.003065

  8 C s       :     3.138240  s :     3.138240
      pz      :     0.878870  p :     2.713953
      px      :     0.883825
      py      :     0.951258
      dz2     :     0.010753  d :     0.041826
      dxz     :     0.012913
      dyz     :     0.006367
      dx2y2   :     0.005807
      dxy     :     0.005987

  9 H s       :     0.896546  s :     0.896546
      pz      :     0.003466  p :     0.012465
      px      :     0.005968
      py      :     0.003032

 10 C s       :     3.181182  s :     3.181182
      pz      :     0.931629  p :     2.873954
      px      :     0.959074
      py      :     0.983251
      dz2     :     0.008781  d :     0.034900
      dxz     :     0.012340
      dyz     :     0.005454
      dx2y2   :     0.004734
      dxy     :     0.003591

 11 H s       :     0.901291  s :     0.901291
      pz      :     0.003358  p :     0.012487
      px      :     0.005863
      py      :     0.003266

 12 C s       :     3.190866  s :     3.190866
      pz      :     0.884601  p :     2.773448
      px      :     0.973134
      py      :     0.915712
      dz2     :     0.011162  d :     0.057703
      dxz     :     0.013350
      dyz     :     0.013693
      dx2y2   :     0.011282
      dxy     :     0.008215

 13 H s       :     0.870594  s :     0.870594
      pz      :     0.005825  p :     0.011580
      px      :     0.002450
      py      :     0.003304

 14 H s       :     0.872808  s :     0.872808
      pz      :     0.003396  p :     0.011400
      px      :     0.004503
      py      :     0.003500

 15 C s       :     2.974272  s :     2.974272
      pz      :     0.727304  p :     2.377478
      px      :     0.864944
      py      :     0.785230
      dz2     :     0.037841  d :     0.125833
      dxz     :     0.038269
      dyz     :     0.017152
      dx2y2   :     0.015486
      dxy     :     0.017085

 16 H s       :     0.642770  s :     0.642770
      pz      :     0.010430  p :     0.037853
      px      :     0.018041
      py      :     0.009382

 17 N s       :     3.587397  s :     3.587397
      pz      :     1.101277  p :     3.957501
      px      :     1.157839
      py      :     1.698385
      dz2     :     0.002779  d :     0.027765
      dxz     :     0.009278
      dyz     :     0.007265
      dx2y2   :     0.003429
      dxy     :     0.005015

 18 O s       :     3.826636  s :     3.826636
      pz      :     1.296402  p :     4.607391
      px      :     1.542419
      py      :     1.768571
      dz2     :     0.005707  d :     0.022968
      dxz     :     0.007424
      dyz     :     0.003945
      dx2y2   :     0.004071
      dxy     :     0.001821

 19 H s       :     0.727662  s :     0.727662
      pz      :     0.005423  p :     0.024322
      px      :     0.010883
      py      :     0.008016

 20 O s       :     3.860529  s :     3.860529
      pz      :     1.700012  p :     4.530416
      px      :     1.409546
      py      :     1.420858
      dz2     :     0.003742  d :     0.028330
      dxz     :     0.007506
      dyz     :     0.001886
      dx2y2   :     0.006348
      dxy     :     0.008849

 21 H s       :     0.860358  s :     0.860358
      pz      :     0.003158  p :     0.010817
      px      :     0.004333
      py      :     0.003326

 22 H s       :     0.731328  s :     0.731328
      pz      :     0.007556  p :     0.024511
      px      :     0.008897
      py      :     0.008058



                     *******************************
                     * LOEWDIN POPULATION ANALYSIS *
                     *******************************

----------------------
LOEWDIN ATOMIC CHARGES
----------------------
   0 C :   -0.074302
   1 C :   -0.070090
   2 C :   -0.074919
   3 H :    0.074144
   4 H :    0.072093
   5 C :   -0.087224
   6 C :   -0.125501
   7 H :    0.074045
   8 C :   -0.018640
   9 H :    0.073727
  10 C :   -0.067748
  11 H :    0.070665
  12 C :   -0.038258
  13 H :    0.078707
  14 H :    0.076710
  15 C :    0.123118
  16 H :    0.183546
  17 N :   -0.250686
  18 O :   -0.135579
  19 H :    0.127472
  20 O :   -0.216707
  21 H :    0.079924
  22 H :    0.125504

-------------------------------
LOEWDIN REDUCED ORBITAL CHARGES
-------------------------------
  0 C s       :     2.895984  s :     2.895984
      pz      :     1.058415  p :     3.092211
      px      :     1.053413
      py      :     0.980383
      dz2     :     0.024648  d :     0.086108
      dxz     :     0.032401
      dyz     :     0.011563
      dx2y2   :     0.010789
      dxy     :     0.006707

  1 C s       :     2.896498  s :     2.896498
      pz      :     1.050470  p :     3.086885
      px      :     1.063650
      py      :     0.972765
      dz2     :     0.024338  d :     0.086706
      dxz     :     0.027806
      dyz     :     0.004346
      dx2y2   :     0.015393
      dxy     :     0.014823

  2 C s       :     2.895086  s :     2.895086
      pz      :     1.049156  p :     3.093861
      px      :     1.055654
      py      :     0.989051
      dz2     :     0.024553  d :     0.085972
      dxz     :     0.027597
      dyz     :     0.004293
      dx2y2   :     0.015572
      dxy     :     0.013958

  3 H s       :     0.885141  s :     0.885141
      pz      :     0.011167  p :     0.040715
      px      :     0.021003
      py      :     0.008545

  4 H s       :     0.886802  s :     0.886802
      pz      :     0.026115  p :     0.041105
      px      :     0.006319
      py      :     0.008670

  5 C s       :     2.897379  s :     2.897379
      pz      :     1.051081  p :     3.103649
      px      :     1.054288
      py      :     0.998280
      dz2     :     0.024816  d :     0.086196
      dxz     :     0.032440
      dyz     :     0.011432
      dx2y2   :     0.010446
      dxy     :     0.007062

  6 C s       :     2.905547  s :     2.905547
      pz      :     1.071721  p :     3.138691
      px      :     1.040193
      py      :     1.026777
      dz2     :     0.014124  d :     0.081263
      dxz     :     0.017509
      dyz     :     0.014261
      dx2y2   :     0.017656
      dxy     :     0.017713

  7 H s       :     0.885203  s :     0.885203
      pz      :     0.026003  p :     0.040751
      px      :     0.006309
      py      :     0.008439

  8 C s       :     2.874012  s :     2.874012
      pz      :     1.055865  p :     3.039725
      px      :     1.032217
      py      :     0.951642
      dz2     :     0.028981  d :     0.104903
      dxz     :     0.036137
      dyz     :     0.013723
      dx2y2   :     0.013829
      dxy     :     0.012233

  9 H s       :     0.885439  s :     0.885439
      pz      :     0.011356  p :     0.040835
      px      :     0.021279
      py      :     0.008199

 10 C s       :     2.896182  s :     2.896182
      pz      :     1.059531  p :     3.084812
      px      :     1.054478
      py      :     0.970803
      dz2     :     0.024695  d :     0.086754
      dxz     :     0.032532
      dyz     :     0.011984
      dx2y2   :     0.010346
      dxy     :     0.007197

 11 H s       :     0.888125  s :     0.888125
      pz      :     0.011175  p :     0.041210
      px      :     0.020976
      py      :     0.009059

 12 C s       :     2.884154  s :     2.884154
      pz      :     0.980277  p :     3.023176
      px      :     1.032375
      py      :     1.010524
      dz2     :     0.025954  d :     0.130929
      dxz     :     0.030551
      dyz     :     0.029482
      dx2y2   :     0.027013
      dxy     :     0.017928

 13 H s       :     0.880750  s :     0.880750
      pz      :     0.022284  p :     0.040543
      px      :     0.007248
      py      :     0.011011

 14 H s       :     0.883271  s :     0.883271
      pz      :     0.011737  p :     0.040019
      px      :     0.016181
      py      :     0.012101

 15 C s       :     2.847098  s :     2.847098
      pz      :     0.906261  p :     2.730705
      px      :     1.039173
      py      :     0.785270
      dz2     :     0.093942  d :     0.299078
      dxz     :     0.095484
      dyz     :     0.036402
      dx2y2   :     0.038439
      dxy     :     0.034810

 16 H s       :     0.701075  s :     0.701075
      pz      :     0.030299  p :     0.115379
      px      :     0.058509
      py      :     0.026571

 17 N s       :     3.185235  s :     3.185235
      pz      :     1.153563  p :     4.007933
      px      :     1.174231
      py      :     1.680139
      dz2     :     0.008815  d :     0.057518
      dxz     :     0.021090
      dyz     :     0.014013
      dx2y2   :     0.006980
      dxy     :     0.006620

 18 O s       :     3.469903  s :     3.469903
      pz      :     1.338862  p :     4.614832
      px      :     1.545538
      py      :     1.730432
      dz2     :     0.018112  d :     0.050843
      dxz     :     0.017640
      dyz     :     0.007445
      dx2y2   :     0.006212
      dxy     :     0.001435

 19 H s       :     0.791181  s :     0.791181
      pz      :     0.016681  p :     0.081347
      px      :     0.038249
      py      :     0.026417

 20 O s       :     3.552336  s :     3.552336
      pz      :     1.696902  p :     4.605954
      px      :     1.501983
      py      :     1.407069
      dz2     :     0.008329  d :     0.058417
      dxz     :     0.017768
      dyz     :     0.002755
      dx2y2   :     0.017034
      dxy     :     0.012531

 21 H s       :     0.880393  s :     0.880393
      pz      :     0.011515  p :     0.039683
      px      :     0.016482
      py      :     0.011686

 22 H s       :     0.793303  s :     0.793303
      pz      :     0.025985  p :     0.081193
      px      :     0.030808
      py      :     0.024400



                      *****************************
                      * MAYER POPULATION ANALYSIS *
                      *****************************

  NA   - Mulliken gross atomic population
  ZA   - Total nuclear charge
  QA   - Mulliken gross atomic charge
  VA   - Mayer's total valence
  BVA  - Mayer's bonded valence
  FA   - Mayer's free valence

  ATOM       NA         ZA         QA         VA         BVA        FA
  0 C      6.0879     6.0000    -0.0879     3.9474     3.9474    -0.0000
  1 C      6.0897     6.0000    -0.0897     3.9423     3.9423    -0.0000
  2 C      6.1135     6.0000    -0.1135     3.9377     3.9377    -0.0000
  3 H      0.9080     1.0000     0.0920     0.9561     0.9561     0.0000
  4 H      0.9124     1.0000     0.0876     0.9592     0.9592     0.0000
  5 C      6.1361     6.0000    -0.1361     3.9493     3.9493     0.0000
  6 C      6.2628     6.0000    -0.2628     3.8497     3.8497     0.0000
  7 H      0.9081     1.0000     0.0919     0.9560     0.9560    -0.0000
  8 C      5.8940     6.0000     0.1060     3.9743     3.9743     0.0000
  9 H      0.9090     1.0000     0.0910     0.9562     0.9562    -0.0000
 10 C      6.0900     6.0000    -0.0900     3.9451     3.9451     0.0000
 11 H      0.9138     1.0000     0.0862     0.9625     0.9625     0.0000
 12 C      6.0220     6.0000    -0.0220     3.8594     3.8594     0.0000
 13 H      0.8822     1.0000     0.1178     0.9546     0.9546     0.0000
 14 H      0.8842     1.0000     0.1158     0.9590     0.9590     0.0000
 15 C      5.4776     6.0000     0.5224     3.9617     3.9617    -0.0000
 16 H      0.6806     1.0000     0.3194     0.9162     0.9162    -0.0000
 17 N      7.5727     7.0000    -0.5727     2.8796     2.8796    -0.0000
 18 O      8.4570     8.0000    -0.4570     2.0504     2.0504    -0.0000
 19 H      0.7520     1.0000     0.2480     0.9339     0.9339    -0.0000
 20 O      8.4193     8.0000    -0.4193     2.1154     2.1154    -0.0000
 21 H      0.8712     1.0000     0.1288     0.9500     0.9500    -0.0000
 22 H      0.7558     1.0000     0.2442     0.9357     0.9357    -0.0000

  Mayer bond orders larger than 0.100000
B(  0-C ,  1-C ) :   1.4526 B(  0-C ,  9-H ) :   0.9393 B(  0-C , 10-C ) :   1.4380 
B(  1-C ,  5-C ) :   1.4233 B(  1-C ,  7-H ) :   0.9376 B(  2-C ,  4-H ) :   0.9341 
B(  2-C ,  8-C ) :   1.4228 B(  2-C , 10-C ) :   1.4415 B(  3-H , 10-C ) :   0.9378 
B(  5-C ,  8-C ) :   1.4208 B(  5-C , 11-H ) :   0.9339 B(  6-C ,  8-C ) :   1.0001 
B(  6-C , 12-C ) :   0.9267 B(  6-C , 13-H ) :   0.9255 B(  6-C , 14-H ) :   0.9353 
B( 12-C , 15-C ) :   0.9158 B( 12-C , 17-N ) :   1.0536 B( 12-C , 21-H ) :   0.9221 
B( 15-C , 18-O ) :   1.0962 B( 15-C , 20-O ) :   1.9124 B( 16-H , 18-O ) :   0.8520 
B( 17-N , 19-H ) :   0.8891 B( 17-N , 22-H ) :   0.8910 

-------
TIMINGS
-------

Total SCF time: 0 days 0 hours 0 min 6 sec 

Total time                  ....       6.293 sec
Sum of individual times     ....       5.758 sec  ( 91.5%)

SCF preparation             ....       0.028 sec  (  0.4%)
Fock matrix formation       ....       5.657 sec  ( 89.9%)
  Startup                   ....       0.001 sec  (  0.0% of F)
  Split-RI-J                ....       2.329 sec  ( 41.2% of F)
  XC integration            ....       3.850 sec  ( 68.0% of F)
    Basis function eval.    ....       1.310 sec  ( 34.0% of XC)
    Density eval.           ....       0.874 sec  ( 22.7% of XC)
    XC-Functional eval.     ....       0.627 sec  ( 16.3% of XC)
    XC-Potential eval.      ....       0.950 sec  ( 24.7% of XC)
Diagonalization             ....       0.000 sec  (  0.0%)
Density matrix formation    ....       0.004 sec  (  0.1%)
Total Energy calculation    ....       0.001 sec  (  0.0%)
Population analysis         ....       0.004 sec  (  0.1%)
Orbital Transformation      ....       0.009 sec  (  0.1%)
Orbital Orthonormalization  ....       0.000 sec  (  0.0%)
DIIS solution               ....       0.045 sec  (  0.7%)
SOSCF solution              ....       0.010 sec  (  0.2%)
Finished LeanSCF after   6.3 sec

Maximum memory used throughout the entire LEANSCF-calculation: 24.7 MB



-------------------------------------------------------------------------------
                          DFT DISPERSION CORRECTION                            
-------------------------------------------------------------------------------
Active option DFTDOPT                   ...         2   
Final C6-coefficient scaling factor     ...     1.250
Final VDW-radii scaling factor          ...     1.100
Damping factor alpha                    ...    20.000
-------------------------   ----------------
Dispersion correction           -0.031753917
-------------------------   ----------------


-------------------------   --------------------
FINAL SINGLE POINT ENERGY      -554.415657134291
-------------------------   --------------------


------------------------------------------------------------------------------
                              ORCA PROPERTY CALCULATIONS
------------------------------------------------------------------------------

GBWName                                 ... 5.gbw
Number of atoms                         ...     23
Number of basis functions               ...    223
Max core memory                         ...   4096 MB

Electric properties:
Dipole moment                           ... YES
Quadrupole moment                       ...  NO
Static polarizability (Dipole/Dipole)   ...  NO
Static polarizability (Dipole/Quad.)    ...  NO
Static polarizability (Quad./Quad.)     ...  NO
Static polarizability (Velocity)        ...  NO
Static hyperpolarizability              ...  NO

Atomic electric properties:
Dipole moment                           ...  NO
Quadrupole moment                       ...  NO
Static polarizability                   ...  NO

Choice of electric origin               ... Center of mass
Position of electric origin             ...    -6.181308     3.080873     0.659268

General magnetic properties:
Magnetizability                         ...  NO

EPR properties:
g-Tensor (aka g-matrix)                 ...  NO
Zero-Field splitting spin-orbit         ...  NO
Zero-field splitting spin-spin          ...  NO
Hyperfine couplings                     ...  NO (   0 nuclei)
Quadrupole couplings                    ...  NO (   0 nuclei)
Contact density                         ...  NO (   0 nuclei)

NMR properties:
Chemical shifts                         ...  NO (   0 nuclei)
Spin-rotation constants                 ...  NO (   0 nuclei)
Spin-spin couplings                     ...  NO (   0 nuclei,    0 pairs)

Choice of magnetic origin               ... GIAO
Position of magnetic origin             ...     0.000000     0.000000     0.000000

Properties with geometric perturbations:
SCF Hessian                             ...  NO
IR spectrum                             ...  NO
VCD spectrum                            ...  NO
X-ray spectroscopy properties:
SCF XES/XAS/RIXS spectra                ...  NO

SCF SOC stabilization energy            ...  NO
Diagonal Born-Oppenheimer correction    ...  NO

-------------
DIPOLE MOMENT
-------------

Method             : SCF
Type of density    : Electron Density
Multiplicity       :   1
Irrep              :   0
Energy             :  -554.3839032174685144 Eh
Basis              : AO
                                X                 Y                 Z
Electronic contribution:      3.884436068       0.706491972       3.143749658
Nuclear contribution   :     -4.412260804      -1.189282263      -2.910911484
                        -----------------------------------------
Total Dipole Moment    :     -0.527824736      -0.482790290       0.232838174
                        -----------------------------------------
Magnitude (a.u.)       :      0.752262608
Magnitude (Debye)      :      1.912099594



--------------------
Rotational spectrum 
--------------------
 
Rotational constants in cm-1:             0.081586             0.015764             0.014351 
Rotational constants in MHz :          2445.879508           472.586921           430.226229 

Dipole components along the rotational axes: 
x,y,z [a.u.] :     0.449762     0.496119     0.342752 
x,y,z [Debye]:     1.143205     1.261035     0.871205 

 

Dipole moment calculation done in   0.0 sec 

Maximum memory used throughout the entire PROP-calculation: 14.4 MB

--------------------------------
SUGGESTED CITATIONS FOR THIS RUN
--------------------------------

Below you find a list of papers that are relevant to this ORCA run
We neither can nor want to force you to cite these papers, but we appreciate if you do
You receive ORCA, which is the product of decades of hard work by many enthusiastic individuals, for free
The only thing we kindly ask in return is that you cite our papers,
We deeply appreciate it, if you show your appreciation for ORCA by not just citing the generic ORCA reference.

Please note that relegating all ORCA citations to the supporting information does *not* help us.
SI sections are not indexed - citations you put there will not count into any citation statistics
But we need these citations in order to attract the funding resources that allow us to do what we are doing

Therefore, if you are a happy ORCA user, please consider citing a few of the papers listed below in the main body of your paper

In addition to the list printed below, the program has created the file 5.bibtex that contains the list in bibtex format
You can import this file easily into all common literature databanks and citation aid programs


List of essential papers. We consider these as the minimum necessary citations

  1. Neese, F.
     Software update: the ORCA program system, version 6.0
     WIRES Comput. Molec. Sci. 2025 15(1), e70019
     doi.org/10.1002/wcms.7019

List of papers to cite with high priority. The work reported in these papers was absolutely
necessary for this run to complete.
Our perspective: the developers of density functionals and basis sets usually get cited in chemistry papers
Good! But without the algorithms to do something with them, the functionals or basis sets would not do anything.
Hence, in our opinion, the algorithm design and method developments papers are equally worthy of getting cited

  1. Neese, F.
     An improvement of the resolution of the identity approximation for the formation of the Coulomb matrix
     J. Comp. Chem. 2003 24(14), 1740-1747
     doi.org/10.1002/jcc.10318
  2. Grimme, S.
     Semiempirical GGA-type density functional constructed with a long-range dispersion correction
     J.Comput.Chem. 2006 27(15), 1787-1799
     doi.org/10.1002/jcc.20495
  3. Neese, F.
     The SHARK Integral Generation and Digestion System
     J. Comp. Chem. 2022 44(3), 381
     doi.org/10.1002/jcc.26942

List of suggested additional citations. These are papers that are important in the 'surrounding' of 
of this run, or papers that preceded the highly important papers. If you like your results we are grateful for a citation.

  1. Neese, F.
     The ORCA program system
     WIRES Comput. Molec. Sci. 2012 2(1), 73-78
     doi.org/10.1002/wcms.81
  2. Neese, F.
     Software update: the ORCA program system, version 4.0
     WIRES Comput. Molec. Sci. 2018 8(1), 1-6
     doi.org/10.1002/wcms.1327
  3. Neese, F.; Wennmohs, F.; Becker, U.; Riplinger, C.
     The ORCA quantum chemistry program package
     J. Chem. Phys. 2020 152(22), 224108
     doi.org/10.1063/5.0004608
  4. Neese, F.
     Software update: The ORCA program system—Version 5.0
     WIRES Comput. Molec. Sci. 2022 12(1), e1606
     doi.org/10.1002/wcms.1606

List of optional additional citations

  1. Neese, F.
     Approximate second-order SCF convergence for spin unrestricted wavefunctions
     Chem. Phys. Lett. 2000 325(1-3), 93-98
     doi.org/10.1016/s0009-2614(00)00662-x

Timings for individual modules:

Sum of individual times          ...        7.307 sec (=   0.122 min)
Startup calculation              ...        0.570 sec (=   0.009 min)   7.8 %
SCF iterations                   ...        6.704 sec (=   0.112 min)  91.7 %
Property calculations            ...        0.034 sec (=   0.001 min)   0.5 %
                             ****ORCA TERMINATED NORMALLY****
TOTAL RUN TIME: 0 days 0 hours 0 minutes 7 seconds 350 msec
