
                                 *****************
                                 * O   R   C   A *
                                 *****************

                                            #,                                       
                                            ###                                      
                                            ####                                     
                                            #####                                    
                                            ######                                   
                                           ########,                                 
                                     ,,################,,,,,                         
                               ,,#################################,,                 
                          ,,##########################################,,             
                       ,#########################################, ''#####,          
                    ,#############################################,,   '####,        
                  ,##################################################,,,,####,       
                ,###########''''           ''''###############################       
              ,#####''   ,,,,##########,,,,          '''####'''          '####       
            ,##' ,,,,###########################,,,                        '##       
           ' ,,###''''                  '''############,,,                           
         ,,##''                                '''############,,,,        ,,,,,,###''
      ,#''                                            '''#######################'''  
     '                                                          ''''####''''         
             ,#######,   #######,   ,#######,      ##                                
            ,#'     '#,  ##    ##  ,#'     '#,    #''#        ,####,    ,#,          
            ##       ##  ##   ,#'  ##            #'  '#       #'       ,# #          
            ##       ##  #######   ##           ,######,      #####,      #          
            '#,     ,#'  ##    ##  '#,     ,#' ,#      #,     #,   #      #          
             '#######'   ##     ##  '#######'  #'      '#     '####' #    #          



                #########################################################
                #                        -***-                          #
                #          Department of theory and spectroscopy        #
                #                                                       #
                #                      Frank Neese                      #
                #                                                       #
                #     Directorship, Architecture, Infrastructure        #
                #                    SHARK, DRIVERS                     #
                #        Core code/Algorithms in most modules           #
                #                                                       #
                #        Max Planck Institute fuer Kohlenforschung      #
                #                Kaiser Wilhelm Platz 1                 #
                #                 D-45470 Muelheim/Ruhr                 #
                #                      Germany                          #
                #                                                       #
                #                  All rights reserved                  #
                #                        -***-                          #
                #########################################################


                         Program Version 6.1.0  -  RELEASE   -
                                (GIT: $679e74b$)
                          ($2025-06-10 18:02:51 +0200$)


 With contributions from (in alphabetic order):
[Max-Planck-Institut fuer Kohlenforschung]                               
  Daniel Aravena         : Magnetic Suceptibility                        
  Michael Atanasov       : Ab Initio Ligand Field Theory (pilot matlab implementation)
  Alexander A. Auer      : GIAO ZORA, VPT2 properties, NMR spectrum      
  Ute Becker             : All parallelization in ORCA, NUMFREQ, NUMCALC 
  Giovanni Bistoni       : ED, misc. LED, open-shell LED, HFLD           
  Dmytro Bykov           : pre 5.0 version of the SCF Hessian            
  Marcos Casanova-Páez   : Triplet and SCS-CIS(D). UHF-(DLPNO)-IP/EA/STEOM-CCSD. UHF-CVS-IP/STEOM-CCSD   
  Vijay G. Chilkuri      : MRCI spin determinant printing, contributions to CSF-ICE 
  Pauline Colinet        : FMM embedding                                 
  Dipayan Datta          : RHF DLPNO-CCSD density                        
  Achintya Kumar Dutta   : EOM-CC, STEOM-CC                              
  Nicolas Foglia         : Exact transition moments, OPA infrastructure, MCD improvements    
  Dmitry Ganyushin       : Spin-Orbit,Spin-Spin,Magnetic field MRCI      
  Miquel Garcia-Rates    : C-PCM and meta-GGA Hessian, CCSD/C-PCM, Gaussian charge scheme 
  Tiago L. C. Gouveia    : GS-ROHF, GS-ROCIS                             
  Yang Guo               : DLPNO-NEVPT2, F12-NEVPT2, CIM, IAO-localization        
  Andreas Hansen         : Spin unrestricted coupled pair/coupled cluster methods 
  Ingolf Harden          : AUTO-CI MPn and infrastructure                
  Benjamin Helmich-Paris : MC-RPA, TRAH-(SCF,CASSCF), AVAS, COSX integrals, SCF dyn. polar., MC-PDFT, srDFT 
  Lee Huntington         : MR-EOM, pCC                                   
  Robert Izsak           : Overlap fitted RIJCOSX, COSX-SCS-MP3, EOM     
  Riya Kayal             : Wick's Theorem for AUTO-CI, AUTO-CI UHF-CCSDT 
  Emily Kempfer          : AUTO-CI RHF CISDT and CCSDT, approximate NEVPT4
  Christian Kollmar      : KDIIS, OOCD, Brueckner-CCSD(T), CCSD density, CASPT2, CASPT2-K, improved NEVPT2 
  Axel Koslowski         : Symmetry handling                             
  Simone Kossmann        : meta-GGA functionals, TD-DFT gradient, OOMP2, (MP2 Hessian; deprecated post 5.0) 
  Lucas Lang             : DCDCAS, Hyperfine gauge corrections, ICE-SOC+SSC
  Marvin Lechner         : AUTO-CI (C++ implementation), FIC-MRCC        
  Spencer Leger          : CASSCF response                               
  Dagmar Lenk            : GEPOL surface, SMD, ORCA-2-JSON               
  Dimitrios Liakos       : Extrapolation schemes; Compound Job, Property file
  Dimitrios Manganas     : Further ROCIS development; embedding schemes. LFT, Crystal Embedding 
  Dimitrios Pantazis     : SARC Basis sets                               
  Anastasios Papadopoulos: AUTO-CI, single reference methods and gradients 
  Taras Petrenko         : pre 6.0 DFT Hessian and TD-DFT gradient,  ECA, NRVS 
  Petra Pikulova         : Analytic Raman intensities                    
  Peter Pinski           : DLPNO-MP2, DLPNO-MP2 Gradient                 
  Shashank Vittal Rao    : ES-AILFT, MagRelax                            
  Christoph Reimann      : Effective Core Potentials                     
  Marius Retegan         : Local ZFS, SOC                                
  Christoph Riplinger    : Optimizer, TS searches, QM/MM, DLPNO-CCSD(T), (RO)-DLPNO pert. Triples 
  Michael Roemelt        : Original ROCIS implementation, recursive CI coupling coefficients
  Masaaki Saitow         : Open-shell DLPNO-CCSD energy and density      
  Barbara Sandhoefer     : DKH picture change effects                    
  Yorick L. A. Schmerwitz: GMF and freeze-and-release deltaSCF, NEB S-IDPP initial path                    
  Kantharuban Sivalingam : CASSCF convergence/infrastructure, NEVPT2, NEVPT3, NEVPT4(SD), FIC-MRCI and CEPA variants
  Bernardo de Souza      : ESD, SOC TD-DFT                               
  Georgi L. Stoychev     : AutoAux, RI-MP2 NMR, DLPNO-MP2 response, X2C  
  Van Anh Tran           : RI-MP2 g-tensors                              
  Willem Van den Heuvel  : Paramagnetic NMR                              
  Zikuan Wang            : NOTCH, Electric field optimization            
  Frank Wennmohs         : Technical directorship and infrastructure     
  Hang Xu                : AUTO-CI-Response properties                   
                                                                         
[FACCTs GmbH]                                                            
  Markus Bursch, Nicolas Foglia, Miquel Garcia-Rates, Ingolf Harden, Hagen Neugebauer, Anastasios Papadopoulos, 
  Christoph Riplinger, Bernardo de Souza, Georgi L. Stoychev                                                    
                                                                 
  APM, various basis sets, CI-OPT, improved COSX, DLPNO-Multilevel,           
  DOCKER, DRACO, updates on ESD, Fragmentator, GOAT, IRC, LR-CPCM, L-BFGS, MBIS, meta-GGA TD-DFT gradient, ML-optimized integration grids, 
  MM, NACMEs, nearIR, NEB, NEB-TS, NL-DFT gradient (VV10), 2- and 3-layer-ONIOM, interface openCOSMO-RS, QMMM,   
  Crystal-QMMM, RESP, rigid body optimization, SF, symmetry and pop. for TD-DFT, various functionals, SOLVATOR                                   
                                                                         
[Other institutions]                                                     
  V. Asgeirsson          : NEB                                           
  Christoph Bannwarth    : sTDA-DFT, sTD-DFT, PBEh-3c, B97-3c, D3        
  Giovanni Bistoni       : ETS/NOCV, ADLD/ADEX, COVALED                  
  Martin Brehm           : Molecular dynamics                            
  Ronald Cardenas        : ETS/NOCV                                      
  Martina Colucci        : COVALED                                       
  Sebastian Ehlert       : rSCAN, r2SCAN, r2SCAN-3c, D4, dhf basis sets  
  Marvin Friede          : D4 for Fr, Ra, Ac-Lr                          
  Lars Goerigk           : TD-DFT with DH, B97 family of functionals     
  Stefan Grimme          : VdW corrections, initial TS optimization, DFT functionals, gCP, sTDA/sTD-DF 
  Waldemar Hujo          : DFT-NL                                        
  H. Jonsson             : NEB                                           
  Holger Kruse           : gCP                                           
  Marcel Mueller         : wB97X-3c, vDZP basis set                      
  Hagen Neugebauer       : wr2SCAN, Native XTB                           
  Gianluca Regni         : ADLD/ADEX                                     
  Tobias Risthaus        : pre 6.0 range-separated hybrid DFT and stability analysis
  Lukas Wittmann         : regularized MP2, r2SCAN double-hybrids, wr2SCAN        
                                                                         
We gratefully acknowledge several colleagues who have allowed us to      
interface, adapt or use parts of their codes:                            
  Ed Valeev, F. Pavosevic, A. Kumar             : LibInt (2-el integral package), F12 methods 
  Garnet Chan, S. Sharma, J. Yang, R. Olivares  : DMRG                   
  Ulf Ekstrom                                   : XCFun DFT Library      
  Mihaly Kallay                                 : mrcc  (arbitrary order and MRCC methods)
  Frank Weinhold                                : gennbo (NPA and NBO analysis)           
  Simon Mueller                                 : openCOSMO-RS                            
  Christopher J. Cramer and Donald G. Truhlar   : smd solvation model                     
  S Lehtola, MJT Oliveira, MAL Marques          : LibXC Library                           
  Liviu Ungur et al                             : ANISO software                          


 Your calculation uses the libint2 library for the computation of 2-el integrals
 For citations please refer to: http://libint.valeyev.net

 Your ORCA version has been built with support for libXC version: 7.0.0
 For citations please refer to: https://libxc.gitlab.io

 This ORCA versions uses:
   CBLAS   interface :  Fast vector & matrix operations
   LAPACKE interface :  Fast linear algebra routines
   SCALAPACK package :  Parallel linear algebra routines
   Shared memory     :  Shared parallel matrices
   BLAS/LAPACK       :  OpenBLAS 0.3.29  USE64BITINT DYNAMIC_ARCH NO_AFFINITY Haswell SINGLE_THREADED
        Core in use  :  Haswell
   Copyright (c) 2011-2014, The OpenBLAS Project


  ***********************************
  * Starting time: Thu Aug 14 01:01:44 2025
  * Host name:     CHEMLAB02
  * Process ID:    1542984
  * Working dir.:  /home/vivek/mm-project/vivek/MP2/h/2
  ***********************************



***************************************
The coordinates will be read from file: /home/vivek/mm-project/vivek/xtb-goat/h/H_CONF/2.xyz
***************************************


================================================================================

----- Orbital basis set information -----
Your calculation utilizes the basis: 6-31G**
   H-He, Li-Ne : W. J. Hehre, R. Ditchfield and J.A. Pople, J. Chem. Phys. 56, 2257 (1972).
                 Note: He and Ne are unpublished basis sets taken from the Gaussian program.
                 Note: Li and B from J. D. Dill and J. A. Pople, J. Chem. Phys. 62, 2921 (1975).
   Na - Ar     : M. M. Francl, W. J. Pietro, W. J. Hehre, J. S. Binkley, M. S. Gordon, 
                 D. J. DeFrees and J. A. Pople, J. Chem. Phys. 77, 3654 (1982).
   K - Zn      : V. A. Rassolov, J. A. Pople, M. A. Ratner, and T. L. Windus, J. Chem. Phys. 109, 1223 (1998).

================================================================================
                                        WARNINGS
                       Please study these warnings very carefully!
================================================================================


WARNING: No MP2 level density has been requested!
         To calculate MP2 level properties use
         %mp2 Density relaxed end
         or
         %mp2 Density unrelaxed end

WARNING: Post HF methods need fully converged wavefunctions
  ===> : Setting SCFConvForced true
         You can overwrite this default with %scf ConvForced false 


================================================================================
                                       INPUT FILE
================================================================================
NAME = 2.inp
|  1> ! MP2 6-31G** 
|  2> 
|  3> * xyzfile 0 1 /home/vivek/mm-project/vivek/xtb-goat/h/H_CONF/2.xyz
|  4> 
|  5>                          ****END OF INPUT****
================================================================================

                       ****************************
                       * Single Point Calculation *
                       ****************************

---------------------------------
CARTESIAN COORDINATES (ANGSTROEM)
---------------------------------
  C     -8.606099    2.078623    0.321795
  N     -7.249428    2.371592    0.780529
  H     -8.667391    3.380960   -1.191398
  C     -7.214992    3.760129    1.216924
  N     -9.069041    3.311458   -0.260177
  H     -8.588853    1.277125   -0.419678
  H     -9.267827    1.800152    1.157421
  C     -8.523853    4.340353    0.614848
  H     -6.872011    1.708938    1.445541
  H     -8.365654    5.277029    0.085479
  H     -9.248799    4.512289    1.416988
  C     -5.910701    4.384566    0.711804
  H     -7.242676    3.850468    2.312001
  C     -5.584318    3.941068   -0.720505
  H     -5.965176    5.472098    0.742399
  H     -5.100336    4.056180    1.363713
  C     -5.939998    2.464173   -0.958315
  H     -7.203009    4.663596   -1.723457
  N     -6.200882    4.821062   -1.696247
  H     -5.853867    4.596784   -2.623186
  O     -5.013554    1.631356   -0.419967
  H     -4.499604    4.014565   -0.858215
  H     -5.190021    0.728836   -0.723441
  O     -6.704200    2.093971   -1.826480

----------------------------
CARTESIAN COORDINATES (A.U.)
----------------------------
  NO LB      ZA    FRAG     MASS         X           Y           Z
   0 C     6.0000    0    12.011  -16.263171    3.928028    0.608105
   1 N     7.0000    0    14.007  -13.699433    4.481660    1.474986
   2 H     1.0000    0     1.008  -16.378995    6.389089   -2.251416
   3 C     6.0000    0    12.011  -13.634359    7.105614    2.299654
   4 N     7.0000    0    14.007  -17.138004    6.257748   -0.491663
   5 H     1.0000    0     1.008  -16.230581    2.413416   -0.793077
   6 H     1.0000    0     1.008  -17.513654    3.401794    2.187208
   7 C     6.0000    0    12.011  -16.107747    8.202079    1.161895
   8 H     1.0000    0     1.008  -12.986218    3.229424    2.731676
   9 H     1.0000    0     1.008  -15.808795    9.972140    0.161532
  10 H     1.0000    0     1.008  -17.477698    8.526991    2.677719
  11 C     6.0000    0    12.011  -11.169606    8.285630    1.345114
  12 H     1.0000    0     1.008  -13.686674    7.276330    4.369049
  13 C     6.0000    0    12.011  -10.552833    7.447540   -1.361558
  14 H     1.0000    0     1.008  -11.272549   10.340767    1.402931
  15 H     1.0000    0     1.008   -9.638237    7.665069    2.577045
  16 C     6.0000    0    12.011  -11.224969    4.656612   -1.810953
  17 H     1.0000    0     1.008  -13.611713    8.812918   -3.256861
  18 N     7.0000    0    14.007  -11.717969    9.110486   -3.205442
  19 H     1.0000    0     1.008  -11.062206    8.686663   -4.957104
  20 O     8.0000    0    15.999   -9.474244    3.082817   -0.793623
  21 H     1.0000    0     1.008   -8.503020    7.586429   -1.621791
  22 H     1.0000    0     1.008   -9.807718    1.377300   -1.367105
  23 O     8.0000    0    15.999  -12.669103    3.957032   -3.451547

--------------------------------
INTERNAL COORDINATES (ANGSTROEM)
--------------------------------
 C      0   0   0     0.000000000000     0.00000000     0.00000000
 N      1   0   0     1.461788454954     0.00000000     0.00000000
 H      1   2   0     1.997396527913    97.79012319     0.00000000
 C      2   1   3     1.455905786382   107.88816626    62.47914268
 N      3   1   2     1.016526555962    43.40931772   253.67355731
 H      1   2   3     1.092007199470   110.21384567    90.70743424
 H      1   2   3     1.101679899888   111.72113543   213.08693439
 C      5   3   1     1.456545969482   110.74116291   113.01348162
 H      2   1   3     1.011827815015   114.90906262   191.90432150
 H      8   5   3     1.087483347278   111.74324202    37.02648198
 H      8   5   3     1.094777371892   107.65303329   156.09682691
 C      4   2   1     1.531745275699   108.06496470   221.91618093
 H      4   2   1     1.099145255901   112.11229983   102.45361403
 C     12   4   2     1.534511241230   111.78313460    41.07996816
 H     12   4   2     1.089324890780   110.80254403   162.86110668
 H     12   4   2     1.090649687932   108.22947135   281.97959969
 C     14  12   4     1.537621800870   111.88601128   321.66165765
 H      3   1   2     2.018082013840   126.28987316   358.49728325
 N     18   3   1     1.014787154902   143.91371245    25.71146796
 H     19  18   3     1.014857883195   106.19373014   102.56894588
 O     17  14  12     1.357092534318   111.72640032   282.44029310
 H     14  12   4     1.095888113152   107.96488309   205.51930942
 H     21  17  14     0.968390425187   108.85773455   189.84837249
 O     17  14  12     1.214399123295   123.29395737   122.51532517

---------------------------
INTERNAL COORDINATES (A.U.)
---------------------------
 C      0   0   0     0.000000000000     0.00000000     0.00000000
 N      1   0   0     2.762379845591     0.00000000     0.00000000
 H      1   2   0     3.774532418600    97.79012319     0.00000000
 C      2   1   3     2.751263213054   107.88816626    62.47914268
 N      3   1   2     1.920956798626    43.40931772   253.67355731
 H      1   2   3     2.063594543268   110.21384567    90.70743424
 H      1   2   3     2.081873298034   111.72113543   213.08693439
 C      5   3   1     2.752472983787   110.74116291   113.01348162
 H      2   1   3     1.912077465063   114.90906262   191.90432150
 H      8   5   3     2.055045701556   111.74324202    37.02648198
 H      8   5   3     2.068829410490   107.65303329   156.09682691
 C      4   2   1     2.894579077999   108.06496470   221.91618093
 H      4   2   1     2.077083515052   112.11229983   102.45361403
 C     12   4   2     2.899805995348   111.78313460    41.07996816
 H     12   4   2     2.058525714438   110.80254403   162.86110668
 H     12   4   2     2.061029218238   108.22947135   281.97959969
 C     14  12   4     2.905684101192   111.88601128   321.66165765
 H      3   1   2     3.813622321950   126.28987316   358.49728325
 N     18   3   1     1.917669806985   143.91371245    25.71146796
 H     19  18   3     1.917803464089   106.19373014   102.56894588
 O     17  14  12     2.564533228251   111.72640032   282.44029310
 H     14  12   4     2.070928407277   107.96488309   205.51930942
 H     21  17  14     1.829992694315   108.85773455   189.84837249
 O     17  14  12     2.294881760302   123.29395737   122.51532517

---------------------
BASIS SET INFORMATION
---------------------
There are 4 groups of distinct atoms

 Group   1 Type C   : 10s4p1d contracted to 3s2p1d pattern {631/31/1}
 Group   2 Type N   : 10s4p1d contracted to 3s2p1d pattern {631/31/1}
 Group   3 Type H   : 4s1p contracted to 2s1p pattern {31/1}
 Group   4 Type O   : 10s4p1d contracted to 3s2p1d pattern {631/31/1}

Atom   0C    basis set group =>   1
Atom   1N    basis set group =>   2
Atom   2H    basis set group =>   3
Atom   3C    basis set group =>   1
Atom   4N    basis set group =>   2
Atom   5H    basis set group =>   3
Atom   6H    basis set group =>   3
Atom   7C    basis set group =>   1
Atom   8H    basis set group =>   3
Atom   9H    basis set group =>   3
Atom  10H    basis set group =>   3
Atom  11C    basis set group =>   1
Atom  12H    basis set group =>   3
Atom  13C    basis set group =>   1
Atom  14H    basis set group =>   3
Atom  15H    basis set group =>   3
Atom  16C    basis set group =>   1
Atom  17H    basis set group =>   3
Atom  18N    basis set group =>   2
Atom  19H    basis set group =>   3
Atom  20O    basis set group =>   4
Atom  21H    basis set group =>   3
Atom  22H    basis set group =>   3
Atom  23O    basis set group =>   4
------------------------------------------------------------------------------
                             ORCA STARTUP CALCULATIONS
------------------------------------------------------------------------------
------------------------------------------------------------------------------
                   ___                                                        
                  /   \      - P O W E R E D   B Y -                         
                 /     \                                                     
                 |  |  |   _    _      __       _____    __    __             
                 |  |  |  | |  | |    /  \     |  _  \  |  |  /  |          
                  \  \/   | |  | |   /    \    | | | |  |  | /  /          
                 / \  \   | |__| |  /  /\  \   | |_| |  |  |/  /          
                |  |  |   |  __  | /  /__\  \  |    /   |      \           
                |  |  |   | |  | | |   __   |  |    \   |  |\   \          
                \     /   | |  | | |  |  |  |  | |\  \  |  | \   \       
                 \___/    |_|  |_| |__|  |__|  |_| \__\ |__|  \__/        
                                                                              
                      - O R C A' S   B I G   F R I E N D -                    
                                      &                                       
                       - I N T E G R A L  F E E D E R -                       
                                                                              
 v1 FN, 2020, v2 2021, v3 2022-2024                                           
------------------------------------------------------------------------------


----------------------
SHARK INTEGRAL PACKAGE
----------------------

Number of atoms                             ...     24
Number of basis functions                   ...    219
Number of shells                            ...    105
Maximum angular momentum                    ...      2
Integral batch strategy                     ... SHARK/LIBINT Hybrid
RI-J (if used) integral strategy            ... SPLIT-RIJ (Revised 2003 algorithm where possible)
Printlevel                                  ...      1
Contraction scheme used                     ... SEGMENTED contraction
Prescreening option                         ... SCHWARTZ
   Thresh                                   ... 1.000e-10
   Tcut                                     ... 1.000e-11
   Tpresel                                  ... 1.000e-11 
Coulomb Range Separation                    ... NOT USED
Exchange Range Separation                   ... NOT USED
Multipole approximations                    ... NOT USED
Finite Nucleus Model                        ... NOT USED
CABS basis                                  ... NOT available
Auxiliary Coulomb fitting basis             ... NOT available
Auxiliary J/K fitting basis                 ... NOT available
Auxiliary Correlation fitting basis         ... NOT available
Auxiliary 'external' fitting basis          ... NOT available

Checking pre-screening integrals            ... done (  0.0 sec) Dimension = 105
   => SHARK Basis and OBASIS are compatible. Storing Pre-screening
Shell pair information
Shell pair cut-off parameter TPreSel        ...   1.0e-11
Total number of shell pairs                 ...      5565
Shell pairs after pre-screening             ...      5112
Total number of primitive shell pairs       ...     26835
Primitive shell pairs kept                  ...     15988
          la=0 lb=0:   1625 shell pairs
          la=1 lb=0:   1881 shell pairs
          la=1 lb=1:    567 shell pairs
          la=2 lb=0:    611 shell pairs
          la=2 lb=1:    362 shell pairs
          la=2 lb=2:     66 shell pairs

Checking whether 4 symmetric matrices of dimension 219 fit in memory
:Max Core in MB      =   4096.00
 MB in use           =      8.05
 MB left             =   4087.95
 MB needed           =      0.74
 Data fit in memory  = YES
Calculating Nuclear repulsion               ... done (  0.0 sec) ENN=    721.644287811114 Eh

Diagonalization of the overlap matrix:
Smallest eigenvalue                        ... 2.438e-03
Time for diagonalization                   ...    0.003 sec
Threshold for overlap eigenvalues          ... 1.000e-07
Number of eigenvalues below threshold      ... 0
Time for construction of square roots      ...    0.001 sec
Total time needed                          ...    0.004 sec

-------------------
DFT GRID GENERATION
-------------------

General Integration Accuracy     IntAcc      ... 4.388
Radial Grid Type                 RadialGrid  ... OptM3 with GC (2021)
Angular Grid (max. ang.)         AngularGrid ... 4 (Lebedev-302)
Angular grid pruning method      GridPruning ... 4 (adaptive)
Weight generation scheme         WeightScheme... mBecke (2022)
Basis function cutoff            BFCut       ... 1.0000e-10
Integration weight cutoff        WCut        ... 1.0000e-14
Partially contracted basis set               ... off
Rotationally invariant grid construction     ... off
Angular grids for H and He will be reduced by one unit

Total number of grid points                  ...   107015
Total number of batches                      ...     1683
Average number of points per batch           ...       63
Average number of grid points per atom       ...     4459
Grids setup in   0.5 sec
Initializing property integral containers    ... done (  0.0 sec)

SHARK setup successfully completed in   0.5 seconds

Maximum memory used throughout the entire STARTUP-calculation: 44.2 MB
-------------------------------------------------------------------------------
                                 ORCA GUESS
                   Start orbitals & Density for SCF / CASSCF
-------------------------------------------------------------------------------

------------
SCF SETTINGS
------------
Hamiltonian:
 Ab initio Hamiltonian  Method          .... Hartree-Fock(GTOs)


General Settings:
 Integral files         IntName         .... 2
 Hartree-Fock type      HFTyp           .... RHF
 Total Charge           Charge          ....    0
 Multiplicity           Mult            ....    1
 Number of Electrons    NEL             ....   86
 Basis Dimension        Dim             ....  219
 Nuclear Repulsion      ENuc            ....    721.6442878111 Eh

Convergence Acceleration:
 AO-DIIS                CNVDIIS         .... on
   Start iteration      DIISMaxIt       ....    12
   Startup error        DIISStart       ....  0.200000
   # of expansion vecs  DIISMaxEq       ....     5
   Bias factor          DIISBfac        ....   1.050
   Max. coefficient     DIISMaxC        ....  10.000
 MO-DIIS                CNVKDIIS        .... off
 Trust-Rad. Augm. Hess. CNVTRAH         .... auto
   Auto Start mean grad. ratio tolernc. ....  1.125000
   Auto Start start iteration           ....    50
   Auto Start num. interpolation iter.  ....    10
   Max. Number of Micro iterations      ....    24
   Max. Number of Macro iterations      .... Maxiter - #DIIS iter
   Number of Davidson start vectors     ....     2
   Converg. threshold    (grad. norm)   ....   5.000e-05
   Grad. Scal. Fac. for Micro threshold ....   0.100
   Minimum threshold for Micro iter.    ....   1.000e-02
   NR start threshold (gradient norm)   ....   1.000e-04
   Initial trust radius                 ....   0.400
   Minimum AH scaling param. (alpha)    ....   1.000
   Maximum AH scaling param. (alpha)    .... 1000.000
   Quad. conv. algorithm                .... NR
   White noise on init. David. guess    .... on
   Maximum white noise                  ....   0.010
   Pseudo random numbers                .... off
   Inactive MOs                         .... canonical
   Orbital update algorithm             .... Taylor
   Preconditioner                       .... Diag
   Full preconditioner red. dimension   ....   250
 SOSCF                 CNVSOSCF           .... on
   Start iteration     SOSCFMaxIt         ....   150
   Startup grad/error  SOSCFStart         ....  0.003300
   Hessian update      SOSCFHessUp        .... L-BFGS
   Autom. constraints  SOSCFAutoConstrain .... off
 Level Shifting         CNVShift        .... on
   Level shift para.    LevelShift      ....    0.2500
   Turn off err/grad.   ShiftErr        ....    0.0010
 Zerner damping         CNVZerner       .... off
 Static damping         CNVDamp         .... on
   Fraction old density DampFac         ....    0.7000
   Max. Damping (<1)    DampMax         ....    0.9800
   Min. Damping (>=0)   DampMin         ....    0.0000
   Turn off err/grad.   DampErr         ....    0.1000

SCF Procedure:
 Maximum # iterations   MaxIter         ....   125
 SCF integral mode      SCFMode         .... Direct
   Integral package                     .... SHARK and LIBINT hybrid scheme
 Reset frequency        DirectResetFreq ....    20
 Integral Threshold     Thresh          ....  1.000e-10 Eh
 Primitive CutOff       TCut            ....  1.000e-11 Eh

Convergence Tolerance:
 Convergence Check Mode ConvCheckMode   .... Total+1el-Energy
 Convergence forced     ConvForced      .... 1
 Energy Change          TolE            ....  1.000e-06 Eh
 1-El. energy change                    ....  1.000e-03 Eh
 Orbital Gradient       TolG            ....  5.000e-05
 Orbital Rotation angle TolX            ....  5.000e-05
 DIIS Error             TolErr          ....  1.000e-06

------------------------------
INITIAL GUESS: MODEL POTENTIAL
------------------------------
Loading Hartree-Fock densities                     ... done
Calculating cut-offs                               ... done
Initializing the effective Hamiltonian             ... done
Setting up the integral package (SHARK)            ... done
Starting the Coulomb interaction                   ... done (   0.1 sec)
Making the grid                                    ... done (   0.1 sec)
Mapping shells                                     ... done
Starting the XC term evaluation                    ... done (   0.1 sec)
Transforming the Hamiltonian                       ... done (   0.0 sec)
Diagonalizing the Hamiltonian                      ... done (   0.0 sec)
Back transforming the eigenvectors                 ... done (   0.0 sec)
Now organizing SCF variables                       ... done
                      ------------------
                      INITIAL GUESS DONE (   0.3 sec)
                      ------------------
             **** ENERGY FILE WAS UPDATED (2.en.tmp) ****
Finished Guess after   0.3 sec
Maximum memory used throughout the entire GUESS-calculation: 14.6 MB

-------------------------------------------------------------------------------------------
                                      ORCA LEAN-SCF
                              memory conserving SCF solver
-------------------------------------------------------------------------------------------

----------------------------------------D-I-I-S--------------------------------------------
Iteration    Energy (Eh)           Delta-E    RMSDP     MaxDP     DIISErr   Damp  Time(sec)
-------------------------------------------------------------------------------------------
               ***  Starting incremental Fock matrix formation  ***
    1    -547.3806618266011128     0.00e+00  2.36e-03  6.27e-02  2.45e-01  0.700   3.6
    2    -547.5479148227524320    -1.67e-01  1.76e-03  4.45e-02  1.53e-01  0.700   3.3
                               ***Turning on AO-DIIS***
    3    -547.6460517462966209    -9.81e-02  9.78e-04  2.12e-02  8.88e-02  0.700   3.3
    4    -547.7081632167947873    -6.21e-02  2.30e-03  4.72e-02  6.10e-02  0.000   3.2
    5    -547.8472300268023218    -1.39e-01  2.72e-04  4.73e-03  4.96e-03  0.000   3.3
                              *** Initializing SOSCF ***
---------------------------------------S-O-S-C-F--------------------------------------
Iteration    Energy (Eh)           Delta-E    RMSDP     MaxDP     MaxGrad    Time(sec)
--------------------------------------------------------------------------------------
    6    -547.8478265618952037    -5.97e-04  1.43e-04  2.58e-03  2.51e-03     3.1
               *** Restarting incremental Fock matrix formation ***
    7    -547.8479563903769076    -1.30e-04  7.81e-05  1.83e-03  1.26e-03     3.5
    8    -547.8479877364376307    -3.13e-05  7.48e-05  1.98e-03  4.67e-04     2.8
    9    -547.8479967323545452    -9.00e-06  1.36e-05  2.89e-04  1.87e-04     2.8
   10    -547.8479976469596977    -9.15e-07  4.82e-06  1.18e-04  3.21e-05     2.5
                 **** Energy Check signals convergence ****

               *****************************************************
               *                     SUCCESS                       *
               *           SCF CONVERGED AFTER  10 CYCLES          *
               *****************************************************

             **** ENERGY FILE WAS UPDATED (2.en.tmp) ****

----------------
TOTAL SCF ENERGY
----------------

Total Energy       :       -547.84799772776830 Eh          -14907.70191 eV

Components:
Nuclear Repulsion  :        721.64428781111440 Eh           19636.93939 eV
Electronic Energy  :      -1269.49228553888270 Eh          -34544.64131 eV
One Electron Energy:      -2181.61665752844237 Eh          -59364.80730 eV
Two Electron Energy:        912.12437198955968 Eh           24820.16599 eV

Virial components:
Potential Energy   :      -1095.23901770657380 Eh          -29802.96883 eV
Kinetic Energy     :        547.39101997880550 Eh           14895.26691 eV
Virial Ratio       :          2.00083482872806

---------------
SCF CONVERGENCE
---------------

  Last Energy change         ...    9.1461e-07  Tolerance :   1.0000e-06
  Last MAX-Density change    ...    1.1768e-04  Tolerance :   1.0000e-05
  Last RMS-Density change    ...    4.8235e-06  Tolerance :   1.0000e-06
  Last DIIS Error            ...    2.5074e-03  Tolerance :   1.0000e-06
  Last Orbital Gradient      ...    3.2053e-05  Tolerance :   5.0000e-05
  Last Orbital Rotation      ...    6.0220e-05  Tolerance :   5.0000e-05


----------------
ORBITAL ENERGIES
----------------

  NO   OCC          E(Eh)            E(eV) 
   0   2.0000     -20.592456      -560.3492 
   1   2.0000     -20.518431      -558.3349 
   2   2.0000     -15.560087      -423.4115 
   3   2.0000     -15.544507      -422.9875 
   4   2.0000     -15.543760      -422.9672 
   5   2.0000     -11.375772      -309.5505 
   6   2.0000     -11.275694      -306.8272 
   7   2.0000     -11.264306      -306.5173 
   8   2.0000     -11.262383      -306.4650 
   9   2.0000     -11.252049      -306.1838 
  10   2.0000     -11.225597      -305.4640 
  11   2.0000      -1.439854       -39.1804 
  12   2.0000      -1.334132       -36.3036 
  13   2.0000      -1.283417       -34.9236 
  14   2.0000      -1.191197       -32.4141 
  15   2.0000      -1.153903       -31.3993 
  16   2.0000      -1.047618       -28.5071 
  17   2.0000      -0.975489       -26.5444 
  18   2.0000      -0.899474       -24.4759 
  19   2.0000      -0.845376       -23.0039 
  20   2.0000      -0.806949       -21.9582 
  21   2.0000      -0.772085       -21.0095 
  22   2.0000      -0.722101       -19.6494 
  23   2.0000      -0.699371       -19.0308 
  24   2.0000      -0.678300       -18.4575 
  25   2.0000      -0.672224       -18.2922 
  26   2.0000      -0.653018       -17.7695 
  27   2.0000      -0.633783       -17.2461 
  28   2.0000      -0.607572       -16.5329 
  29   2.0000      -0.600792       -16.3484 
  30   2.0000      -0.566860       -15.4250 
  31   2.0000      -0.562441       -15.3048 
  32   2.0000      -0.549696       -14.9580 
  33   2.0000      -0.534170       -14.5355 
  34   2.0000      -0.524512       -14.2727 
  35   2.0000      -0.504660       -13.7325 
  36   2.0000      -0.495789       -13.4911 
  37   2.0000      -0.474261       -12.9053 
  38   2.0000      -0.461007       -12.5446 
  39   2.0000      -0.427865       -11.6428 
  40   2.0000      -0.399812       -10.8794 
  41   2.0000      -0.383926       -10.4472 
  42   2.0000      -0.367258        -9.9936 
  43   0.0000       0.202527         5.5110 
  44   0.0000       0.217530         5.9193 
  45   0.0000       0.229294         6.2394 
  46   0.0000       0.233698         6.3592 
  47   0.0000       0.266470         7.2510 
  48   0.0000       0.272935         7.4269 
  49   0.0000       0.282297         7.6817 
  50   0.0000       0.294642         8.0176 
  51   0.0000       0.310006         8.4357 
  52   0.0000       0.320553         8.7227 
  53   0.0000       0.334912         9.1134 
*Only the first 10 virtual orbitals were printed.

                    ********************************
                    * MULLIKEN POPULATION ANALYSIS *
                    ********************************

-----------------------
MULLIKEN ATOMIC CHARGES
-----------------------
   0 C :    0.181258
   1 N :   -0.746474
   2 H :    0.293169
   3 C :    0.060376
   4 N :   -0.633110
   5 H :    0.148923
   6 H :    0.109889
   7 C :   -0.071605
   8 H :    0.292780
   9 H :    0.138783
  10 H :    0.133591
  11 C :   -0.207272
  12 H :    0.121014
  13 C :   -0.036176
  14 H :    0.144952
  15 H :    0.128057
  16 C :    0.889710
  17 H :    0.265616
  18 N :   -0.678461
  19 H :    0.279105
  20 O :   -0.668189
  21 H :    0.161066
  22 H :    0.358289
  23 O :   -0.665291
Sum of atomic charges:   -0.0000000

--------------------------------
MULLIKEN REDUCED ORBITAL CHARGES
--------------------------------
  0 C s       :     3.122201  s :     3.122201
      pz      :     0.996724  p :     2.615421
      px      :     0.737450
      py      :     0.881246
      dz2     :     0.008647  d :     0.081120
      dxz     :     0.019344
      dyz     :     0.018398
      dx2y2   :     0.022678
      dxy     :     0.012053

  1 N s       :     3.645722  s :     3.645722
      pz      :     1.553632  p :     4.063097
      px      :     1.353954
      py      :     1.155510
      dz2     :     0.004656  d :     0.037655
      dxz     :     0.004037
      dyz     :     0.010980
      dx2y2   :     0.011914
      dxy     :     0.006070

  2 H s       :     0.680443  s :     0.680443
      pz      :     0.014534  p :     0.026388
      px      :     0.008308
      py      :     0.003546

  3 C s       :     3.172579  s :     3.172579
      pz      :     1.022322  p :     2.698491
      px      :     0.934703
      py      :     0.741465
      dz2     :     0.018365  d :     0.068553
      dxz     :     0.008102
      dyz     :     0.010160
      dx2y2   :     0.018649
      dxy     :     0.013277

  4 N s       :     3.625917  s :     3.625917
      pz      :     1.154023  p :     3.965019
      px      :     1.741948
      py      :     1.069048
      dz2     :     0.006344  d :     0.042174
      dxz     :     0.011105
      dyz     :     0.009765
      dx2y2   :     0.005165
      dxy     :     0.009794

  5 H s       :     0.838753  s :     0.838753
      pz      :     0.005669  p :     0.012324
      px      :     0.001241
      py      :     0.005413

  6 H s       :     0.878605  s :     0.878605
      pz      :     0.005665  p :     0.011506
      px      :     0.004268
      py      :     0.001573

  7 C s       :     3.199426  s :     3.199426
      pz      :     0.967991  p :     2.809567
      px      :     0.921194
      py      :     0.920383
      dz2     :     0.006194  d :     0.062612
      dxz     :     0.016973
      dyz     :     0.016105
      dx2y2   :     0.013830
      dxy     :     0.009510

  8 H s       :     0.681733  s :     0.681733
      pz      :     0.009896  p :     0.025488
      px      :     0.006699
      py      :     0.008892

  9 H s       :     0.848641  s :     0.848641
      pz      :     0.003225  p :     0.012576
      px      :     0.001940
      py      :     0.007411

 10 H s       :     0.854458  s :     0.854458
      pz      :     0.005345  p :     0.011951
      px      :     0.005130
      py      :     0.001476

 11 C s       :     3.235549  s :     3.235549
      pz      :     0.915936  p :     2.924864
      px      :     0.961944
      py      :     1.046984
      dz2     :     0.011136  d :     0.046859
      dxz     :     0.011881
      dyz     :     0.005373
      dx2y2   :     0.012598
      dxy     :     0.005870

 12 H s       :     0.867017  s :     0.867017
      pz      :     0.009074  p :     0.011970
      px      :     0.001621
      py      :     0.001275

 13 C s       :     3.209112  s :     3.209112
      pz      :     0.896020  p :     2.757667
      px      :     1.044084
      py      :     0.817562
      dz2     :     0.018345  d :     0.069398
      dxz     :     0.009616
      dyz     :     0.013481
      dx2y2   :     0.021128
      dxy     :     0.006828

 14 H s       :     0.842417  s :     0.842417
      pz      :     0.001600  p :     0.012631
      px      :     0.001713
      py      :     0.009318

 15 H s       :     0.859383  s :     0.859383
      pz      :     0.004274  p :     0.012560
      px      :     0.005890
      py      :     0.002395

 16 C s       :     2.935459  s :     2.935459
      pz      :     0.611767  p :     2.029968
      px      :     0.607331
      py      :     0.810870
      dz2     :     0.030463  d :     0.144863
      dxz     :     0.024751
      dyz     :     0.027050
      dx2y2   :     0.028688
      dxy     :     0.033910

 17 H s       :     0.708347  s :     0.708347
      pz      :     0.003954  p :     0.026037
      px      :     0.015093
      py      :     0.006990

 18 N s       :     3.602012  s :     3.602012
      pz      :     1.165969  p :     4.041561
      px      :     1.187489
      py      :     1.688103
      dz2     :     0.009339  d :     0.034888
      dxz     :     0.003848
      dyz     :     0.008906
      dx2y2   :     0.007657
      dxy     :     0.005138

 19 H s       :     0.694919  s :     0.694919
      pz      :     0.013724  p :     0.025976
      px      :     0.005437
      py      :     0.006814

 20 O s       :     3.850480  s :     3.850480
      pz      :     1.797640  p :     4.792807
      px      :     1.683404
      py      :     1.311763
      dz2     :     0.003223  d :     0.024902
      dxz     :     0.004800
      dyz     :     0.005005
      dx2y2   :     0.005375
      dxy     :     0.006500

 21 H s       :     0.826703  s :     0.826703
      pz      :     0.001474  p :     0.012231
      px      :     0.009190
      py      :     0.001567

 22 H s       :     0.600114  s :     0.600114
      pz      :     0.010128  p :     0.041597
      px      :     0.007827
      py      :     0.023642

 23 O s       :     3.884672  s :     3.884672
      pz      :     1.459115  p :     4.750021
      px      :     1.509381
      py      :     1.781524
      dz2     :     0.009478  d :     0.030598
      dxz     :     0.007908
      dyz     :     0.004775
      dx2y2   :     0.004409
      dxy     :     0.004029



                     *******************************
                     * LOEWDIN POPULATION ANALYSIS *
                     *******************************

----------------------
LOEWDIN ATOMIC CHARGES
----------------------
   0 C :    0.035282
   1 N :   -0.206352
   2 H :    0.128318
   3 C :   -0.008022
   4 N :   -0.236108
   5 H :    0.073162
   6 H :    0.047349
   7 C :   -0.042379
   8 H :    0.133563
   9 H :    0.068539
  10 H :    0.064811
  11 C :   -0.112397
  12 H :    0.054889
  13 C :   -0.021703
  14 H :    0.076329
  15 H :    0.068808
  16 C :    0.246856
  17 H :    0.121513
  18 N :   -0.277744
  19 H :    0.133744
  20 O :   -0.238261
  21 H :    0.083525
  22 H :    0.189987
  23 O :   -0.383708

-------------------------------
LOEWDIN REDUCED ORBITAL CHARGES
-------------------------------
  0 C s       :     2.870755  s :     2.870755
      pz      :     1.039510  p :     2.931223
      px      :     0.905390
      py      :     0.986323
      dz2     :     0.017149  d :     0.162741
      dxz     :     0.038828
      dyz     :     0.034577
      dx2y2   :     0.046892
      dxy     :     0.025296

  1 N s       :     3.166141  s :     3.166141
      pz      :     1.477603  p :     3.963341
      px      :     1.328312
      py      :     1.157426
      dz2     :     0.008065  d :     0.076871
      dxz     :     0.010244
      dyz     :     0.019414
      dx2y2   :     0.024830
      dxy     :     0.014318

  2 H s       :     0.787043  s :     0.787043
      pz      :     0.044322  p :     0.084639
      px      :     0.028798
      py      :     0.011519

  3 C s       :     2.875013  s :     2.875013
      pz      :     1.051696  p :     2.992323
      px      :     1.032937
      py      :     0.907690
      dz2     :     0.034216  d :     0.140686
      dxz     :     0.015137
      dyz     :     0.023364
      dx2y2   :     0.038854
      dxy     :     0.029115

  4 N s       :     3.175621  s :     3.175621
      pz      :     1.160810  p :     3.979386
      px      :     1.690034
      py      :     1.128543
      dz2     :     0.015499  d :     0.081101
      dxz     :     0.014889
      dyz     :     0.022726
      dx2y2   :     0.011144
      dxy     :     0.016843

  5 H s       :     0.887308  s :     0.887308
      pz      :     0.017615  p :     0.039530
      px      :     0.004389
      py      :     0.017526

  6 H s       :     0.915239  s :     0.915239
      pz      :     0.017093  p :     0.037412
      px      :     0.013432
      py      :     0.006886

  7 C s       :     2.887384  s :     2.887384
      pz      :     1.021735  p :     3.033268
      px      :     1.011845
      py      :     0.999688
      dz2     :     0.012074  d :     0.121726
      dxz     :     0.032892
      dyz     :     0.030892
      dx2y2   :     0.026821
      dxy     :     0.019048

  8 H s       :     0.780757  s :     0.780757
      pz      :     0.034893  p :     0.085680
      px      :     0.022959
      py      :     0.027828

  9 H s       :     0.891425  s :     0.891425
      pz      :     0.010932  p :     0.040035
      px      :     0.006541
      py      :     0.022562

 10 H s       :     0.896427  s :     0.896427
      pz      :     0.016612  p :     0.038762
      px      :     0.015622
      py      :     0.006529

 11 C s       :     2.897550  s :     2.897550
      pz      :     1.015523  p :     3.124978
      px      :     1.040755
      py      :     1.068700
      dz2     :     0.022057  d :     0.089869
      dxz     :     0.023272
      dyz     :     0.010516
      dx2y2   :     0.022860
      dxy     :     0.011164

 12 H s       :     0.906195  s :     0.906195
      pz      :     0.026532  p :     0.038916
      px      :     0.006798
      py      :     0.005586

 13 C s       :     2.871686  s :     2.871686
      pz      :     0.994284  p :     3.011444
      px      :     1.045676
      py      :     0.971484
      dz2     :     0.037132  d :     0.138573
      dxz     :     0.018486
      dyz     :     0.027737
      dx2y2   :     0.041610
      dxy     :     0.013608

 14 H s       :     0.882969  s :     0.882969
      pz      :     0.006293  p :     0.040702
      px      :     0.006712
      py      :     0.027697

 15 H s       :     0.891038  s :     0.891038
      pz      :     0.013608  p :     0.040154
      px      :     0.017956
      py      :     0.008591

 16 C s       :     2.858283  s :     2.858283
      pz      :     0.793317  p :     2.578728
      px      :     0.813382
      py      :     0.972028
      dz2     :     0.061614  d :     0.316133
      dxz     :     0.060219
      dyz     :     0.058558
      dx2y2   :     0.060907
      dxy     :     0.074835

 17 H s       :     0.796126  s :     0.796126
      pz      :     0.012246  p :     0.082361
      px      :     0.046437
      py      :     0.023678

 18 N s       :     3.187332  s :     3.187332
      pz      :     1.178426  p :     4.028776
      px      :     1.189440
      py      :     1.660909
      dz2     :     0.017825  d :     0.061636
      dxz     :     0.009056
      dyz     :     0.013892
      dx2y2   :     0.013302
      dxy     :     0.007561

 19 H s       :     0.784796  s :     0.784796
      pz      :     0.041575  p :     0.081460
      px      :     0.016251
      py      :     0.023635

 20 O s       :     3.466724  s :     3.466724
      pz      :     1.761355  p :     4.725115
      px      :     1.667103
      py      :     1.296657
      dz2     :     0.005461  d :     0.046422
      dxz     :     0.007252
      dyz     :     0.008508
      dx2y2   :     0.012386
      dxy     :     0.012815

 21 H s       :     0.876951  s :     0.876951
      pz      :     0.006446  p :     0.039524
      px      :     0.027253
      py      :     0.005825

 22 H s       :     0.688518  s :     0.688518
      pz      :     0.031398  p :     0.121495
      px      :     0.025189
      py      :     0.064908

 23 O s       :     3.549260  s :     3.549260
      pz      :     1.494202  p :     4.780009
      px      :     1.527894
      py      :     1.757913
      dz2     :     0.011582  d :     0.054439
      dxz     :     0.018263
      dyz     :     0.009789
      dx2y2   :     0.006897
      dxy     :     0.007908



                      *****************************
                      * MAYER POPULATION ANALYSIS *
                      *****************************

  NA   - Mulliken gross atomic population
  ZA   - Total nuclear charge
  QA   - Mulliken gross atomic charge
  VA   - Mayer's total valence
  BVA  - Mayer's bonded valence
  FA   - Mayer's free valence

  ATOM       NA         ZA         QA         VA         BVA        FA
  0 C      5.8187     6.0000     0.1813     3.7091     3.7091     0.0000
  1 N      7.7465     7.0000    -0.7465     2.6629     2.6629     0.0000
  2 H      0.7068     1.0000     0.2932     0.9109     0.9109    -0.0000
  3 C      5.9396     6.0000     0.0604     3.6785     3.6785     0.0000
  4 N      7.6331     7.0000    -0.6331     2.7448     2.7448    -0.0000
  5 H      0.8511     1.0000     0.1489     0.9548     0.9548     0.0000
  6 H      0.8901     1.0000     0.1099     0.9445     0.9445     0.0000
  7 C      6.0716     6.0000    -0.0716     3.7722     3.7722    -0.0000
  8 H      0.7072     1.0000     0.2928     0.9012     0.9012     0.0000
  9 H      0.8612     1.0000     0.1388     0.9527     0.9527     0.0000
 10 H      0.8664     1.0000     0.1336     0.9448     0.9448    -0.0000
 11 C      6.2073     6.0000    -0.2073     3.7679     3.7679    -0.0000
 12 H      0.8790     1.0000     0.1210     0.9472     0.9472     0.0000
 13 C      6.0362     6.0000    -0.0362     3.7555     3.7555     0.0000
 14 H      0.8550     1.0000     0.1450     0.9519     0.9519    -0.0000
 15 H      0.8719     1.0000     0.1281     0.9488     0.9488    -0.0000
 16 C      5.1103     6.0000     0.8897     3.5908     3.5908     0.0000
 17 H      0.7344     1.0000     0.2656     0.9144     0.9144    -0.0000
 18 N      7.6785     7.0000    -0.6785     2.7739     2.7739    -0.0000
 19 H      0.7209     1.0000     0.2791     0.9042     0.9042     0.0000
 20 O      8.6682     8.0000    -0.6682     1.7626     1.7626    -0.0000
 21 H      0.8389     1.0000     0.1611     0.9415     0.9415     0.0000
 22 H      0.6417     1.0000     0.3583     0.8845     0.8845    -0.0000
 23 O      8.6653     8.0000    -0.6653     1.8076     1.8076    -0.0000

  Mayer bond orders larger than 0.100000
B(  0-C ,  1-N ) :   0.8532 B(  0-C ,  4-N ) :   0.9621 B(  0-C ,  5-H ) :   0.9661 
B(  0-C ,  6-H ) :   0.9723 B(  1-N ,  3-C ) :   0.8854 B(  1-N ,  8-H ) :   0.8945 
B(  2-H ,  4-N ) :   0.8856 B(  3-C ,  7-C ) :   0.9415 B(  3-C , 11-C ) :   0.9668 
B(  3-C , 12-H ) :   0.9761 B(  4-N ,  7-C ) :   0.9432 B(  7-C ,  9-H ) :   0.9760 
B(  7-C , 10-H ) :   0.9719 B( 11-C , 13-C ) :   0.9533 B( 11-C , 14-H ) :   0.9668 
B( 11-C , 15-H ) :   0.9725 B( 13-C , 16-C ) :   0.9119 B( 13-C , 18-N ) :   0.9878 
B( 13-C , 21-H ) :   0.9637 B( 16-C , 20-O ) :   0.9067 B( 16-C , 23-O ) :   1.7111 
B( 17-H , 18-N ) :   0.9016 B( 18-N , 19-H ) :   0.9074 B( 20-O , 22-H ) :   0.8509 


-------
TIMINGS
-------

Total SCF time: 0 days 0 hours 0 min 33 sec 

Total time                  ....      33.569 sec
Sum of individual times     ....      31.317 sec  ( 93.3%)

SCF preparation             ....       0.017 sec  (  0.1%)
Fock matrix formation       ....      31.231 sec  ( 93.0%)
  Startup                   ....       0.001 sec  (  0.0% of F)
  Coulomb+Exchange Fock     ....      33.475 sec  (107.2% of F)
Diagonalization             ....       0.000 sec  (  0.0%)
Density matrix formation    ....       0.005 sec  (  0.0%)
Total Energy calculation    ....       0.001 sec  (  0.0%)
Population analysis         ....       0.004 sec  (  0.0%)
Orbital Transformation      ....       0.008 sec  (  0.0%)
Orbital Orthonormalization  ....       0.000 sec  (  0.0%)
DIIS solution               ....       0.036 sec  (  0.1%)
SOSCF solution              ....       0.014 sec  (  0.0%)
Finished LeanSCF after  33.6 sec

Maximum memory used throughout the entire LEANSCF-calculation: 18.2 MB

------------------------------------------------------------------------------
                                ORCA  MP2 
------------------------------------------------------------------------------

Freezing NCore=22 chemical core electrons

----------
MP2 ENERGY (disk based algorithm)
----------

Dimension of the basis                      ...  219
Memory devoted to MP2                       ... 4096 MB   
Data format for buffers                     ... DOUBLE
Compression type for matrix containers      ... UNCOMPRESSED

-------------------------
SHARK HALF TRANSFORMATION (Exchange order)
-------------------------

Number of basis functions                   ...    219
Number of operators                         ...      1
   Operator  0:   11-  42 (p-index in (p*|q*))
   Operator  0:   11-  42 (q-index in (p*|q*)
Integral generator used                     ... SHARK
Contraction scheme used                     ... SEGMENTED CONTRACTION
MaxCore in resort                           ...   4096 MB

Half transformed integrals for op=   0      ... 2.SHARK_MNPQ0.tmp
Resorted half transformed integrals         ... 2.KAO_aa.tmp

Half trafo (segmented) done. Total time = 21.9 sec. integrals= 19.9 sec trafo=  1.8 sec

----------------------
SHARK INTEGRAL SORTING (Exchange)
----------------------

Input container                             ... 2.SHARK_MNPQ0.tmp
Output container                            ... 2.KAO_aa.tmp
Range of AO-indices                         ...    0 -  218
Range of bra indices i                      ...   11 -   42
Range of ket indices j                      ...   11 -   42
Symmetric i,j range                         ... YES
Number of (i,j) pairs generated             ...  528
Max Core memory in MB                       ...   4096

Available core memory in MB                 ...   4083.06
MB needed for one item                      ...      0.37
Fixed MB needed                             ...      0.00
Number of items                             ...       528
Number of batches                           ...         1
Items treated per batch                     ...       528
Batch   0                                   ...      0-   527 (   528)
   => Closing output file and leaving
done (  0.2 sec)

SHARK half integral transformation done. Total time = 22.2 sec.


Finished integral transformation - now doing MP2 part

OPERATOR COMBINATION   0   0: ij=( 11.. 42, 11.. 42)
  Internal MO  13
  Internal MO  16
  Internal MO  19
  Internal MO  22
  Internal MO  25
  Internal MO  28
  Internal MO  31
  Internal MO  34
  Internal MO  37
  Internal MO  40
-----------------------------------------------
 MP2 CORRELATION ENERGY   :     -1.691138374 Eh
-----------------------------------------------


-------
TIMINGS
-------
Total time                :   22.453 sec
Integral trafo            :   22.160 sec ( 98.7%)
K(i,j)                    :    0.247 sec (  1.1%)
T(i,j)                    :    0.007 sec (  0.0%)

---------------------------------------
MP2 TOTAL ENERGY:     -549.539136102 Eh
---------------------------------------

Maximum memory used throughout the entire MP2-calculation: 207.7 MB

-------------------------   --------------------
FINAL SINGLE POINT ENERGY      -549.539136102210
-------------------------   --------------------


------------------------------------------------------------------------------
                              ORCA PROPERTY CALCULATIONS
------------------------------------------------------------------------------

GBWName                                 ... 2.gbw
Number of atoms                         ...     24
Number of basis functions               ...    219
Max core memory                         ...   4096 MB

Electric properties:
Dipole moment                           ... YES
Quadrupole moment                       ...  NO
Static polarizability (Dipole/Dipole)   ...  NO
Static polarizability (Dipole/Quad.)    ...  NO
Static polarizability (Quad./Quad.)     ...  NO
Static polarizability (Velocity)        ...  NO
Static hyperpolarizability              ...  NO

Atomic electric properties:
Dipole moment                           ...  NO
Quadrupole moment                       ...  NO
Static polarizability                   ...  NO

Choice of electric origin               ... Center of mass
Position of electric origin             ...   -13.028636     5.986429    -0.441219

General magnetic properties:
Magnetizability                         ...  NO

EPR properties:
g-Tensor (aka g-matrix)                 ...  NO
Zero-Field splitting spin-orbit         ...  NO
Zero-field splitting spin-spin          ...  NO
Hyperfine couplings                     ...  NO (   0 nuclei)
Quadrupole couplings                    ...  NO (   0 nuclei)
Contact density                         ...  NO (   0 nuclei)

NMR properties:
Chemical shifts                         ...  NO (   0 nuclei)
Spin-rotation constants                 ...  NO (   0 nuclei)
Spin-spin couplings                     ...  NO (   0 nuclei,    0 pairs)

Choice of magnetic origin               ... GIAO
Position of magnetic origin             ...     0.000000     0.000000     0.000000

Properties with geometric perturbations:
SCF Hessian                             ...  NO
IR spectrum                             ...  NO
VCD spectrum                            ...  NO
X-ray spectroscopy properties:
SCF XES/XAS/RIXS spectra                ...  NO

SCF SOC stabilization energy            ...  NO
Diagonal Born-Oppenheimer correction    ...  NO

-------------
DIPOLE MOMENT
-------------

Method             : SCF
Type of density    : Electron Density
Multiplicity       :   1
Irrep              :   0
Energy             :  -547.8479977277683020 Eh
Basis              : AO
                                X                 Y                 Z
Electronic contribution:      2.666793988      -4.224751067      -2.746895455
Nuclear contribution   :     -2.266075187       3.866483415       3.742016742
                        -----------------------------------------
Total Dipole Moment    :      0.400718801      -0.358267652       0.995121286
                        -----------------------------------------
Magnitude (a.u.)       :      1.131016199
Magnitude (Debye)      :      2.874814713



--------------------
Rotational spectrum 
--------------------
 
Rotational constants in cm-1:             0.051191             0.037409             0.032592 
Rotational constants in MHz :          1534.653015          1121.488466           977.077703 

Dipole components along the rotational axes: 
x,y,z [a.u.] :     0.039029    -0.255043     1.101194 
x,y,z [Debye]:     0.099204    -0.648268     2.799012 

 

Dipole moment calculation done in   0.0 sec 

Maximum memory used throughout the entire PROP-calculation: 13.2 MB

--------------------------------
SUGGESTED CITATIONS FOR THIS RUN
--------------------------------

Below you find a list of papers that are relevant to this ORCA run
We neither can nor want to force you to cite these papers, but we appreciate if you do
You receive ORCA, which is the product of decades of hard work by many enthusiastic individuals, for free
The only thing we kindly ask in return is that you cite our papers,
We deeply appreciate it, if you show your appreciation for ORCA by not just citing the generic ORCA reference.

Please note that relegating all ORCA citations to the supporting information does *not* help us.
SI sections are not indexed - citations you put there will not count into any citation statistics
But we need these citations in order to attract the funding resources that allow us to do what we are doing

Therefore, if you are a happy ORCA user, please consider citing a few of the papers listed below in the main body of your paper

In addition to the list printed below, the program has created the file 2.bibtex that contains the list in bibtex format
You can import this file easily into all common literature databanks and citation aid programs


List of essential papers. We consider these as the minimum necessary citations

  1. Neese, F.
     Software update: the ORCA program system, version 6.0
     WIRES Comput. Molec. Sci. 2025 15(1), e70019
     doi.org/10.1002/wcms.7019

List of papers to cite with high priority. The work reported in these papers was absolutely
necessary for this run to complete.
Our perspective: the developers of density functionals and basis sets usually get cited in chemistry papers
Good! But without the algorithms to do something with them, the functionals or basis sets would not do anything.
Hence, in our opinion, the algorithm design and method developments papers are equally worthy of getting cited

  1. Neese, F.
     The SHARK Integral Generation and Digestion System
     J. Comp. Chem. 2022 44(3), 381
     doi.org/10.1002/jcc.26942

List of suggested additional citations. These are papers that are important in the 'surrounding' of 
of this run, or papers that preceded the highly important papers. If you like your results we are grateful for a citation.

  1. Neese, F.
     The ORCA program system
     WIRES Comput. Molec. Sci. 2012 2(1), 73-78
     doi.org/10.1002/wcms.81
  2. Neese, F.
     Software update: the ORCA program system, version 4.0
     WIRES Comput. Molec. Sci. 2018 8(1), 1-6
     doi.org/10.1002/wcms.1327
  3. Neese, F.; Wennmohs, F.; Becker, U.; Riplinger, C.
     The ORCA quantum chemistry program package
     J. Chem. Phys. 2020 152(22), 224108
     doi.org/10.1063/5.0004608
  4. Neese, F.
     Software update: The ORCA program system—Version 5.0
     WIRES Comput. Molec. Sci. 2022 12(1), e1606
     doi.org/10.1002/wcms.1606

List of optional additional citations

  1. Neese, F.
     Approximate second-order SCF convergence for spin unrestricted wavefunctions
     Chem. Phys. Lett. 2000 325(1-3), 93-98
     doi.org/10.1016/s0009-2614(00)00662-x

Timings for individual modules:

Sum of individual times          ...       56.979 sec (=   0.950 min)
Startup calculation              ...        0.547 sec (=   0.009 min)   1.0 %
SCF iterations                   ...       33.925 sec (=   0.565 min)  59.5 %
Property calculations            ...        0.027 sec (=   0.000 min)   0.0 %
MP2 module                       ...       22.479 sec (=   0.375 min)  39.5 %
                             ****ORCA TERMINATED NORMALLY****
TOTAL RUN TIME: 0 days 0 hours 0 minutes 57 seconds 20 msec
