
                                 *****************
                                 * O   R   C   A *
                                 *****************

                                            #,                                       
                                            ###                                      
                                            ####                                     
                                            #####                                    
                                            ######                                   
                                           ########,                                 
                                     ,,################,,,,,                         
                               ,,#################################,,                 
                          ,,##########################################,,             
                       ,#########################################, ''#####,          
                    ,#############################################,,   '####,        
                  ,##################################################,,,,####,       
                ,###########''''           ''''###############################       
              ,#####''   ,,,,##########,,,,          '''####'''          '####       
            ,##' ,,,,###########################,,,                        '##       
           ' ,,###''''                  '''############,,,                           
         ,,##''                                '''############,,,,        ,,,,,,###''
      ,#''                                            '''#######################'''  
     '                                                          ''''####''''         
             ,#######,   #######,   ,#######,      ##                                
            ,#'     '#,  ##    ##  ,#'     '#,    #''#        ,####,    ,#,          
            ##       ##  ##   ,#'  ##            #'  '#       #'       ,# #          
            ##       ##  #######   ##           ,######,      #####,      #          
            '#,     ,#'  ##    ##  '#,     ,#' ,#      #,     #,   #      #          
             '#######'   ##     ##  '#######'  #'      '#     '####' #    #          



                #########################################################
                #                        -***-                          #
                #          Department of theory and spectroscopy        #
                #                                                       #
                #                      Frank Neese                      #
                #                                                       #
                #     Directorship, Architecture, Infrastructure        #
                #                    SHARK, DRIVERS                     #
                #        Core code/Algorithms in most modules           #
                #                                                       #
                #        Max Planck Institute fuer Kohlenforschung      #
                #                Kaiser Wilhelm Platz 1                 #
                #                 D-45470 Muelheim/Ruhr                 #
                #                      Germany                          #
                #                                                       #
                #                  All rights reserved                  #
                #                        -***-                          #
                #########################################################


                         Program Version 6.1.0  -  RELEASE   -
                                (GIT: $679e74b$)
                          ($2025-06-10 18:02:51 +0200$)


 With contributions from (in alphabetic order):
[Max-Planck-Institut fuer Kohlenforschung]                               
  Daniel Aravena         : Magnetic Suceptibility                        
  Michael Atanasov       : Ab Initio Ligand Field Theory (pilot matlab implementation)
  Alexander A. Auer      : GIAO ZORA, VPT2 properties, NMR spectrum      
  Ute Becker             : All parallelization in ORCA, NUMFREQ, NUMCALC 
  Giovanni Bistoni       : ED, misc. LED, open-shell LED, HFLD           
  Dmytro Bykov           : pre 5.0 version of the SCF Hessian            
  Marcos Casanova-Páez   : Triplet and SCS-CIS(D). UHF-(DLPNO)-IP/EA/STEOM-CCSD. UHF-CVS-IP/STEOM-CCSD   
  Vijay G. Chilkuri      : MRCI spin determinant printing, contributions to CSF-ICE 
  Pauline Colinet        : FMM embedding                                 
  Dipayan Datta          : RHF DLPNO-CCSD density                        
  Achintya Kumar Dutta   : EOM-CC, STEOM-CC                              
  Nicolas Foglia         : Exact transition moments, OPA infrastructure, MCD improvements    
  Dmitry Ganyushin       : Spin-Orbit,Spin-Spin,Magnetic field MRCI      
  Miquel Garcia-Rates    : C-PCM and meta-GGA Hessian, CCSD/C-PCM, Gaussian charge scheme 
  Tiago L. C. Gouveia    : GS-ROHF, GS-ROCIS                             
  Yang Guo               : DLPNO-NEVPT2, F12-NEVPT2, CIM, IAO-localization        
  Andreas Hansen         : Spin unrestricted coupled pair/coupled cluster methods 
  Ingolf Harden          : AUTO-CI MPn and infrastructure                
  Benjamin Helmich-Paris : MC-RPA, TRAH-(SCF,CASSCF), AVAS, COSX integrals, SCF dyn. polar., MC-PDFT, srDFT 
  Lee Huntington         : MR-EOM, pCC                                   
  Robert Izsak           : Overlap fitted RIJCOSX, COSX-SCS-MP3, EOM     
  Riya Kayal             : Wick's Theorem for AUTO-CI, AUTO-CI UHF-CCSDT 
  Emily Kempfer          : AUTO-CI RHF CISDT and CCSDT, approximate NEVPT4
  Christian Kollmar      : KDIIS, OOCD, Brueckner-CCSD(T), CCSD density, CASPT2, CASPT2-K, improved NEVPT2 
  Axel Koslowski         : Symmetry handling                             
  Simone Kossmann        : meta-GGA functionals, TD-DFT gradient, OOMP2, (MP2 Hessian; deprecated post 5.0) 
  Lucas Lang             : DCDCAS, Hyperfine gauge corrections, ICE-SOC+SSC
  Marvin Lechner         : AUTO-CI (C++ implementation), FIC-MRCC        
  Spencer Leger          : CASSCF response                               
  Dagmar Lenk            : GEPOL surface, SMD, ORCA-2-JSON               
  Dimitrios Liakos       : Extrapolation schemes; Compound Job, Property file
  Dimitrios Manganas     : Further ROCIS development; embedding schemes. LFT, Crystal Embedding 
  Dimitrios Pantazis     : SARC Basis sets                               
  Anastasios Papadopoulos: AUTO-CI, single reference methods and gradients 
  Taras Petrenko         : pre 6.0 DFT Hessian and TD-DFT gradient,  ECA, NRVS 
  Petra Pikulova         : Analytic Raman intensities                    
  Peter Pinski           : DLPNO-MP2, DLPNO-MP2 Gradient                 
  Shashank Vittal Rao    : ES-AILFT, MagRelax                            
  Christoph Reimann      : Effective Core Potentials                     
  Marius Retegan         : Local ZFS, SOC                                
  Christoph Riplinger    : Optimizer, TS searches, QM/MM, DLPNO-CCSD(T), (RO)-DLPNO pert. Triples 
  Michael Roemelt        : Original ROCIS implementation, recursive CI coupling coefficients
  Masaaki Saitow         : Open-shell DLPNO-CCSD energy and density      
  Barbara Sandhoefer     : DKH picture change effects                    
  Yorick L. A. Schmerwitz: GMF and freeze-and-release deltaSCF, NEB S-IDPP initial path                    
  Kantharuban Sivalingam : CASSCF convergence/infrastructure, NEVPT2, NEVPT3, NEVPT4(SD), FIC-MRCI and CEPA variants
  Bernardo de Souza      : ESD, SOC TD-DFT                               
  Georgi L. Stoychev     : AutoAux, RI-MP2 NMR, DLPNO-MP2 response, X2C  
  Van Anh Tran           : RI-MP2 g-tensors                              
  Willem Van den Heuvel  : Paramagnetic NMR                              
  Zikuan Wang            : NOTCH, Electric field optimization            
  Frank Wennmohs         : Technical directorship and infrastructure     
  Hang Xu                : AUTO-CI-Response properties                   
                                                                         
[FACCTs GmbH]                                                            
  Markus Bursch, Nicolas Foglia, Miquel Garcia-Rates, Ingolf Harden, Hagen Neugebauer, Anastasios Papadopoulos, 
  Christoph Riplinger, Bernardo de Souza, Georgi L. Stoychev                                                    
                                                                 
  APM, various basis sets, CI-OPT, improved COSX, DLPNO-Multilevel,           
  DOCKER, DRACO, updates on ESD, Fragmentator, GOAT, IRC, LR-CPCM, L-BFGS, MBIS, meta-GGA TD-DFT gradient, ML-optimized integration grids, 
  MM, NACMEs, nearIR, NEB, NEB-TS, NL-DFT gradient (VV10), 2- and 3-layer-ONIOM, interface openCOSMO-RS, QMMM,   
  Crystal-QMMM, RESP, rigid body optimization, SF, symmetry and pop. for TD-DFT, various functionals, SOLVATOR                                   
                                                                         
[Other institutions]                                                     
  V. Asgeirsson          : NEB                                           
  Christoph Bannwarth    : sTDA-DFT, sTD-DFT, PBEh-3c, B97-3c, D3        
  Giovanni Bistoni       : ETS/NOCV, ADLD/ADEX, COVALED                  
  Martin Brehm           : Molecular dynamics                            
  Ronald Cardenas        : ETS/NOCV                                      
  Martina Colucci        : COVALED                                       
  Sebastian Ehlert       : rSCAN, r2SCAN, r2SCAN-3c, D4, dhf basis sets  
  Marvin Friede          : D4 for Fr, Ra, Ac-Lr                          
  Lars Goerigk           : TD-DFT with DH, B97 family of functionals     
  Stefan Grimme          : VdW corrections, initial TS optimization, DFT functionals, gCP, sTDA/sTD-DF 
  Waldemar Hujo          : DFT-NL                                        
  H. Jonsson             : NEB                                           
  Holger Kruse           : gCP                                           
  Marcel Mueller         : wB97X-3c, vDZP basis set                      
  Hagen Neugebauer       : wr2SCAN, Native XTB                           
  Gianluca Regni         : ADLD/ADEX                                     
  Tobias Risthaus        : pre 6.0 range-separated hybrid DFT and stability analysis
  Lukas Wittmann         : regularized MP2, r2SCAN double-hybrids, wr2SCAN        
                                                                         
We gratefully acknowledge several colleagues who have allowed us to      
interface, adapt or use parts of their codes:                            
  Ed Valeev, F. Pavosevic, A. Kumar             : LibInt (2-el integral package), F12 methods 
  Garnet Chan, S. Sharma, J. Yang, R. Olivares  : DMRG                   
  Ulf Ekstrom                                   : XCFun DFT Library      
  Mihaly Kallay                                 : mrcc  (arbitrary order and MRCC methods)
  Frank Weinhold                                : gennbo (NPA and NBO analysis)           
  Simon Mueller                                 : openCOSMO-RS                            
  Christopher J. Cramer and Donald G. Truhlar   : smd solvation model                     
  S Lehtola, MJT Oliveira, MAL Marques          : LibXC Library                           
  Liviu Ungur et al                             : ANISO software                          


 Your calculation uses the libint2 library for the computation of 2-el integrals
 For citations please refer to: http://libint.valeyev.net

 Your ORCA version has been built with support for libXC version: 7.0.0
 For citations please refer to: https://libxc.gitlab.io

 This ORCA versions uses:
   CBLAS   interface :  Fast vector & matrix operations
   LAPACKE interface :  Fast linear algebra routines
   SCALAPACK package :  Parallel linear algebra routines
   Shared memory     :  Shared parallel matrices
   BLAS/LAPACK       :  OpenBLAS 0.3.29  USE64BITINT DYNAMIC_ARCH NO_AFFINITY Haswell SINGLE_THREADED
        Core in use  :  Haswell
   Copyright (c) 2011-2014, The OpenBLAS Project


  ***********************************
  * Starting time: Wed Aug 13 11:55:53 2025
  * Host name:     CHEMLAB02
  * Process ID:    1529866
  * Working dir.:  /home/vivek/mm-project/vivek/B97-D/a/1
  ***********************************



***************************************
The coordinates will be read from file: /home/vivek/mm-project/vivek/xtb-goat/a/A_CONF/1.xyz
***************************************


Your calculation utilizes empirical dispersion correction


Warning: RI is on but no J-basis has been assigned. Assigning Def2/J (nothing to worry about!)
================================================================================

----- Orbital basis set information -----
Your calculation utilizes the basis: 6-31G**
   H-He, Li-Ne : W. J. Hehre, R. Ditchfield and J.A. Pople, J. Chem. Phys. 56, 2257 (1972).
                 Note: He and Ne are unpublished basis sets taken from the Gaussian program.
                 Note: Li and B from J. D. Dill and J. A. Pople, J. Chem. Phys. 62, 2921 (1975).
   Na - Ar     : M. M. Francl, W. J. Pietro, W. J. Hehre, J. S. Binkley, M. S. Gordon, 
                 D. J. DeFrees and J. A. Pople, J. Chem. Phys. 77, 3654 (1982).
   K - Zn      : V. A. Rassolov, J. A. Pople, M. A. Ratner, and T. L. Windus, J. Chem. Phys. 109, 1223 (1998).

----- AuxJ basis set information -----
Your calculation utilizes the auxiliary basis: def2/J
   H-Rn: F. Weigend, Phys. Chem. Chem. Phys. 8, 1057 (2006).
   Fr-Lr: K. Eichkorn, F. Weigend, O. Treutler, R. Ahlrichs; Theor. Chem. Acc. 97, 119 (1997).

================================================================================
                                        WARNINGS
                       Please study these warnings very carefully!
================================================================================


INFO   : The exchange functional is Grimme's B97(-D)
         As described in S. Grimme, J. Comput. Chem. 27, 1787 (2006).
         Note that this functional defaults to a pure GGA. 

INFO   : The correlation functional is Grimme's B97(-D)
         As described in S. Grimme, J. Comput. Chem. 27, 1787 (2006).

================================================================================
                                       INPUT FILE
================================================================================
NAME = 1.inp
|  1> ! B97-D 6-31G** 
|  2> 
|  3> * xyzfile 0 1 /home/vivek/mm-project/vivek/xtb-goat/a/A_CONF/1.xyz
|  4> 
|  5>                          ****END OF INPUT****
================================================================================

                       ****************************
                       * Single Point Calculation *
                       ****************************

---------------------------------
CARTESIAN COORDINATES (ANGSTROEM)
---------------------------------
  C     -4.569035   -0.211003   -1.927694
  O     -3.895778   -0.487272   -0.972203
  O     -4.068199    0.400084   -3.011612
  C     -6.056569   -0.500552   -2.060290
  H     -3.120658    0.569512   -2.894343
  N     -6.690677   -0.086617   -3.290869
  H     -6.190817   -1.579892   -1.934780
  H     -6.559790   -0.014539   -1.218119
  H     -6.591663    0.914599   -3.420400
  H     -6.250306   -0.538367   -4.085224

----------------------------
CARTESIAN COORDINATES (A.U.)
----------------------------
  NO LB      ZA    FRAG     MASS         X           Y           Z
   0 C     6.0000    0    12.011   -8.634224   -0.398738   -3.642813
   1 O     8.0000    0    15.999   -7.361954   -0.920810   -1.837198
   2 O     8.0000    0    15.999   -7.687782    0.756050   -5.691122
   3 C     6.0000    0    12.011  -11.445257   -0.945907   -3.893385
   4 H     1.0000    0     1.008   -5.897189    1.076221   -5.469516
   5 N     7.0000    0    14.007  -12.643548   -0.163683   -6.218840
   6 H     1.0000    0     1.008  -11.698949   -2.985563   -3.656204
   7 H     1.0000    0     1.008  -12.396206   -0.027475   -2.301911
   8 H     1.0000    0     1.008  -12.456439    1.728343   -6.463620
   9 H     1.0000    0     1.008  -11.811366   -1.017366   -7.719954

--------------------------------
INTERNAL COORDINATES (ANGSTROEM)
--------------------------------
 C      0   0   0     0.000000000000     0.00000000     0.00000000
 O      1   0   0     1.201066352657     0.00000000     0.00000000
 O      1   2   0     1.341321290418   122.57210405     0.00000000
 C      1   2   3     1.521242985729   125.00780935   180.01170383
 H      3   1   2     0.969686299569   110.28787613     0.00000000
 N      4   1   2     1.444907594252   116.66922829   179.86839706
 H      4   1   2     1.094874014486   107.31006580   302.47926787
 H      4   1   2     1.094848201985   107.33159201    57.24057924
 H      6   4   1     1.014404776331   110.40597232   300.78572421
 H      6   4   1     1.014398853681   110.41551609    59.26206419

---------------------------
INTERNAL COORDINATES (A.U.)
---------------------------
 C      0   0   0     0.000000000000     0.00000000     0.00000000
 O      1   0   0     2.269686475189     0.00000000     0.00000000
 O      1   2   0     2.534729896488   122.57210405     0.00000000
 C      1   2   3     2.874732626176   125.00780935   180.01170383
 H      3   1   2     1.832441542001   110.28787613     0.00000000
 N      4   1   2     2.730479641959   116.66922829   179.86839706
 H      4   1   2     2.069012038526   107.31006580   302.47926787
 H      4   1   2     2.068963259967   107.33159201    57.24057924
 H      6   4   1     1.916947216208   110.40597232   300.78572421
 H      6   4   1     1.916936024020   110.41551609    59.26206419

---------------------
BASIS SET INFORMATION
---------------------
There are 4 groups of distinct atoms

 Group   1 Type C   : 10s4p1d contracted to 3s2p1d pattern {631/31/1}
 Group   2 Type O   : 10s4p1d contracted to 3s2p1d pattern {631/31/1}
 Group   3 Type H   : 4s1p contracted to 2s1p pattern {31/1}
 Group   4 Type N   : 10s4p1d contracted to 3s2p1d pattern {631/31/1}

Atom   0C    basis set group =>   1
Atom   1O    basis set group =>   2
Atom   2O    basis set group =>   2
Atom   3C    basis set group =>   1
Atom   4H    basis set group =>   3
Atom   5N    basis set group =>   4
Atom   6H    basis set group =>   3
Atom   7H    basis set group =>   3
Atom   8H    basis set group =>   3
Atom   9H    basis set group =>   3
---------------------------------
AUXILIARY/J BASIS SET INFORMATION
---------------------------------
There are 4 groups of distinct atoms

 Group   1 Type C   : 12s5p4d2f1g contracted to 6s4p3d1f1g pattern {711111/2111/211/2/1}
 Group   2 Type O   : 12s5p4d2f1g contracted to 6s4p3d1f1g pattern {711111/2111/211/2/1}
 Group   3 Type H   : 5s2p1d contracted to 3s1p1d pattern {311/2/1}
 Group   4 Type N   : 12s5p4d2f1g contracted to 6s4p3d1f1g pattern {711111/2111/211/2/1}

Atom   0C    basis set group =>   1
Atom   1O    basis set group =>   2
Atom   2O    basis set group =>   2
Atom   3C    basis set group =>   1
Atom   4H    basis set group =>   3
Atom   5N    basis set group =>   4
Atom   6H    basis set group =>   3
Atom   7H    basis set group =>   3
Atom   8H    basis set group =>   3
Atom   9H    basis set group =>   3
------------------------------------------------------------------------------
                             ORCA STARTUP CALCULATIONS
                           -- RI-GTO INTEGRALS CHOSEN --
------------------------------------------------------------------------------
------------------------------------------------------------------------------
                   ___                                                        
                  /   \      - P O W E R E D   B Y -                         
                 /     \                                                     
                 |  |  |   _    _      __       _____    __    __             
                 |  |  |  | |  | |    /  \     |  _  \  |  |  /  |          
                  \  \/   | |  | |   /    \    | | | |  |  | /  /          
                 / \  \   | |__| |  /  /\  \   | |_| |  |  |/  /          
                |  |  |   |  __  | /  /__\  \  |    /   |      \           
                |  |  |   | |  | | |   __   |  |    \   |  |\   \          
                \     /   | |  | | |  |  |  |  | |\  \  |  | \   \       
                 \___/    |_|  |_| |__|  |__|  |_| \__\ |__|  \__/        
                                                                              
                      - O R C A' S   B I G   F R I E N D -                    
                                      &                                       
                       - I N T E G R A L  F E E D E R -                       
                                                                              
 v1 FN, 2020, v2 2021, v3 2022-2024                                           
------------------------------------------------------------------------------


----------------------
SHARK INTEGRAL PACKAGE
----------------------

Number of atoms                             ...     10
Number of basis functions                   ...     95
Number of shells                            ...     45
Maximum angular momentum                    ...      2
Integral batch strategy                     ... SHARK/LIBINT Hybrid
RI-J (if used) integral strategy            ... SPLIT-RIJ (Revised 2003 algorithm where possible)
Printlevel                                  ...      1
Contraction scheme used                     ... SEGMENTED contraction
Prescreening option                         ... SCHWARTZ
   Thresh                                   ... 1.000e-10
   Tcut                                     ... 1.000e-11
   Tpresel                                  ... 1.000e-11 
Coulomb Range Separation                    ... NOT USED
Exchange Range Separation                   ... NOT USED
Multipole approximations                    ... NOT USED
Finite Nucleus Model                        ... NOT USED
CABS basis                                  ... NOT available
Auxiliary Coulomb fitting basis             ... AVAILABLE
   # of basis functions in Aux-J            ...    300
   # of shells in Aux-J                     ...    100
   Maximum angular momentum in Aux-J        ...      4
Auxiliary J/K fitting basis                 ... NOT available
Auxiliary Correlation fitting basis         ... NOT available
Auxiliary 'external' fitting basis          ... NOT available

Checking pre-screening integrals            ... done (  0.0 sec) Dimension = 45
   => SHARK Basis and OBASIS are compatible. Storing Pre-screening
Shell pair information
Shell pair cut-off parameter TPreSel        ...   1.0e-11
Total number of shell pairs                 ...      1035
Shell pairs after pre-screening             ...      1008
Total number of primitive shell pairs       ...      5170
Primitive shell pairs kept                  ...      3725
          la=0 lb=0:    314 shell pairs
          la=1 lb=0:    365 shell pairs
          la=1 lb=1:    116 shell pairs
          la=2 lb=0:    123 shell pairs
          la=2 lb=1:     75 shell pairs
          la=2 lb=2:     15 shell pairs

Checking whether 4 symmetric matrices of dimension 95 fit in memory
:Max Core in MB      =   4096.00
 MB in use           =      4.70
 MB left             =   4091.30
 MB needed           =      0.14
 Data fit in memory  = YES
Calculating RI/J V-Matrix + Cholesky decomp.... done (  0.0 sec)
Calculating Nuclear repulsion               ... done (  0.0 sec) ENN=    180.502618929197 Eh

Diagonalization of the overlap matrix:
Smallest eigenvalue                        ... 4.191e-03
Time for diagonalization                   ...    0.001 sec
Threshold for overlap eigenvalues          ... 1.000e-07
Number of eigenvalues below threshold      ... 0
Time for construction of square roots      ...    0.000 sec
Total time needed                          ...    0.001 sec

-------------------
DFT GRID GENERATION
-------------------

General Integration Accuracy     IntAcc      ... 4.388
Radial Grid Type                 RadialGrid  ... OptM3 with GC (2021)
Angular Grid (max. ang.)         AngularGrid ... 4 (Lebedev-302)
Angular grid pruning method      GridPruning ... 4 (adaptive)
Weight generation scheme         WeightScheme... mBecke (2022)
Basis function cutoff            BFCut       ... 1.0000e-10
Integration weight cutoff        WCut        ... 1.0000e-14
Partially contracted basis set               ... off
Rotationally invariant grid construction     ... off
Angular grids for H and He will be reduced by one unit

Total number of grid points                  ...    46583
Total number of batches                      ...      733
Average number of points per batch           ...       63
Average number of grid points per atom       ...     4658
Grids setup in   0.1 sec
Initializing property integral containers    ... done (  0.0 sec)

SHARK setup successfully completed in   0.2 seconds

Maximum memory used throughout the entire STARTUP-calculation: 19.8 MB
-------------------------------------------------------------------------------
                                 ORCA GUESS
                   Start orbitals & Density for SCF / CASSCF
-------------------------------------------------------------------------------

------------
SCF SETTINGS
------------
Hamiltonian:
 Density Functional     Method          .... DFT(GTOs)
 Exchange Functional    Exchange        .... B97(D)
 Correlation Functional Correlation     .... B97(D)
 Gradients option       PostSCFGGA      .... off
 RI-approximation to the Coulomb term is turned on
   Number of AuxJ basis functions       .... 300


General Settings:
 Integral files         IntName         .... 1
 Hartree-Fock type      HFTyp           .... RHF
 Total Charge           Charge          ....    0
 Multiplicity           Mult            ....    1
 Number of Electrons    NEL             ....   40
 Basis Dimension        Dim             ....   95
 Nuclear Repulsion      ENuc            ....    180.5026189292 Eh

Convergence Acceleration:
 AO-DIIS                CNVDIIS         .... on
   Start iteration      DIISMaxIt       ....    12
   Startup error        DIISStart       ....  0.200000
   # of expansion vecs  DIISMaxEq       ....     5
   Bias factor          DIISBfac        ....   1.050
   Max. coefficient     DIISMaxC        ....  10.000
 MO-DIIS                CNVKDIIS        .... off
 Trust-Rad. Augm. Hess. CNVTRAH         .... auto
   Auto Start mean grad. ratio tolernc. ....  1.125000
   Auto Start start iteration           ....    50
   Auto Start num. interpolation iter.  ....    10
   Max. Number of Micro iterations      ....    24
   Max. Number of Macro iterations      .... Maxiter - #DIIS iter
   Number of Davidson start vectors     ....     2
   Converg. threshold    (grad. norm)   ....   5.000e-05
   Grad. Scal. Fac. for Micro threshold ....   0.100
   Minimum threshold for Micro iter.    ....   1.000e-02
   NR start threshold (gradient norm)   ....   1.000e-04
   Initial trust radius                 ....   0.400
   Minimum AH scaling param. (alpha)    ....   1.000
   Maximum AH scaling param. (alpha)    .... 1000.000
   Quad. conv. algorithm                .... NR
   White noise on init. David. guess    .... on
   Maximum white noise                  ....   0.010
   Pseudo random numbers                .... off
   Inactive MOs                         .... canonical
   Orbital update algorithm             .... Taylor
   Preconditioner                       .... Diag
   Full preconditioner red. dimension   ....   250
 SOSCF                 CNVSOSCF           .... on
   Start iteration     SOSCFMaxIt         ....   150
   Startup grad/error  SOSCFStart         ....  0.003300
   Hessian update      SOSCFHessUp        .... L-BFGS
   Autom. constraints  SOSCFAutoConstrain .... off
 Level Shifting         CNVShift        .... on
   Level shift para.    LevelShift      ....    0.2500
   Turn off err/grad.   ShiftErr        ....    0.0010
 Zerner damping         CNVZerner       .... off
 Static damping         CNVDamp         .... on
   Fraction old density DampFac         ....    0.7000
   Max. Damping (<1)    DampMax         ....    0.9800
   Min. Damping (>=0)   DampMin         ....    0.0000
   Turn off err/grad.   DampErr         ....    0.1000

SCF Procedure:
 Maximum # iterations   MaxIter         ....   125
 SCF integral mode      SCFMode         .... Direct
   Integral package                     .... SHARK and LIBINT hybrid scheme
 Reset frequency        DirectResetFreq ....    20
 Integral Threshold     Thresh          ....  1.000e-10 Eh
 Primitive CutOff       TCut            ....  1.000e-11 Eh

Convergence Tolerance:
 Convergence Check Mode ConvCheckMode   .... Total+1el-Energy
 Convergence forced     ConvForced      .... 0
 Energy Change          TolE            ....  1.000e-06 Eh
 1-El. energy change                    ....  1.000e-03 Eh
 Orbital Gradient       TolG            ....  5.000e-05
 Orbital Rotation angle TolX            ....  5.000e-05
 DIIS Error             TolErr          ....  1.000e-06

------------------------------
INITIAL GUESS: MODEL POTENTIAL
------------------------------
Loading Hartree-Fock densities                     ... done
Calculating cut-offs                               ... done
Initializing the effective Hamiltonian             ... done
Setting up the integral package (SHARK)            ... done
Starting the Coulomb interaction                   ... done (   0.0 sec)
Making the grid                                    ... done (   0.0 sec)
Mapping shells                                     ... done
Starting the XC term evaluation                    ... done (   0.0 sec)
  promolecular density results
     # of electrons  =     39.998164875
     EX              =    -34.197748599
     EC              =     -1.793477650
     EX+EC           =    -35.991226249
Transforming the Hamiltonian                       ... done (   0.0 sec)
Diagonalizing the Hamiltonian                      ... done (   0.0 sec)
Back transforming the eigenvectors                 ... done (   0.0 sec)
Now organizing SCF variables                       ... done
                      ------------------
                      INITIAL GUESS DONE (   0.1 sec)
                      ------------------
             **** ENERGY FILE WAS UPDATED (1.en.tmp) ****
Finished Guess after   0.1 sec
Maximum memory used throughout the entire GUESS-calculation: 8.1 MB

-------------------------------------------------------------------------------------------
                                      ORCA LEAN-SCF
                              memory conserving SCF solver
-------------------------------------------------------------------------------------------

----------------------------------------D-I-I-S--------------------------------------------
Iteration    Energy (Eh)           Delta-E    RMSDP     MaxDP     DIISErr   Damp  Time(sec)
-------------------------------------------------------------------------------------------
               ***  Starting incremental Fock matrix formation  ***
    1    -284.0172354990285157     0.00e+00  5.87e-03  1.09e-01  2.64e-01  0.700   0.1
    2    -284.1331157428738834    -1.16e-01  3.51e-03  5.77e-02  9.76e-02  0.700   0.1
                               ***Turning on AO-DIIS***
    3    -284.1660508089318000    -3.29e-02  1.25e-03  1.40e-02  3.25e-02  0.700   0.1
    4    -284.1887277516867698    -2.27e-02  1.59e-03  1.72e-02  1.70e-02  0.000   0.1
    5    -284.2423237279923569    -5.36e-02  5.86e-04  6.82e-03  1.20e-02  0.000   0.1
    6    -284.2428372963070160    -5.14e-04  2.14e-04  2.17e-03  3.73e-03  0.000   0.1
                              *** Initializing SOSCF ***
---------------------------------------S-O-S-C-F--------------------------------------
Iteration    Energy (Eh)           Delta-E    RMSDP     MaxDP     MaxGrad    Time(sec)
--------------------------------------------------------------------------------------
    7    -284.2428810376612773    -4.37e-05  7.43e-05  8.57e-04  9.31e-04     0.1
               *** Restarting incremental Fock matrix formation ***
    8    -284.2428861007299474    -5.06e-06  4.58e-05  7.02e-04  1.22e-04     0.1
    9    -284.2428862535379039    -1.53e-07  2.04e-05  3.44e-04  1.57e-04     0.1
                 **** Energy Check signals convergence ****

               *****************************************************
               *                     SUCCESS                       *
               *           SCF CONVERGED AFTER   9 CYCLES          *
               *****************************************************

             **** ENERGY FILE WAS UPDATED (1.en.tmp) ****

----------------
TOTAL SCF ENERGY
----------------

Total Energy       :       -284.24288649504240 Eh           -7734.64216 eV

Components:
Nuclear Repulsion  :        180.50261892919733 Eh            4911.72597 eV
Electronic Energy  :       -464.74550542423970 Eh          -12646.36813 eV
One Electron Energy:       -745.55508692829335 Eh          -20287.58532 eV
Two Electron Energy:        280.80958150405365 Eh            7641.21718 eV

Virial components:
Potential Energy   :       -567.03778323671668 Eh          -15429.88252 eV
Kinetic Energy     :        282.79489674167422 Eh            7695.24036 eV
Virial Ratio       :          2.00512028247345

DFT components:
N(Alpha)           :       19.999995070887 electrons
N(Beta)            :       19.999995070887 electrons
N(Total)           :       39.999990141775 electrons
E(X)               :      -34.935736743487 Eh       
E(C)               :       -1.783086057824 Eh       
E(XC)              :      -36.718822801311 Eh       

---------------
SCF CONVERGENCE
---------------

  Last Energy change         ...    1.5281e-07  Tolerance :   1.0000e-06
  Last MAX-Density change    ...    3.4427e-04  Tolerance :   1.0000e-05
  Last RMS-Density change    ...    2.0354e-05  Tolerance :   1.0000e-06
  Last DIIS Error            ...    9.3060e-04  Tolerance :   1.0000e-06
  Last Orbital Gradient      ...    1.5737e-04  Tolerance :   5.0000e-05
  Last Orbital Rotation      ...    3.3707e-04  Tolerance :   5.0000e-05


----------------
ORBITAL ENERGIES
----------------

  NO   OCC          E(Eh)            E(eV) 
   0   2.0000     -18.816598      -512.0257 
   1   2.0000     -18.750325      -510.2223 
   2   2.0000     -13.990218      -380.6932 
   3   2.0000     -10.029302      -272.9112 
   4   2.0000      -9.946329      -270.6534 
   5   2.0000      -1.021418       -27.7942 
   6   2.0000      -0.930693       -25.3254 
   7   2.0000      -0.814362       -22.1599 
   8   2.0000      -0.645191       -17.5565 
   9   2.0000      -0.564528       -15.3616 
  10   2.0000      -0.459178       -12.4949 
  11   2.0000      -0.441510       -12.0141 
  12   2.0000      -0.416993       -11.3470 
  13   2.0000      -0.391590       -10.6557 
  14   2.0000      -0.370555       -10.0833 
  15   2.0000      -0.339287        -9.2325 
  16   2.0000      -0.331800        -9.0287 
  17   2.0000      -0.271937        -7.3998 
  18   2.0000      -0.242188        -6.5903 
  19   2.0000      -0.186295        -5.0694 
  20   0.0000      -0.016150        -0.4395 
  21   0.0000       0.043827         1.1926 
  22   0.0000       0.078566         2.1379 
  23   0.0000       0.115722         3.1490 
  24   0.0000       0.119383         3.2486 
  25   0.0000       0.171458         4.6656 
  26   0.0000       0.185055         5.0356 
  27   0.0000       0.209752         5.7076 
  28   0.0000       0.279134         7.5956 
  29   0.0000       0.352248         9.5852 
  30   0.0000       0.505514        13.7557 
*Only the first 10 virtual orbitals were printed.

                    ********************************
                    * MULLIKEN POPULATION ANALYSIS *
                    ********************************

-----------------------
MULLIKEN ATOMIC CHARGES
-----------------------
   0 C :    0.486736
   1 O :   -0.410173
   2 O :   -0.459271
   3 C :   -0.172633
   4 H :    0.319756
   5 N :   -0.560264
   6 H :    0.152413
   7 H :    0.152428
   8 H :    0.245490
   9 H :    0.245518
Sum of atomic charges:    0.0000000

--------------------------------
MULLIKEN REDUCED ORBITAL CHARGES
--------------------------------
  0 C s       :     2.992442  s :     2.992442
      pz      :     0.729689  p :     2.396084
      px      :     0.888318
      py      :     0.778077
      dz2     :     0.036720  d :     0.124738
      dxz     :     0.032004
      dyz     :     0.026271
      dx2y2   :     0.017327
      dxy     :     0.012416

  1 O s       :     3.853175  s :     3.853175
      pz      :     1.448225  p :     4.528929
      px      :     1.614951
      py      :     1.465754
      dz2     :     0.008333  d :     0.028068
      dxz     :     0.007051
      dyz     :     0.006407
      dx2y2   :     0.002679
      dxy     :     0.003598

  2 O s       :     3.817673  s :     3.817673
      pz      :     1.585547  p :     4.618837
      px      :     1.348568
      py      :     1.684722
      dz2     :     0.007230  d :     0.022760
      dxz     :     0.004226
      dyz     :     0.005353
      dx2y2   :     0.004909
      dxy     :     0.001043

  3 C s       :     3.222475  s :     3.222475
      pz      :     0.916888  p :     2.899739
      px      :     0.909552
      py      :     1.073299
      dz2     :     0.012428  d :     0.050419
      dxz     :     0.012590
      dyz     :     0.007902
      dx2y2   :     0.013569
      dxy     :     0.003931

  4 H s       :     0.642352  s :     0.642352
      pz      :     0.007757  p :     0.037892
      px      :     0.020950
      py      :     0.009186

  5 N s       :     3.577263  s :     3.577263
      pz      :     1.077723  p :     3.954645
      px      :     1.706736
      py      :     1.170187
      dz2     :     0.005596  d :     0.028356
      dxz     :     0.009205
      dyz     :     0.003907
      dx2y2   :     0.006107
      dxy     :     0.003542

  6 H s       :     0.836506  s :     0.836506
      pz      :     0.002041  p :     0.011081
      px      :     0.002524
      py      :     0.006515

  7 H s       :     0.836494  s :     0.836494
      pz      :     0.004584  p :     0.011078
      px      :     0.003314
      py      :     0.003180

  8 H s       :     0.730569  s :     0.730569
      pz      :     0.004519  p :     0.023940
      px      :     0.007923
      py      :     0.011498

  9 H s       :     0.730541  s :     0.730541
      pz      :     0.008961  p :     0.023941
      px      :     0.008541
      py      :     0.006439



                     *******************************
                     * LOEWDIN POPULATION ANALYSIS *
                     *******************************

----------------------
LOEWDIN ATOMIC CHARGES
----------------------
   0 C :    0.097374
   1 O :   -0.219138
   2 O :   -0.147067
   3 C :   -0.100371
   4 H :    0.182122
   5 N :   -0.256706
   6 H :    0.095602
   7 H :    0.095585
   8 H :    0.126296
   9 H :    0.126302

-------------------------------
LOEWDIN REDUCED ORBITAL CHARGES
-------------------------------
  0 C s       :     2.861357  s :     2.861357
      pz      :     0.921230  p :     2.743700
      px      :     1.008621
      py      :     0.813849
      dz2     :     0.090089  d :     0.297569
      dxz     :     0.077680
      dyz     :     0.064081
      dx2y2   :     0.040056
      dxy     :     0.025663

  1 O s       :     3.553925  s :     3.553925
      pz      :     1.510625  p :     4.606778
      px      :     1.637522
      py      :     1.458631
      dz2     :     0.016040  d :     0.058435
      dxz     :     0.019638
      dyz     :     0.011140
      dx2y2   :     0.005875
      dxy     :     0.005742

  2 O s       :     3.472691  s :     3.472691
      pz      :     1.600454  p :     4.623715
      px      :     1.360868
      py      :     1.662394
      dz2     :     0.014455  d :     0.050661
      dxz     :     0.010208
      dyz     :     0.011171
      dx2y2   :     0.010920
      dxy     :     0.003907

  3 C s       :     2.897032  s :     2.897032
      pz      :     0.994227  p :     3.090061
      px      :     1.011478
      py      :     1.084355
      dz2     :     0.028350  d :     0.113278
      dxz     :     0.028122
      dyz     :     0.016147
      dx2y2   :     0.032454
      dxy     :     0.008205

  4 H s       :     0.701743  s :     0.701743
      pz      :     0.022579  p :     0.116136
      px      :     0.067308
      py      :     0.026249

  5 N s       :     3.189812  s :     3.189812
      pz      :     1.136105  p :     4.008868
      px      :     1.676789
      py      :     1.195974
      dz2     :     0.014133  d :     0.058026
      dxz     :     0.017251
      dyz     :     0.011537
      dx2y2   :     0.010561
      dxy     :     0.004543

  6 H s       :     0.865496  s :     0.865496
      pz      :     0.006378  p :     0.038902
      px      :     0.006781
      py      :     0.025744

  7 H s       :     0.865511  s :     0.865511
      pz      :     0.017691  p :     0.038905
      px      :     0.010638
      py      :     0.010575

  8 H s       :     0.794833  s :     0.794833
      pz      :     0.011598  p :     0.078871
      px      :     0.023908
      py      :     0.043366

  9 H s       :     0.794823  s :     0.794823
      pz      :     0.031554  p :     0.078875
      px      :     0.028482
      py      :     0.018839



                      *****************************
                      * MAYER POPULATION ANALYSIS *
                      *****************************

  NA   - Mulliken gross atomic population
  ZA   - Total nuclear charge
  QA   - Mulliken gross atomic charge
  VA   - Mayer's total valence
  BVA  - Mayer's bonded valence
  FA   - Mayer's free valence

  ATOM       NA         ZA         QA         VA         BVA        FA
  0 C      5.5133     6.0000     0.4867     3.9622     3.9622     0.0000
  1 O      8.4102     8.0000    -0.4102     2.0982     2.0982     0.0000
  2 O      8.4593     8.0000    -0.4593     2.0576     2.0576     0.0000
  3 C      6.1726     6.0000    -0.1726     3.8697     3.8697     0.0000
  4 H      0.6802     1.0000     0.3198     0.9172     0.9172    -0.0000
  5 N      7.5603     7.0000    -0.5603     2.8994     2.8994     0.0000
  6 H      0.8476     1.0000     0.1524     0.9461     0.9461     0.0000
  7 H      0.8476     1.0000     0.1524     0.9461     0.9461    -0.0000
  8 H      0.7545     1.0000     0.2455     0.9211     0.9211    -0.0000
  9 H      0.7545     1.0000     0.2455     0.9212     0.9212     0.0000

  Mayer bond orders larger than 0.100000
B(  0-C ,  1-O ) :   1.9161 B(  0-C ,  2-O ) :   1.1008 B(  0-C ,  3-C ) :   0.9147 
B(  2-O ,  4-H ) :   0.8521 B(  3-C ,  5-N ) :   1.0474 B(  3-C ,  6-H ) :   0.9377 
B(  3-C ,  7-H ) :   0.9378 B(  5-N ,  8-H ) :   0.9106 B(  5-N ,  9-H ) :   0.9105 


-------
TIMINGS
-------

Total SCF time: 0 days 0 hours 0 min 1 sec 

Total time                  ....       1.378 sec
Sum of individual times     ....       1.251 sec  ( 90.8%)

SCF preparation             ....       0.021 sec  (  1.5%)
Fock matrix formation       ....       1.214 sec  ( 88.1%)
  Startup                   ....       0.000 sec  (  0.0% of F)
  Split-RI-J                ....       0.280 sec  ( 23.1% of F)
  XC integration            ....       1.053 sec  ( 86.8% of F)
    Basis function eval.    ....       0.350 sec  ( 33.2% of XC)
    Density eval.           ....       0.187 sec  ( 17.8% of XC)
    XC-Functional eval.     ....       0.272 sec  ( 25.8% of XC)
    XC-Potential eval.      ....       0.215 sec  ( 20.4% of XC)
Diagonalization             ....       0.000 sec  (  0.0%)
Density matrix formation    ....       0.005 sec  (  0.4%)
Total Energy calculation    ....       0.000 sec  (  0.0%)
Population analysis         ....       0.001 sec  (  0.1%)
Orbital Transformation      ....       0.001 sec  (  0.1%)
Orbital Orthonormalization  ....       0.000 sec  (  0.0%)
DIIS solution               ....       0.007 sec  (  0.5%)
SOSCF solution              ....       0.002 sec  (  0.1%)
Finished LeanSCF after   1.4 sec

Maximum memory used throughout the entire LEANSCF-calculation: 10.2 MB



-------------------------------------------------------------------------------
                          DFT DISPERSION CORRECTION                            
-------------------------------------------------------------------------------
Active option DFTDOPT                   ...         2   
Final C6-coefficient scaling factor     ...     1.250
Final VDW-radii scaling factor          ...     1.100
Damping factor alpha                    ...    20.000
-------------------------   ----------------
Dispersion correction           -0.007247086
-------------------------   ----------------


-------------------------   --------------------
FINAL SINGLE POINT ENERGY      -284.250133580649
-------------------------   --------------------


------------------------------------------------------------------------------
                              ORCA PROPERTY CALCULATIONS
------------------------------------------------------------------------------

GBWName                                 ... 1.gbw
Number of atoms                         ...     10
Number of basis functions               ...     95
Max core memory                         ...   4096 MB

Electric properties:
Dipole moment                           ... YES
Quadrupole moment                       ...  NO
Static polarizability (Dipole/Dipole)   ...  NO
Static polarizability (Dipole/Quad.)    ...  NO
Static polarizability (Quad./Quad.)     ...  NO
Static polarizability (Velocity)        ...  NO
Static hyperpolarizability              ...  NO

Atomic electric properties:
Dipole moment                           ...  NO
Quadrupole moment                       ...  NO
Static polarizability                   ...  NO

Choice of electric origin               ... Center of mass
Position of electric origin             ...    -9.508143    -0.297266    -4.314629

General magnetic properties:
Magnetizability                         ...  NO

EPR properties:
g-Tensor (aka g-matrix)                 ...  NO
Zero-Field splitting spin-orbit         ...  NO
Zero-field splitting spin-spin          ...  NO
Hyperfine couplings                     ...  NO (   0 nuclei)
Quadrupole couplings                    ...  NO (   0 nuclei)
Contact density                         ...  NO (   0 nuclei)

NMR properties:
Chemical shifts                         ...  NO (   0 nuclei)
Spin-rotation constants                 ...  NO (   0 nuclei)
Spin-spin couplings                     ...  NO (   0 nuclei,    0 pairs)

Choice of magnetic origin               ... GIAO
Position of magnetic origin             ...     0.000000     0.000000     0.000000

Properties with geometric perturbations:
SCF Hessian                             ...  NO
IR spectrum                             ...  NO
VCD spectrum                            ...  NO
X-ray spectroscopy properties:
SCF XES/XAS/RIXS spectra                ...  NO

SCF SOC stabilization energy            ...  NO
Diagonal Born-Oppenheimer correction    ...  NO

-------------
DIPOLE MOMENT
-------------

Method             : SCF
Type of density    : Electron Density
Multiplicity       :   1
Irrep              :   0
Energy             :  -284.2428864950423986 Eh
Basis              : AO
                                X                 Y                 Z
Electronic contribution:      3.559844583       0.227278169       1.336390037
Nuclear contribution   :     -3.314033787       0.133076396      -2.001674939
                        -----------------------------------------
Total Dipole Moment    :      0.245810796       0.360354566      -0.665284902
                        -----------------------------------------
Magnitude (a.u.)       :      0.795539038
Magnitude (Debye)      :      2.022099536



--------------------
Rotational spectrum 
--------------------
 
Rotational constants in cm-1:             0.337748             0.135684             0.100142 
Rotational constants in MHz :         10125.438540          4067.714473          3002.179198 

Dipole components along the rotational axes: 
x,y,z [a.u.] :     0.131561    -0.784585     0.000344 
x,y,z [Debye]:     0.334402    -1.994257     0.000876 

 

Dipole moment calculation done in   0.0 sec 

Maximum memory used throughout the entire PROP-calculation: 5.8 MB

--------------------------------
SUGGESTED CITATIONS FOR THIS RUN
--------------------------------

Below you find a list of papers that are relevant to this ORCA run
We neither can nor want to force you to cite these papers, but we appreciate if you do
You receive ORCA, which is the product of decades of hard work by many enthusiastic individuals, for free
The only thing we kindly ask in return is that you cite our papers,
We deeply appreciate it, if you show your appreciation for ORCA by not just citing the generic ORCA reference.

Please note that relegating all ORCA citations to the supporting information does *not* help us.
SI sections are not indexed - citations you put there will not count into any citation statistics
But we need these citations in order to attract the funding resources that allow us to do what we are doing

Therefore, if you are a happy ORCA user, please consider citing a few of the papers listed below in the main body of your paper

In addition to the list printed below, the program has created the file 1.bibtex that contains the list in bibtex format
You can import this file easily into all common literature databanks and citation aid programs


List of essential papers. We consider these as the minimum necessary citations

  1. Neese, F.
     Software update: the ORCA program system, version 6.0
     WIRES Comput. Molec. Sci. 2025 15(1), e70019
     doi.org/10.1002/wcms.7019

List of papers to cite with high priority. The work reported in these papers was absolutely
necessary for this run to complete.
Our perspective: the developers of density functionals and basis sets usually get cited in chemistry papers
Good! But without the algorithms to do something with them, the functionals or basis sets would not do anything.
Hence, in our opinion, the algorithm design and method developments papers are equally worthy of getting cited

  1. Neese, F.
     An improvement of the resolution of the identity approximation for the formation of the Coulomb matrix
     J. Comp. Chem. 2003 24(14), 1740-1747
     doi.org/10.1002/jcc.10318
  2. Grimme, S.
     Semiempirical GGA-type density functional constructed with a long-range dispersion correction
     J.Comput.Chem. 2006 27(15), 1787-1799
     doi.org/10.1002/jcc.20495
  3. Neese, F.
     The SHARK Integral Generation and Digestion System
     J. Comp. Chem. 2022 44(3), 381
     doi.org/10.1002/jcc.26942

List of suggested additional citations. These are papers that are important in the 'surrounding' of 
of this run, or papers that preceded the highly important papers. If you like your results we are grateful for a citation.

  1. Neese, F.
     The ORCA program system
     WIRES Comput. Molec. Sci. 2012 2(1), 73-78
     doi.org/10.1002/wcms.81
  2. Neese, F.
     Software update: the ORCA program system, version 4.0
     WIRES Comput. Molec. Sci. 2018 8(1), 1-6
     doi.org/10.1002/wcms.1327
  3. Neese, F.; Wennmohs, F.; Becker, U.; Riplinger, C.
     The ORCA quantum chemistry program package
     J. Chem. Phys. 2020 152(22), 224108
     doi.org/10.1063/5.0004608
  4. Neese, F.
     Software update: The ORCA program system—Version 5.0
     WIRES Comput. Molec. Sci. 2022 12(1), e1606
     doi.org/10.1002/wcms.1606

List of optional additional citations

  1. Neese, F.
     Approximate second-order SCF convergence for spin unrestricted wavefunctions
     Chem. Phys. Lett. 2000 325(1-3), 93-98
     doi.org/10.1016/s0009-2614(00)00662-x

Timings for individual modules:

Sum of individual times          ...        1.700 sec (=   0.028 min)
Startup calculation              ...        0.181 sec (=   0.003 min)  10.6 %
SCF iterations                   ...        1.492 sec (=   0.025 min)  87.7 %
Property calculations            ...        0.028 sec (=   0.000 min)   1.6 %
                             ****ORCA TERMINATED NORMALLY****
TOTAL RUN TIME: 0 days 0 hours 0 minutes 1 seconds 736 msec
