
                                 *****************
                                 * O   R   C   A *
                                 *****************

                                            #,                                       
                                            ###                                      
                                            ####                                     
                                            #####                                    
                                            ######                                   
                                           ########,                                 
                                     ,,################,,,,,                         
                               ,,#################################,,                 
                          ,,##########################################,,             
                       ,#########################################, ''#####,          
                    ,#############################################,,   '####,        
                  ,##################################################,,,,####,       
                ,###########''''           ''''###############################       
              ,#####''   ,,,,##########,,,,          '''####'''          '####       
            ,##' ,,,,###########################,,,                        '##       
           ' ,,###''''                  '''############,,,                           
         ,,##''                                '''############,,,,        ,,,,,,###''
      ,#''                                            '''#######################'''  
     '                                                          ''''####''''         
             ,#######,   #######,   ,#######,      ##                                
            ,#'     '#,  ##    ##  ,#'     '#,    #''#        ,####,    ,#,          
            ##       ##  ##   ,#'  ##            #'  '#       #'       ,# #          
            ##       ##  #######   ##           ,######,      #####,      #          
            '#,     ,#'  ##    ##  '#,     ,#' ,#      #,     #,   #      #          
             '#######'   ##     ##  '#######'  #'      '#     '####' #    #          



                #########################################################
                #                        -***-                          #
                #          Department of theory and spectroscopy        #
                #                                                       #
                #                      Frank Neese                      #
                #                                                       #
                #     Directorship, Architecture, Infrastructure        #
                #                    SHARK, DRIVERS                     #
                #        Core code/Algorithms in most modules           #
                #                                                       #
                #        Max Planck Institute fuer Kohlenforschung      #
                #                Kaiser Wilhelm Platz 1                 #
                #                 D-45470 Muelheim/Ruhr                 #
                #                      Germany                          #
                #                                                       #
                #                  All rights reserved                  #
                #                        -***-                          #
                #########################################################


                         Program Version 6.1.0  -  RELEASE   -
                                (GIT: $679e74b$)
                          ($2025-06-10 18:02:51 +0200$)


 With contributions from (in alphabetic order):
[Max-Planck-Institut fuer Kohlenforschung]                               
  Daniel Aravena         : Magnetic Suceptibility                        
  Michael Atanasov       : Ab Initio Ligand Field Theory (pilot matlab implementation)
  Alexander A. Auer      : GIAO ZORA, VPT2 properties, NMR spectrum      
  Ute Becker             : All parallelization in ORCA, NUMFREQ, NUMCALC 
  Giovanni Bistoni       : ED, misc. LED, open-shell LED, HFLD           
  Dmytro Bykov           : pre 5.0 version of the SCF Hessian            
  Marcos Casanova-Páez   : Triplet and SCS-CIS(D). UHF-(DLPNO)-IP/EA/STEOM-CCSD. UHF-CVS-IP/STEOM-CCSD   
  Vijay G. Chilkuri      : MRCI spin determinant printing, contributions to CSF-ICE 
  Pauline Colinet        : FMM embedding                                 
  Dipayan Datta          : RHF DLPNO-CCSD density                        
  Achintya Kumar Dutta   : EOM-CC, STEOM-CC                              
  Nicolas Foglia         : Exact transition moments, OPA infrastructure, MCD improvements    
  Dmitry Ganyushin       : Spin-Orbit,Spin-Spin,Magnetic field MRCI      
  Miquel Garcia-Rates    : C-PCM and meta-GGA Hessian, CCSD/C-PCM, Gaussian charge scheme 
  Tiago L. C. Gouveia    : GS-ROHF, GS-ROCIS                             
  Yang Guo               : DLPNO-NEVPT2, F12-NEVPT2, CIM, IAO-localization        
  Andreas Hansen         : Spin unrestricted coupled pair/coupled cluster methods 
  Ingolf Harden          : AUTO-CI MPn and infrastructure                
  Benjamin Helmich-Paris : MC-RPA, TRAH-(SCF,CASSCF), AVAS, COSX integrals, SCF dyn. polar., MC-PDFT, srDFT 
  Lee Huntington         : MR-EOM, pCC                                   
  Robert Izsak           : Overlap fitted RIJCOSX, COSX-SCS-MP3, EOM     
  Riya Kayal             : Wick's Theorem for AUTO-CI, AUTO-CI UHF-CCSDT 
  Emily Kempfer          : AUTO-CI RHF CISDT and CCSDT, approximate NEVPT4
  Christian Kollmar      : KDIIS, OOCD, Brueckner-CCSD(T), CCSD density, CASPT2, CASPT2-K, improved NEVPT2 
  Axel Koslowski         : Symmetry handling                             
  Simone Kossmann        : meta-GGA functionals, TD-DFT gradient, OOMP2, (MP2 Hessian; deprecated post 5.0) 
  Lucas Lang             : DCDCAS, Hyperfine gauge corrections, ICE-SOC+SSC
  Marvin Lechner         : AUTO-CI (C++ implementation), FIC-MRCC        
  Spencer Leger          : CASSCF response                               
  Dagmar Lenk            : GEPOL surface, SMD, ORCA-2-JSON               
  Dimitrios Liakos       : Extrapolation schemes; Compound Job, Property file
  Dimitrios Manganas     : Further ROCIS development; embedding schemes. LFT, Crystal Embedding 
  Dimitrios Pantazis     : SARC Basis sets                               
  Anastasios Papadopoulos: AUTO-CI, single reference methods and gradients 
  Taras Petrenko         : pre 6.0 DFT Hessian and TD-DFT gradient,  ECA, NRVS 
  Petra Pikulova         : Analytic Raman intensities                    
  Peter Pinski           : DLPNO-MP2, DLPNO-MP2 Gradient                 
  Shashank Vittal Rao    : ES-AILFT, MagRelax                            
  Christoph Reimann      : Effective Core Potentials                     
  Marius Retegan         : Local ZFS, SOC                                
  Christoph Riplinger    : Optimizer, TS searches, QM/MM, DLPNO-CCSD(T), (RO)-DLPNO pert. Triples 
  Michael Roemelt        : Original ROCIS implementation, recursive CI coupling coefficients
  Masaaki Saitow         : Open-shell DLPNO-CCSD energy and density      
  Barbara Sandhoefer     : DKH picture change effects                    
  Yorick L. A. Schmerwitz: GMF and freeze-and-release deltaSCF, NEB S-IDPP initial path                    
  Kantharuban Sivalingam : CASSCF convergence/infrastructure, NEVPT2, NEVPT3, NEVPT4(SD), FIC-MRCI and CEPA variants
  Bernardo de Souza      : ESD, SOC TD-DFT                               
  Georgi L. Stoychev     : AutoAux, RI-MP2 NMR, DLPNO-MP2 response, X2C  
  Van Anh Tran           : RI-MP2 g-tensors                              
  Willem Van den Heuvel  : Paramagnetic NMR                              
  Zikuan Wang            : NOTCH, Electric field optimization            
  Frank Wennmohs         : Technical directorship and infrastructure     
  Hang Xu                : AUTO-CI-Response properties                   
                                                                         
[FACCTs GmbH]                                                            
  Markus Bursch, Nicolas Foglia, Miquel Garcia-Rates, Ingolf Harden, Hagen Neugebauer, Anastasios Papadopoulos, 
  Christoph Riplinger, Bernardo de Souza, Georgi L. Stoychev                                                    
                                                                 
  APM, various basis sets, CI-OPT, improved COSX, DLPNO-Multilevel,           
  DOCKER, DRACO, updates on ESD, Fragmentator, GOAT, IRC, LR-CPCM, L-BFGS, MBIS, meta-GGA TD-DFT gradient, ML-optimized integration grids, 
  MM, NACMEs, nearIR, NEB, NEB-TS, NL-DFT gradient (VV10), 2- and 3-layer-ONIOM, interface openCOSMO-RS, QMMM,   
  Crystal-QMMM, RESP, rigid body optimization, SF, symmetry and pop. for TD-DFT, various functionals, SOLVATOR                                   
                                                                         
[Other institutions]                                                     
  V. Asgeirsson          : NEB                                           
  Christoph Bannwarth    : sTDA-DFT, sTD-DFT, PBEh-3c, B97-3c, D3        
  Giovanni Bistoni       : ETS/NOCV, ADLD/ADEX, COVALED                  
  Martin Brehm           : Molecular dynamics                            
  Ronald Cardenas        : ETS/NOCV                                      
  Martina Colucci        : COVALED                                       
  Sebastian Ehlert       : rSCAN, r2SCAN, r2SCAN-3c, D4, dhf basis sets  
  Marvin Friede          : D4 for Fr, Ra, Ac-Lr                          
  Lars Goerigk           : TD-DFT with DH, B97 family of functionals     
  Stefan Grimme          : VdW corrections, initial TS optimization, DFT functionals, gCP, sTDA/sTD-DF 
  Waldemar Hujo          : DFT-NL                                        
  H. Jonsson             : NEB                                           
  Holger Kruse           : gCP                                           
  Marcel Mueller         : wB97X-3c, vDZP basis set                      
  Hagen Neugebauer       : wr2SCAN, Native XTB                           
  Gianluca Regni         : ADLD/ADEX                                     
  Tobias Risthaus        : pre 6.0 range-separated hybrid DFT and stability analysis
  Lukas Wittmann         : regularized MP2, r2SCAN double-hybrids, wr2SCAN        
                                                                         
We gratefully acknowledge several colleagues who have allowed us to      
interface, adapt or use parts of their codes:                            
  Ed Valeev, F. Pavosevic, A. Kumar             : LibInt (2-el integral package), F12 methods 
  Garnet Chan, S. Sharma, J. Yang, R. Olivares  : DMRG                   
  Ulf Ekstrom                                   : XCFun DFT Library      
  Mihaly Kallay                                 : mrcc  (arbitrary order and MRCC methods)
  Frank Weinhold                                : gennbo (NPA and NBO analysis)           
  Simon Mueller                                 : openCOSMO-RS                            
  Christopher J. Cramer and Donald G. Truhlar   : smd solvation model                     
  S Lehtola, MJT Oliveira, MAL Marques          : LibXC Library                           
  Liviu Ungur et al                             : ANISO software                          


 Your calculation uses the libint2 library for the computation of 2-el integrals
 For citations please refer to: http://libint.valeyev.net

 Your ORCA version has been built with support for libXC version: 7.0.0
 For citations please refer to: https://libxc.gitlab.io

 This ORCA versions uses:
   CBLAS   interface :  Fast vector & matrix operations
   LAPACKE interface :  Fast linear algebra routines
   SCALAPACK package :  Parallel linear algebra routines
   Shared memory     :  Shared parallel matrices
   BLAS/LAPACK       :  OpenBLAS 0.3.29  USE64BITINT DYNAMIC_ARCH NO_AFFINITY Haswell SINGLE_THREADED
        Core in use  :  Haswell
   Copyright (c) 2011-2014, The OpenBLAS Project


  ***********************************
  * Starting time: Tue Sep  2 10:00:10 2025
  * Host name:     chemlab03
  * Process ID:    113745
  * Working dir.:  /home/vivek/mm-project/vivek/xtb-goat/MP2-opt/h/0
  ***********************************



***************************************
The coordinates will be read from file: /home/vivek/mm-project/vivek/xtb-goat/xtb-goat/h/H_CONF/0.xyz
***************************************


================================================================================

----- Orbital basis set information -----
Your calculation utilizes the basis: 6-31G**
   H-He, Li-Ne : W. J. Hehre, R. Ditchfield and J.A. Pople, J. Chem. Phys. 56, 2257 (1972).
                 Note: He and Ne are unpublished basis sets taken from the Gaussian program.
                 Note: Li and B from J. D. Dill and J. A. Pople, J. Chem. Phys. 62, 2921 (1975).
   Na - Ar     : M. M. Francl, W. J. Pietro, W. J. Hehre, J. S. Binkley, M. S. Gordon, 
                 D. J. DeFrees and J. A. Pople, J. Chem. Phys. 77, 3654 (1982).
   K - Zn      : V. A. Rassolov, J. A. Pople, M. A. Ratner, and T. L. Windus, J. Chem. Phys. 109, 1223 (1998).

================================================================================
                                        WARNINGS
                       Please study these warnings very carefully!
================================================================================

WARNING: Old DensityContainer found on disk!
         Will remove this file - 
         If you want to keep old densities, please start your calculation with a different basename. 


WARNING: The frozen-core approximation for MP2-gradient calculations is turned on by default.

WARNING: Geometry Optimization
  ===> : Switching off AutoStart
         For restart on a previous wavefunction, please use MOREAD

WARNING: Post HF methods need fully converged wavefunctions
  ===> : Setting SCFConvForced true
         You can overwrite this default with %scf ConvForced false 


================================================================================
                                       INPUT FILE
================================================================================
NAME = 0.inp
|  1> ! MP2 6-31G** opt
|  2> 
|  3> * xyzfile 0 1 /home/vivek/mm-project/vivek/xtb-goat/xtb-goat/h/H_CONF/0.xyz
|  4> 
|  5>                          ****END OF INPUT****
================================================================================

                       *****************************
                       * Geometry Optimization Run *
                       *****************************

Geometry optimization settings:
Update method            Update   .... BFGS
Choice of coordinates    CoordSys .... (2022) Redundant Internals
Initial Hessian          InHess   .... Almloef's Model
Max. no of cycles        MaxIter  .... 72

Convergence Tolerances:
Energy Change            TolE     ....  5.0000e-06 Eh
Max. Gradient            TolMAXG  ....  3.0000e-04 Eh/bohr
RMS Gradient             TolRMSG  ....  1.0000e-04 Eh/bohr
Max. Displacement        TolMAXD  ....  4.0000e-03 bohr
RMS Displacement         TolRMSD  ....  2.0000e-03 bohr
Strict Convergence                .... False

------------------------------------------------------------------------------
                        ORCA OPTIMIZATION COORDINATE SETUP
------------------------------------------------------------------------------

The optimization will be done in redundant internal coordinates (2022)
Making redundant internal coordinates   ...  (2022 redundants) done
Evaluating the initial hessian          ...  (Almloef) done
Evaluating the coordinates              ...  done
Calculating the B-matrix                .... done
Calculating the G-matrix                .... done
The number of degrees of freedom        ....  120

    -----------------------------------------------------------------
                    Redundant Internal Coordinates


    -----------------------------------------------------------------
         Definition                    Initial Value    Approx d2E/dq
    -----------------------------------------------------------------
      1. B(N   1,C   0)                  1.4709         0.415787   
      2. B(C   3,N   1)                  1.4600         0.432702   
      3. B(N   4,H   2)                  1.0209         0.415708   
      4. B(N   4,C   0)                  1.4372         0.470437   
      5. B(H   5,C   0)                  1.0940         0.354873   
      6. B(H   6,C   0)                  1.0997         0.347539   
      7. B(C   7,C   3)                  1.5492         0.348077   
      8. B(C   7,N   4)                  1.4512         0.446890   
      9. B(H   8,N   1)                  1.0124         0.428932   
     10. B(H   9,C   7)                  1.0869         0.364197   
     11. B(H  10,C   7)                  1.0954         0.352978   
     12. B(C  11,C   3)                  1.5368         0.364307   
     13. B(H  12,C   3)                  1.0949         0.353614   
     14. B(C  13,C  11)                  1.5296         0.374156   
     15. B(H  14,C  11)                  1.0894         0.360924   
     16. B(H  15,C  11)                  1.0902         0.359807   
     17. B(C  16,C  13)                  1.5339         0.368326   
     18. B(N  18,H   2)                  2.0281         0.010277   
     19. B(N  18,H  17)                  1.0179         0.420280   
     20. B(N  18,C  13)                  1.4536         0.442938   
     21. B(H  19,N  18)                  1.0132         0.427647   
     22. B(O  20,C  16)                  1.3708         0.600515   
     23. B(H  21,C  13)                  1.1030         0.343283   
     24. B(H  22,O  20)                  0.9674         0.506028   
     25. B(O  23,H  17)                  2.2063         0.010000   
     26. B(O  23,C  16)                  1.2193         1.047492   
     27. A(N   4,C   0,H   6)          109.6220         0.332916   
     28. A(N   1,C   0,N   4)          105.8462         0.380283   
     29. A(N   1,C   0,H   5)          108.9937         0.327317   
     30. A(N   4,C   0,H   5)          111.7700         0.334071   
     31. A(H   5,C   0,H   6)          109.8743         0.288562   
     32. A(N   1,C   0,H   6)          110.6732         0.326193   
     33. A(C   3,N   1,H   8)          114.7276         0.337093   
     34. A(C   0,N   1,H   8)          114.0178         0.334864   
     35. A(C   0,N   1,C   3)          108.4432         0.374823   
     36. A(C  11,C   3,H  12)          109.2697         0.322024   
     37. A(N   1,C   3,H  12)          111.6800         0.329284   
     38. A(C   7,C   3,C  11)          114.5793         0.357466   
     39. A(N   1,C   3,C   7)          102.8133         0.365830   
     40. A(N   1,C   3,C  11)          107.7275         0.368700   
     41. A(C   7,C   3,H  12)          110.6297         0.319633   
     42. A(C   0,N   4,H   2)          108.4181         0.340047   
     43. A(H   2,N   4,C   7)          107.2649         0.337146   
     44. A(C   0,N   4,C   7)          103.7438         0.385078   
     45. A(C   3,C   7,H   9)          112.9810         0.321177   
     46. A(C   3,C   7,N   4)          105.6686         0.367859   
     47. A(N   4,C   7,H  10)          108.5765         0.330946   
     48. A(C   3,C   7,H  10)          109.5528         0.319539   
     49. A(N   4,C   7,H   9)          110.9102         0.332666   
     50. A(H   9,C   7,H  10)          109.0330         0.290444   
     51. A(H  14,C  11,H  15)          108.8718         0.290907   
     52. A(C  13,C  11,H  15)          108.0393         0.324358   
     53. A(C   3,C  11,H  15)          109.2526         0.322941   
     54. A(C  13,C  11,H  14)          110.5258         0.324524   
     55. A(C   3,C  11,H  14)          110.9055         0.323106   
     56. A(C   3,C  11,C  13)          109.1883         0.361892   
     57. A(C  11,C  13,C  16)          109.3570         0.362571   
     58. A(N  18,C  13,H  21)          112.6671         0.328943   
     59. A(C  16,C  13,H  21)          105.4738         0.321041   
     60. A(C  11,C  13,H  21)          108.6036         0.321867   
     61. A(C  16,C  13,N  18)          108.3534         0.370883   
     62. A(C  11,C  13,N  18)          112.1377         0.371887   
     63. A(O  20,C  16,O  23)          120.7149         0.468435   
     64. A(C  13,C  16,O  23)          122.9311         0.431512   
     65. A(C  13,C  16,O  20)          110.7638         0.390986   
     66. A(H  17,N  18,H  19)          108.7495         0.301283   
     67. A(C  13,N  18,H  19)          111.2307         0.338240   
     68. A(C  13,N  18,H  17)          107.9000         0.337262   
     69. A(C  16,O  20,H  22)          107.7441         0.366382   
     70. D(C   3,N   1,C   0,N   4)     23.3643         0.014744   
     71. D(H   8,N   1,C   0,N   4)    152.5145         0.014744   
     72. D(C   3,N   1,C   0,H   6)    -95.3346         0.014744   
     73. D(H   8,N   1,C   0,H   5)    -87.1255         0.014744   
     74. D(C   3,N   1,C   0,H   5)    143.7243         0.014744   
     75. D(C  11,C   3,N   1,H   8)    108.3466         0.015963   
     76. D(H  12,C   3,N   1,C   0)    117.1040         0.015963   
     77. D(C   7,C   3,N   1,C   0)     -1.5322         0.015963   
     78. D(C  11,C   3,N   1,C   0)   -122.9010         0.015963   
     79. D(C   7,C   3,N   1,H   8)   -130.2846         0.015963   
     80. D(C   7,N   4,C   0,N   1)    -36.1166         0.018910   
     81. D(H   2,N   4,C   0,H   5)    -40.8533         0.018910   
     82. D(H   2,N   4,C   0,N   1)     77.6794         0.018910   
     83. D(C   7,N   4,C   0,H   5)   -154.6493         0.018910   
     84. D(H   2,N   4,C   0,H   6)   -162.9272         0.018910   
     85. D(H  10,C   7,N   4,C   0)    -82.3897         0.017034   
     86. D(H   9,C   7,N   4,H   2)     43.2070         0.017034   
     87. D(H   9,C   7,N   4,C   0)    157.8286         0.017034   
     88. D(C   3,C   7,N   4,C   0)     35.0598         0.017034   
     89. D(H   9,C   7,C   3,H  12)     98.6579         0.010000   
     90. D(H   9,C   7,C   3,C  11)    -25.3950         0.010000   
     91. D(C   3,C   7,N   4,H   2)    -79.5618         0.017034   
     92. D(N   4,C   7,C   3,H  12)   -139.9033         0.010000   
     93. D(N   4,C   7,C   3,C  11)     96.0438         0.010000   
     94. D(N   4,C   7,C   3,N   1)    -20.5339         0.010000   
     95. D(H   9,C   7,C   3,N   1)   -141.9727         0.010000   
     96. D(H  14,C  11,C   3,N   1)    151.5877         0.010631   
     97. D(C  13,C  11,C   3,H  12)    151.0666         0.010631   
     98. D(C  13,C  11,C   3,C   7)    -84.1598         0.010631   
     99. D(H  14,C  11,C   3,C   7)     37.8691         0.010631   
    100. D(C  13,C  11,C   3,N   1)     29.5589         0.010631   
    101. D(H  14,C  11,C   3,H  12)    -86.9045         0.010631   
    102. D(N  18,C  13,C  11,H  15)   -166.1725         0.011176   
    103. D(N  18,C  13,C  11,H  14)    -47.1491         0.011176   
    104. D(N  18,C  13,C  11,C   3)     75.1083         0.011176   
    105. D(C  16,C  13,C  11,H  15)     73.6138         0.011176   
    106. D(C  16,C  13,C  11,H  14)   -167.3629         0.011176   
    107. D(C  16,C  13,C  11,C   3)    -45.1055         0.011176   
    108. D(O  23,C  16,C  13,N  18)     20.3717         0.010166   
    109. D(O  23,C  16,C  13,C  11)    142.8763         0.010166   
    110. D(O  20,C  16,C  13,H  21)     53.1851         0.010166   
    111. D(O  20,C  16,C  13,N  18)    174.0584         0.010166   
    112. D(O  20,C  16,C  13,C  11)    -63.4370         0.010166   
    113. D(H  19,N  18,C  13,H  21)    -34.8028         0.017936   
    114. D(H  19,N  18,C  13,C  16)   -151.1096         0.017936   
    115. D(H  19,N  18,C  13,C  11)     88.0949         0.017936   
    116. D(H  17,N  18,C  13,H  21)     84.3969         0.017936   
    117. D(H  17,N  18,C  13,C  16)    -31.9099         0.017936   
    118. D(H  17,N  18,C  13,C  11)   -152.7054         0.017936   
    119. D(H  22,O  20,C  16,O  23)    -10.2061         0.026341   
    120. D(H  22,O  20,C  16,C  13)   -164.5630         0.026341   
    -----------------------------------------------------------------

Number of atoms                         .... 24
Number of degrees of freedom            .... 120


         *************************************************************
         *                GEOMETRY OPTIMIZATION CYCLE   1            *
         *************************************************************
---------------------------------
CARTESIAN COORDINATES (ANGSTROEM)
---------------------------------
  C     -8.621041    2.279175    0.057762
  N     -7.287317    2.389129    0.668102
  H     -8.549968    3.936565   -1.074983
  C     -7.150365    3.724901    1.241309
  N     -9.032745    3.625593   -0.230898
  H     -8.548174    1.673641   -0.850430
  H     -9.331874    1.817881    0.758610
  C     -8.499449    4.394513    0.878337
  H     -7.059659    1.631713    1.300099
  H     -8.394257    5.442264    0.608990
  H     -9.189736    4.310825    1.724790
  C     -5.917435    4.383894    0.602965
  H     -7.018271    3.687323    2.327610
  C     -5.725880    3.829537   -0.809692
  H     -6.025752    5.467553    0.576607
  H     -5.032189    4.132099    1.187364
  C     -5.892043    2.304921   -0.784411
  H     -6.827936    3.696194   -2.490925
  N     -6.689183    4.379435   -1.749226
  H     -6.350303    5.241513   -2.159788
  O     -4.919819    1.722842   -0.013029
  H     -4.681946    4.006704   -1.118667
  H     -4.907559    0.777477   -0.217920
  O     -6.429390    1.681679   -1.684200

----------------------------
CARTESIAN COORDINATES (A.U.)
----------------------------
  NO LB      ZA    FRAG     MASS         X           Y           Z
   0 C     6.0000    0    12.011  -16.291406    4.307016    0.109155
   1 N     7.0000    0    14.007  -13.771033    4.514799    1.262530
   2 H     1.0000    0     1.008  -16.157098    7.439029   -2.031424
   3 C     6.0000    0    12.011  -13.512232    7.039043    2.345735
   4 N     7.0000    0    14.007  -17.069414    6.851379   -0.436333
   5 H     1.0000    0     1.008  -16.153707    3.162723   -1.607079
   6 H     1.0000    0     1.008  -17.634685    3.435298    1.433565
   7 C     6.0000    0    12.011  -16.061631    8.304427    1.659815
   8 H     1.0000    0     1.008  -13.340823    3.083491    2.456830
   9 H     1.0000    0     1.008  -15.862847   10.284389    1.150824
  10 H     1.0000    0     1.008  -17.366085    8.146278    3.259381
  11 C     6.0000    0    12.011  -11.182331    8.284359    1.139438
  12 H     1.0000    0     1.008  -13.262609    6.968031    4.398546
  13 C     6.0000    0    12.011  -10.820344    7.236776   -1.530096
  14 H     1.0000    0     1.008  -11.387022   10.332177    1.089630
  15 H     1.0000    0     1.008   -9.509458    7.808535    2.243792
  16 C     6.0000    0    12.011  -11.134347    4.355670   -1.482321
  17 H     1.0000    0     1.008  -12.902930    6.984795   -4.707165
  18 N     7.0000    0    14.007  -12.640725    8.275934   -3.305559
  19 H     1.0000    0     1.008  -12.000333    9.905025   -4.081408
  20 O     8.0000    0    15.999   -9.297110    3.255700   -0.024621
  21 H     1.0000    0     1.008   -8.847596    7.571573   -2.113974
  22 H     1.0000    0     1.008   -9.273943    1.469219   -0.411809
  23 O     8.0000    0    15.999  -12.149786    3.177913   -3.182676

--------------------------------
INTERNAL COORDINATES (ANGSTROEM)
--------------------------------
 C      0   0   0     0.000000000000     0.00000000     0.00000000
 N      1   0   0     1.470858365757     0.00000000     0.00000000
 H      1   2   0     2.008757301085    98.06131740     0.00000000
 C      2   1   3     1.460003752733   108.44322926    51.77522422
 N      3   1   2     1.020910019386    42.75296575   251.66288296
 H      1   2   3     1.093980456497   108.99371403    91.94907912
 H      1   2   3     1.099664664101   110.67318639   212.89012881
 C      5   3   1     1.451221094629   107.26490093   111.45185257
 H      2   1   3     1.012385893512   114.01779286   180.92544098
 H      8   5   3     1.086920165271   110.91015877    43.20698616
 H      8   5   3     1.095437876617   108.57648301   162.98871048
 C      4   2   1     1.536838407365   107.72751023   237.09895379
 H      4   2   1     1.094947977757   111.68004215   117.10398987
 C     12   4   2     1.529576424394   109.18833796    29.55886024
 H     12   4   2     1.089377731076   110.90551455   151.58774378
 H     12   4   2     1.090221933344   109.25263338   271.59874508
 C     14  12   4     1.533851821445   109.35703626   314.89452910
 H     14  12   4     2.014659275573   136.56820227    56.40280371
 N     18  14  12     1.017932944909    43.36195195    38.15869131
 H     19  18  14     1.013202500103   108.74947533   120.76435593
 O     17  14  12     1.370789883272   110.76375796   296.56299873
 H     14  12   4     1.103019020225   108.60357238   200.27266462
 H     21  17  14     0.967391289538   107.74409995   195.43703147
 O     17  14  12     1.219341213352   122.93106459   142.87634926

---------------------------
INTERNAL COORDINATES (A.U.)
---------------------------
 C      0   0   0     0.000000000000     0.00000000     0.00000000
 N      1   0   0     2.779519493068     0.00000000     0.00000000
 H      1   2   0     3.796001168566    98.06131740     0.00000000
 C      2   1   3     2.759007247163   108.44322926    51.77522422
 N      3   1   2     1.929240344015    42.75296575   251.66288296
 H      1   2   3     2.067323458641   108.99371403    91.94907912
 H      1   2   3     2.078065054302   110.67318639   212.89012881
 C      5   3   1     2.742410428618   107.26490093   111.45185257
 H      2   1   3     1.913132080582   114.01779286   180.92544098
 H      8   5   3     2.053981441799   110.91015877    43.20698616
 H      8   5   3     2.070077583530   108.57648301   162.98871048
 C      4   2   1     2.904203702012   107.72751023   237.09895379
 H      4   2   1     2.069151808852   111.68004215   117.10398987
 C     12   4   2     2.890480543008   109.18833796    29.55886024
 H     12   4   2     2.058625568125   110.90551455   151.58774378
 H     12   4   2     2.060220879213   109.25263338   271.59874508
 C     14  12   4     2.898559872547   109.35703626   314.89452910
 H     14  12   4     3.807154283997   136.56820227    56.40280371
 N     18  14  12     1.923614488574    43.36195195    38.15869131
 H     19  18  14     1.914675243399   108.74947533   120.76435593
 O     17  14  12     2.590417466534   110.76375796   296.56299873
 H     14  12   4     2.084403868730   108.60357238   200.27266462
 H     21  17  14     1.828104601567   107.74409995   195.43703147
 O     17  14  12     2.304220957038   122.93106459   142.87634926

---------------------
BASIS SET INFORMATION
---------------------
There are 4 groups of distinct atoms

 Group   1 Type C   : 10s4p1d contracted to 3s2p1d pattern {631/31/1}
 Group   2 Type N   : 10s4p1d contracted to 3s2p1d pattern {631/31/1}
 Group   3 Type H   : 4s1p contracted to 2s1p pattern {31/1}
 Group   4 Type O   : 10s4p1d contracted to 3s2p1d pattern {631/31/1}

Atom   0C    basis set group =>   1
Atom   1N    basis set group =>   2
Atom   2H    basis set group =>   3
Atom   3C    basis set group =>   1
Atom   4N    basis set group =>   2
Atom   5H    basis set group =>   3
Atom   6H    basis set group =>   3
Atom   7C    basis set group =>   1
Atom   8H    basis set group =>   3
Atom   9H    basis set group =>   3
Atom  10H    basis set group =>   3
Atom  11C    basis set group =>   1
Atom  12H    basis set group =>   3
Atom  13C    basis set group =>   1
Atom  14H    basis set group =>   3
Atom  15H    basis set group =>   3
Atom  16C    basis set group =>   1
Atom  17H    basis set group =>   3
Atom  18N    basis set group =>   2
Atom  19H    basis set group =>   3
Atom  20O    basis set group =>   4
Atom  21H    basis set group =>   3
Atom  22H    basis set group =>   3
Atom  23O    basis set group =>   4
------------------------------------------------------------------------------
                             ORCA STARTUP CALCULATIONS
------------------------------------------------------------------------------
------------------------------------------------------------------------------
                   ___                                                        
                  /   \      - P O W E R E D   B Y -                         
                 /     \                                                     
                 |  |  |   _    _      __       _____    __    __             
                 |  |  |  | |  | |    /  \     |  _  \  |  |  /  |          
                  \  \/   | |  | |   /    \    | | | |  |  | /  /          
                 / \  \   | |__| |  /  /\  \   | |_| |  |  |/  /          
                |  |  |   |  __  | /  /__\  \  |    /   |      \           
                |  |  |   | |  | | |   __   |  |    \   |  |\   \          
                \     /   | |  | | |  |  |  |  | |\  \  |  | \   \       
                 \___/    |_|  |_| |__|  |__|  |_| \__\ |__|  \__/        
                                                                              
                      - O R C A' S   B I G   F R I E N D -                    
                                      &                                       
                       - I N T E G R A L  F E E D E R -                       
                                                                              
 v1 FN, 2020, v2 2021, v3 2022-2024                                           
------------------------------------------------------------------------------


----------------------
SHARK INTEGRAL PACKAGE
----------------------

Number of atoms                             ...     24
Number of basis functions                   ...    219
Number of shells                            ...    105
Maximum angular momentum                    ...      2
Integral batch strategy                     ... SHARK/LIBINT Hybrid
RI-J (if used) integral strategy            ... SPLIT-RIJ (Revised 2003 algorithm where possible)
Printlevel                                  ...      1
Contraction scheme used                     ... SEGMENTED contraction
Prescreening option                         ... SCHWARTZ
   Thresh                                   ... 2.500e-11
   Tcut                                     ... 2.500e-12
   Tpresel                                  ... 2.500e-12 
Coulomb Range Separation                    ... NOT USED
Exchange Range Separation                   ... NOT USED
Multipole approximations                    ... NOT USED
Finite Nucleus Model                        ... NOT USED
CABS basis                                  ... NOT available
Auxiliary Coulomb fitting basis             ... NOT available
Auxiliary J/K fitting basis                 ... NOT available
Auxiliary Correlation fitting basis         ... NOT available
Auxiliary 'external' fitting basis          ... NOT available

Checking pre-screening integrals            ... done (  0.0 sec) Dimension = 105
   => SHARK Basis and OBASIS are compatible. Storing Pre-screening
Shell pair information
Shell pair cut-off parameter TPreSel        ...   2.5e-12
Total number of shell pairs                 ...      5565
Shell pairs after pre-screening             ...      5177
Total number of primitive shell pairs       ...     26835
Primitive shell pairs kept                  ...     16451
          la=0 lb=0:   1637 shell pairs
          la=1 lb=0:   1900 shell pairs
          la=1 lb=1:    581 shell pairs
          la=2 lb=0:    624 shell pairs
          la=2 lb=1:    369 shell pairs
          la=2 lb=2:     66 shell pairs

Checking whether 4 symmetric matrices of dimension 219 fit in memory
:Max Core in MB      =   4096.00
 MB in use           =      8.18
 MB left             =   4087.82
 MB needed           =      0.74
 Data fit in memory  = YES
Calculating Nuclear repulsion               ... done (  0.0 sec) ENN=    728.914199555911 Eh

Diagonalization of the overlap matrix:
Smallest eigenvalue                        ... 2.307e-03
Time for diagonalization                   ...    0.003 sec
Threshold for overlap eigenvalues          ... 1.000e-07
Number of eigenvalues below threshold      ... 0
Time for construction of square roots      ...    0.001 sec
Total time needed                          ...    0.004 sec

-------------------
DFT GRID GENERATION
-------------------

General Integration Accuracy     IntAcc      ... 4.388
Radial Grid Type                 RadialGrid  ... OptM3 with GC (2021)
Angular Grid (max. ang.)         AngularGrid ... 4 (Lebedev-302)
Angular grid pruning method      GridPruning ... 4 (adaptive)
Weight generation scheme         WeightScheme... mBecke (2022)
Basis function cutoff            BFCut       ... 1.0000e-11
Integration weight cutoff        WCut        ... 1.0000e-14
Partially contracted basis set               ... off
Rotationally invariant grid construction     ... off
Angular grids for H and He will be reduced by one unit

Total number of grid points                  ...   106956
Total number of batches                      ...     1682
Average number of points per batch           ...       63
Average number of grid points per atom       ...     4456
Grids setup in   0.5 sec
Initializing property integral containers    ... done (  0.0 sec)

SHARK setup successfully completed in   0.5 seconds

Maximum memory used throughout the entire STARTUP-calculation: 44.3 MB
-------------------------------------------------------------------------------
                                 ORCA GUESS
                   Start orbitals & Density for SCF / CASSCF
-------------------------------------------------------------------------------

------------
SCF SETTINGS
------------
Hamiltonian:
 Ab initio Hamiltonian  Method          .... Hartree-Fock(GTOs)


General Settings:
 Integral files         IntName         .... 0
 Hartree-Fock type      HFTyp           .... RHF
 Total Charge           Charge          ....    0
 Multiplicity           Mult            ....    1
 Number of Electrons    NEL             ....   86
 Basis Dimension        Dim             ....  219
 Nuclear Repulsion      ENuc            ....    728.9141995559 Eh

Convergence Acceleration:
 AO-DIIS                CNVDIIS         .... on
   Start iteration      DIISMaxIt       ....    12
   Startup error        DIISStart       ....  0.200000
   # of expansion vecs  DIISMaxEq       ....     5
   Bias factor          DIISBfac        ....   1.050
   Max. coefficient     DIISMaxC        ....  10.000
 MO-DIIS                CNVKDIIS        .... off
 Trust-Rad. Augm. Hess. CNVTRAH         .... auto
   Auto Start mean grad. ratio tolernc. ....  1.125000
   Auto Start start iteration           ....    50
   Auto Start num. interpolation iter.  ....    10
   Max. Number of Micro iterations      ....    24
   Max. Number of Macro iterations      .... Maxiter - #DIIS iter
   Number of Davidson start vectors     ....     2
   Converg. threshold    (grad. norm)   ....   1.000e-05
   Grad. Scal. Fac. for Micro threshold ....   0.100
   Minimum threshold for Micro iter.    ....   1.000e-02
   NR start threshold (gradient norm)   ....   1.000e-04
   Initial trust radius                 ....   0.400
   Minimum AH scaling param. (alpha)    ....   1.000
   Maximum AH scaling param. (alpha)    .... 1000.000
   Quad. conv. algorithm                .... NR
   White noise on init. David. guess    .... on
   Maximum white noise                  ....   0.010
   Pseudo random numbers                .... off
   Inactive MOs                         .... canonical
   Orbital update algorithm             .... Taylor
   Preconditioner                       .... Diag
   Full preconditioner red. dimension   ....   250
 SOSCF                 CNVSOSCF           .... on
   Start iteration     SOSCFMaxIt         ....   150
   Startup grad/error  SOSCFStart         ....  0.003300
   Hessian update      SOSCFHessUp        .... L-BFGS
   Autom. constraints  SOSCFAutoConstrain .... off
 Level Shifting         CNVShift        .... on
   Level shift para.    LevelShift      ....    0.2500
   Turn off err/grad.   ShiftErr        ....    0.0010
 Zerner damping         CNVZerner       .... off
 Static damping         CNVDamp         .... on
   Fraction old density DampFac         ....    0.7000
   Max. Damping (<1)    DampMax         ....    0.9800
   Min. Damping (>=0)   DampMin         ....    0.0000
   Turn off err/grad.   DampErr         ....    0.1000

SCF Procedure:
 Maximum # iterations   MaxIter         ....   125
 SCF integral mode      SCFMode         .... Direct
   Integral package                     .... SHARK and LIBINT hybrid scheme
 Reset frequency        DirectResetFreq ....    20
 Integral Threshold     Thresh          ....  2.500e-11 Eh
 Primitive CutOff       TCut            ....  2.500e-12 Eh

Convergence Tolerance:
 Convergence Check Mode ConvCheckMode   .... Total+1el-Energy
 Convergence forced     ConvForced      .... 1
 Energy Change          TolE            ....  1.000e-08 Eh
 1-El. energy change                    ....  1.000e-05 Eh
 Orbital Gradient       TolG            ....  1.000e-05
 Orbital Rotation angle TolX            ....  1.000e-05
 DIIS Error             TolErr          ....  5.000e-07

------------------------------
INITIAL GUESS: MODEL POTENTIAL
------------------------------
Loading Hartree-Fock densities                     ... done
Calculating cut-offs                               ... done
Initializing the effective Hamiltonian             ... done
Setting up the integral package (SHARK)            ... done
Starting the Coulomb interaction                   ... done (   0.1 sec)
Making the grid                                    ... done (   0.1 sec)
Mapping shells                                     ... done
Starting the XC term evaluation                    ... done (   0.1 sec)
Transforming the Hamiltonian                       ... done (   0.0 sec)
Diagonalizing the Hamiltonian                      ... done (   0.0 sec)
Back transforming the eigenvectors                 ... done (   0.0 sec)
Now organizing SCF variables                       ... done
                      ------------------
                      INITIAL GUESS DONE (   0.3 sec)
                      ------------------
             **** ENERGY FILE WAS UPDATED (0.en.tmp) ****
Finished Guess after   0.3 sec
Maximum memory used throughout the entire GUESS-calculation: 14.8 MB

-------------------------------------------------------------------------------------------
                                      ORCA LEAN-SCF
                              memory conserving SCF solver
-------------------------------------------------------------------------------------------

----------------------------------------D-I-I-S--------------------------------------------
Iteration    Energy (Eh)           Delta-E    RMSDP     MaxDP     DIISErr   Damp  Time(sec)
-------------------------------------------------------------------------------------------
               ***  Starting incremental Fock matrix formation  ***
    1    -547.3802039521116285     0.00e+00  2.40e-03  6.08e-02  2.52e-01  0.700   3.8
    2    -547.5466698237024730    -1.66e-01  1.79e-03  4.24e-02  1.51e-01  0.700   3.6
                               ***Turning on AO-DIIS***
    3    -547.6441314230463604    -9.75e-02  1.00e-03  2.20e-02  8.38e-02  0.700   3.6
    4    -547.7058183753189269    -6.17e-02  2.38e-03  5.22e-02  5.84e-02  0.000   3.5
    5    -547.8440195560721122    -1.38e-01  2.84e-04  4.51e-03  4.97e-03  0.000   3.6
                              *** Initializing SOSCF ***
---------------------------------------S-O-S-C-F--------------------------------------
Iteration    Energy (Eh)           Delta-E    RMSDP     MaxDP     MaxGrad    Time(sec)
--------------------------------------------------------------------------------------
    6    -547.8446116806552482    -5.92e-04  1.52e-04  2.39e-03  2.29e-03     3.4
               *** Restarting incremental Fock matrix formation ***
    7    -547.8447439406874082    -1.32e-04  8.16e-05  1.43e-03  8.17e-04     3.8
    8    -547.8447748821730556    -3.09e-05  8.02e-05  1.71e-03  3.57e-04     3.2
    9    -547.8447836651213265    -8.78e-06  1.44e-05  3.93e-04  1.34e-04     3.1
   10    -547.8447846650882411    -1.00e-06  4.91e-06  1.28e-04  2.08e-05     2.9
   11    -547.8447847396395218    -7.46e-08  2.12e-06  5.55e-05  1.52e-05     2.6
   12    -547.8447847582659733    -1.86e-08  5.80e-07  1.20e-05  3.57e-06     2.4
   13    -547.8447847612416126    -2.98e-09  1.77e-07  3.38e-06  9.72e-07     2.1
                 **** Energy Check signals convergence ****

               *****************************************************
               *                     SUCCESS                       *
               *           SCF CONVERGED AFTER  13 CYCLES          *
               *****************************************************

             **** ENERGY FILE WAS UPDATED (0.en.tmp) ****

----------------
TOTAL SCF ENERGY
----------------

Total Energy       :       -547.84478476249058 Eh          -14907.61448 eV

Components:
Nuclear Repulsion  :        728.91419955591084 Eh           19834.76375 eV
Electronic Energy  :      -1276.75898431840142 Eh          -34742.37823 eV
One Electron Energy:      -2196.54846941311234 Eh          -59771.12256 eV
Two Electron Energy:        919.78948509471093 Eh           25028.74433 eV

Virial components:
Potential Energy   :      -1095.26374299719191 Eh          -29803.64163 eV
Kinetic Energy     :        547.41895823470134 Eh           14896.02715 eV
Virial Ratio       :          2.00077788049059

---------------
SCF CONVERGENCE
---------------

  Last Energy change         ...    2.9756e-09  Tolerance :   1.0000e-08
  Last MAX-Density change    ...    3.3847e-06  Tolerance :   1.0000e-07
  Last RMS-Density change    ...    1.7749e-07  Tolerance :   5.0000e-09
  Last DIIS Error            ...    2.2889e-03  Tolerance :   5.0000e-07
  Last Orbital Gradient      ...    9.7237e-07  Tolerance :   1.0000e-05
  Last Orbital Rotation      ...    2.1763e-06  Tolerance :   1.0000e-05


----------------
ORBITAL ENERGIES
----------------

  NO   OCC          E(Eh)            E(eV) 
   0   2.0000     -20.583649      -560.1096 
   1   2.0000     -20.503201      -557.9205 
   2   2.0000     -15.570246      -423.6879 
   3   2.0000     -15.547766      -423.0762 
   4   2.0000     -15.524222      -422.4355 
   5   2.0000     -11.375239      -309.5360 
   6   2.0000     -11.266248      -306.5702 
   7   2.0000     -11.263518      -306.4959 
   8   2.0000     -11.259914      -306.3978 
   9   2.0000     -11.242193      -305.9156 
  10   2.0000     -11.223698      -305.4123 
  11   2.0000      -1.429933       -38.9105 
  12   2.0000      -1.322888       -35.9976 
  13   2.0000      -1.279724       -34.8231 
  14   2.0000      -1.192571       -32.4515 
  15   2.0000      -1.150453       -31.3054 
  16   2.0000      -1.047347       -28.4998 
  17   2.0000      -0.973091       -26.4791 
  18   2.0000      -0.894408       -24.3381 
  19   2.0000      -0.836386       -22.7592 
  20   2.0000      -0.800824       -21.7915 
  21   2.0000      -0.768659       -20.9163 
  22   2.0000      -0.721030       -19.6202 
  23   2.0000      -0.701831       -19.0978 
  24   2.0000      -0.675348       -18.3771 
  25   2.0000      -0.666580       -18.1386 
  26   2.0000      -0.647430       -17.6175 
  27   2.0000      -0.625763       -17.0279 
  28   2.0000      -0.600500       -16.3404 
  29   2.0000      -0.596187       -16.2231 
  30   2.0000      -0.563384       -15.3305 
  31   2.0000      -0.556014       -15.1299 
  32   2.0000      -0.542839       -14.7714 
  33   2.0000      -0.539932       -14.6923 
  34   2.0000      -0.511861       -13.9284 
  35   2.0000      -0.511259       -13.9121 
  36   2.0000      -0.491141       -13.3646 
  37   2.0000      -0.476288       -12.9605 
  38   2.0000      -0.453111       -12.3298 
  39   2.0000      -0.412987       -11.2379 
  40   2.0000      -0.401363       -10.9216 
  41   2.0000      -0.371474       -10.1083 
  42   2.0000      -0.362253        -9.8574 
  43   0.0000       0.206796         5.6272 
  44   0.0000       0.227081         6.1792 
  45   0.0000       0.239714         6.5230 
  46   0.0000       0.255126         6.9423 
  47   0.0000       0.270337         7.3562 
  48   0.0000       0.277831         7.5602 
  49   0.0000       0.280718         7.6387 
  50   0.0000       0.304635         8.2895 
  51   0.0000       0.313642         8.5346 
  52   0.0000       0.324245         8.8232 
  53   0.0000       0.336246         9.1497 
*Only the first 10 virtual orbitals were printed.

                    ********************************
                    * MULLIKEN POPULATION ANALYSIS *
                    ********************************

-----------------------
MULLIKEN ATOMIC CHARGES
-----------------------
   0 C :    0.168646
   1 N :   -0.756812
   2 H :    0.323957
   3 C :    0.079456
   4 N :   -0.633432
   5 H :    0.167997
   6 H :    0.109330
   7 C :   -0.043188
   8 H :    0.302518
   9 H :    0.126118
  10 H :    0.119465
  11 C :   -0.213935
  12 H :    0.126371
  13 C :   -0.003479
  14 H :    0.120792
  15 H :    0.136082
  16 C :    0.908810
  17 H :    0.311461
  18 N :   -0.748056
  19 H :    0.277341
  20 O :   -0.684957
  21 H :    0.140291
  22 H :    0.357153
  23 O :   -0.691930
Sum of atomic charges:   -0.0000000

--------------------------------
MULLIKEN REDUCED ORBITAL CHARGES
--------------------------------
  0 C s       :     3.124409  s :     3.124409
      pz      :     1.031694  p :     2.627379
      px      :     0.737188
      py      :     0.858497
      dz2     :     0.010118  d :     0.079566
      dxz     :     0.017569
      dyz     :     0.015709
      dx2y2   :     0.022422
      dxy     :     0.013748

  1 N s       :     3.650375  s :     3.650375
      pz      :     1.472849  p :     4.068345
      px      :     1.404256
      py      :     1.191241
      dz2     :     0.004042  d :     0.038092
      dxz     :     0.004848
      dyz     :     0.012465
      dx2y2   :     0.012025
      dxy     :     0.004713

  2 H s       :     0.648478  s :     0.648478
      pz      :     0.013097  p :     0.027565
      px      :     0.009488
      py      :     0.004980

  3 C s       :     3.165659  s :     3.165659
      pz      :     1.000455  p :     2.687864
      px      :     0.937254
      py      :     0.750155
      dz2     :     0.017296  d :     0.067021
      dxz     :     0.007724
      dyz     :     0.010805
      dx2y2   :     0.016626
      dxy     :     0.014570

  4 N s       :     3.624090  s :     3.624090
      pz      :     1.166216  p :     3.967163
      px      :     1.733976
      py      :     1.066972
      dz2     :     0.006327  d :     0.042178
      dxz     :     0.011926
      dyz     :     0.008890
      dx2y2   :     0.006013
      dxy     :     0.009021

  5 H s       :     0.819225  s :     0.819225
      pz      :     0.007626  p :     0.012777
      px      :     0.001452
      py      :     0.003699

  6 H s       :     0.879100  s :     0.879100
      pz      :     0.004367  p :     0.011571
      px      :     0.004811
      py      :     0.002394

  7 C s       :     3.192737  s :     3.192737
      pz      :     0.906013  p :     2.786670
      px      :     0.894363
      py      :     0.986295
      dz2     :     0.012092  d :     0.063780
      dxz     :     0.017849
      dyz     :     0.011319
      dx2y2   :     0.014569
      dxy     :     0.007951

  8 H s       :     0.672379  s :     0.672379
      pz      :     0.009143  p :     0.025103
      px      :     0.005301
      py      :     0.010658

  9 H s       :     0.861473  s :     0.861473
      pz      :     0.001913  p :     0.012409
      px      :     0.001779
      py      :     0.008717

 10 H s       :     0.868639  s :     0.868639
      pz      :     0.005644  p :     0.011896
      px      :     0.004798
      py      :     0.001454

 11 C s       :     3.232733  s :     3.232733
      pz      :     0.923295  p :     2.934359
      px      :     0.986167
      py      :     1.024898
      dz2     :     0.010541  d :     0.046843
      dxz     :     0.011472
      dyz     :     0.005999
      dx2y2   :     0.013365
      dxy     :     0.005465

 12 H s       :     0.861462  s :     0.861462
      pz      :     0.009088  p :     0.012168
      px      :     0.001813
      py      :     0.001267

 13 C s       :     3.192735  s :     3.192735
      pz      :     0.884529  p :     2.741342
      px      :     0.959345
      py      :     0.897469
      dz2     :     0.018958  d :     0.069401
      dxz     :     0.014721
      dyz     :     0.009484
      dx2y2   :     0.019944
      dxy     :     0.006294

 14 H s       :     0.866650  s :     0.866650
      pz      :     0.001724  p :     0.012558
      px      :     0.001811
      py      :     0.009023

 15 H s       :     0.851360  s :     0.851360
      pz      :     0.003771  p :     0.012558
      px      :     0.006626
      py      :     0.002161

 16 C s       :     2.919132  s :     2.919132
      pz      :     0.598069  p :     2.025254
      px      :     0.576672
      py      :     0.850512
      dz2     :     0.033002  d :     0.146804
      dxz     :     0.032004
      dyz     :     0.027180
      dx2y2   :     0.032429
      dxy     :     0.022189

 17 H s       :     0.661958  s :     0.661958
      pz      :     0.009713  p :     0.026581
      px      :     0.006542
      py      :     0.010325

 18 N s       :     3.617322  s :     3.617322
      pz      :     1.292956  p :     4.097985
      px      :     1.586827
      py      :     1.218203
      dz2     :     0.003359  d :     0.032749
      dxz     :     0.006211
      dyz     :     0.012222
      dx2y2   :     0.004769
      dxy     :     0.006188

 19 H s       :     0.696636  s :     0.696636
      pz      :     0.006088  p :     0.026024
      px      :     0.006756
      py      :     0.013180

 20 O s       :     3.857421  s :     3.857421
      pz      :     1.764813  p :     4.802918
      px      :     1.666561
      py      :     1.371544
      dz2     :     0.003702  d :     0.024618
      dxz     :     0.006666
      dyz     :     0.003965
      dx2y2   :     0.007833
      dxy     :     0.002452

 21 H s       :     0.847537  s :     0.847537
      pz      :     0.001886  p :     0.012172
      px      :     0.008442
      py      :     0.001844

 22 H s       :     0.601177  s :     0.601177
      pz      :     0.008830  p :     0.041670
      px      :     0.007570
      py      :     0.025270

 23 O s       :     3.889968  s :     3.889968
      pz      :     1.486320  p :     4.771902
      px      :     1.591377
      py      :     1.694205
      dz2     :     0.008574  d :     0.030060
      dxz     :     0.006058
      dyz     :     0.007344
      dx2y2   :     0.003461
      dxy     :     0.004623



                     *******************************
                     * LOEWDIN POPULATION ANALYSIS *
                     *******************************

----------------------
LOEWDIN ATOMIC CHARGES
----------------------
   0 C :    0.032882
   1 N :   -0.168713
   2 H :    0.132862
   3 C :   -0.002905
   4 N :   -0.243787
   5 H :    0.079745
   6 H :    0.048096
   7 C :   -0.035470
   8 H :    0.139628
   9 H :    0.066258
  10 H :    0.058643
  11 C :   -0.116929
  12 H :    0.059911
  13 C :   -0.019330
  14 H :    0.065285
  15 H :    0.071036
  16 C :    0.253563
  17 H :    0.143336
  18 N :   -0.283010
  19 H :    0.129597
  20 O :   -0.255063
  21 H :    0.067456
  22 H :    0.187825
  23 O :   -0.410915

-------------------------------
LOEWDIN REDUCED ORBITAL CHARGES
-------------------------------
  0 C s       :     2.872300  s :     2.872300
      pz      :     1.054547  p :     2.934109
      px      :     0.901953
      py      :     0.977608
      dz2     :     0.020314  d :     0.160709
      dxz     :     0.035185
      dyz     :     0.029164
      dx2y2   :     0.047053
      dxy     :     0.028993

  1 N s       :     3.163016  s :     3.163016
      pz      :     1.402721  p :     3.928820
      px      :     1.358687
      py      :     1.167411
      dz2     :     0.007664  d :     0.076878
      dxz     :     0.012101
      dyz     :     0.021762
      dx2y2   :     0.024288
      dxy     :     0.011062

  2 H s       :     0.774019  s :     0.774019
      pz      :     0.042784  p :     0.093119
      px      :     0.034232
      py      :     0.016103

  3 C s       :     2.875308  s :     2.875308
      pz      :     1.041098  p :     2.989749
      px      :     1.037859
      py      :     0.910792
      dz2     :     0.032425  d :     0.137848
      dxz     :     0.014509
      dyz     :     0.024274
      dx2y2   :     0.034401
      dxy     :     0.032238

  4 N s       :     3.177981  s :     3.177981
      pz      :     1.178333  p :     3.984687
      px      :     1.679623
      py      :     1.126731
      dz2     :     0.015331  d :     0.081118
      dxz     :     0.016617
      dyz     :     0.021347
      dx2y2   :     0.012587
      dxy     :     0.015236

  5 H s       :     0.878803  s :     0.878803
      pz      :     0.023905  p :     0.041453
      px      :     0.004918
      py      :     0.012629

  6 H s       :     0.914218  s :     0.914218
      pz      :     0.013849  p :     0.037686
      px      :     0.014705
      py      :     0.009132

  7 C s       :     2.886298  s :     2.886298
      pz      :     0.992002  p :     3.024457
      px      :     1.000844
      py      :     1.031611
      dz2     :     0.023945  d :     0.124716
      dxz     :     0.035270
      dyz     :     0.021671
      dx2y2   :     0.027957
      dxy     :     0.015873

  8 H s       :     0.774774  s :     0.774774
      pz      :     0.032486  p :     0.085598
      px      :     0.020122
      py      :     0.032990

  9 H s       :     0.894421  s :     0.894421
      pz      :     0.007196  p :     0.039321
      px      :     0.006022
      py      :     0.026103

 10 H s       :     0.902993  s :     0.902993
      pz      :     0.017437  p :     0.038365
      px      :     0.014635
      py      :     0.006292

 11 C s       :     2.899517  s :     2.899517
      pz      :     1.021617  p :     3.127625
      px      :     1.047507
      py      :     1.058500
      dz2     :     0.020953  d :     0.089787
      dxz     :     0.022030
      dyz     :     0.012354
      dx2y2   :     0.024265
      dxy     :     0.010185

 12 H s       :     0.900633  s :     0.900633
      pz      :     0.026632  p :     0.039456
      px      :     0.007339
      py      :     0.005485

 13 C s       :     2.873697  s :     2.873697
      pz      :     0.991286  p :     3.005931
      px      :     1.013997
      py      :     1.000647
      dz2     :     0.039427  d :     0.139702
      dxz     :     0.028181
      dyz     :     0.019525
      dx2y2   :     0.040006
      dxy     :     0.012563

 14 H s       :     0.894573  s :     0.894573
      pz      :     0.006846  p :     0.040142
      px      :     0.006898
      py      :     0.026398

 15 H s       :     0.888459  s :     0.888459
      pz      :     0.012409  p :     0.040505
      px      :     0.020239
      py      :     0.007856

 16 C s       :     2.846409  s :     2.846409
      pz      :     0.818743  p :     2.578400
      px      :     0.761669
      py      :     0.997988
      dz2     :     0.068797  d :     0.321628
      dxz     :     0.076424
      dyz     :     0.058721
      dx2y2   :     0.070901
      dxy     :     0.046785

 17 H s       :     0.770472  s :     0.770472
      pz      :     0.032583  p :     0.086192
      px      :     0.022378
      py      :     0.031231

 18 N s       :     3.184612  s :     3.184612
      pz      :     1.279879  p :     4.039749
      px      :     1.569030
      py      :     1.190839
      dz2     :     0.007299  d :     0.058649
      dxz     :     0.010893
      dyz     :     0.020776
      dx2y2   :     0.009619
      dxy     :     0.010063

 19 H s       :     0.787917  s :     0.787917
      pz      :     0.020069  p :     0.082486
      px      :     0.023610
      py      :     0.038807

 20 O s       :     3.471791  s :     3.471791
      pz      :     1.736730  p :     4.738125
      px      :     1.651823
      py      :     1.349572
      dz2     :     0.006110  d :     0.045147
      dxz     :     0.011026
      dyz     :     0.006880
      dx2y2   :     0.014567
      dxy     :     0.006565

 21 H s       :     0.893150  s :     0.893150
      pz      :     0.007268  p :     0.039394
      px      :     0.025040
      py      :     0.007085

 22 H s       :     0.689853  s :     0.689853
      pz      :     0.027870  p :     0.122322
      px      :     0.024263
      py      :     0.070189

 23 O s       :     3.548867  s :     3.548867
      pz      :     1.527555  p :     4.808027
      px      :     1.586612
      py      :     1.693860
      dz2     :     0.012238  d :     0.054020
      dxz     :     0.012374
      dyz     :     0.016015
      dx2y2   :     0.005717
      dxy     :     0.007676



                      *****************************
                      * MAYER POPULATION ANALYSIS *
                      *****************************

  NA   - Mulliken gross atomic population
  ZA   - Total nuclear charge
  QA   - Mulliken gross atomic charge
  VA   - Mayer's total valence
  BVA  - Mayer's bonded valence
  FA   - Mayer's free valence

  ATOM       NA         ZA         QA         VA         BVA        FA
  0 C      5.8314     6.0000     0.1686     3.6898     3.6898     0.0000
  1 N      7.7568     7.0000    -0.7568     2.7146     2.7146     0.0000
  2 H      0.6760     1.0000     0.3240     0.8977     0.8977    -0.0000
  3 C      5.9205     6.0000     0.0795     3.6520     3.6520    -0.0000
  4 N      7.6334     7.0000    -0.6334     2.7398     2.7398    -0.0000
  5 H      0.8320     1.0000     0.1680     0.9552     0.9552     0.0000
  6 H      0.8907     1.0000     0.1093     0.9455     0.9455    -0.0000
  7 C      6.0432     6.0000    -0.0432     3.7969     3.7969    -0.0000
  8 H      0.6975     1.0000     0.3025     0.8964     0.8964     0.0000
  9 H      0.8739     1.0000     0.1261     0.9574     0.9574     0.0000
 10 H      0.8805     1.0000     0.1195     0.9456     0.9456    -0.0000
 11 C      6.2139     6.0000    -0.2139     3.7647     3.7647     0.0000
 12 H      0.8736     1.0000     0.1264     0.9492     0.9492    -0.0000
 13 C      6.0035     6.0000    -0.0035     3.7390     3.7390     0.0000
 14 H      0.8792     1.0000     0.1208     0.9547     0.9547    -0.0000
 15 H      0.8639     1.0000     0.1361     0.9506     0.9506     0.0000
 16 C      5.0912     6.0000     0.9088     3.6250     3.6250    -0.0000
 17 H      0.6885     1.0000     0.3115     0.8986     0.8986    -0.0000
 18 N      7.7481     7.0000    -0.7481     2.7273     2.7273    -0.0000
 19 H      0.7227     1.0000     0.2773     0.9054     0.9054    -0.0000
 20 O      8.6850     8.0000    -0.6850     1.7369     1.7369    -0.0000
 21 H      0.8597     1.0000     0.1403     0.9459     0.9459    -0.0000
 22 H      0.6428     1.0000     0.3572     0.8863     0.8863     0.0000
 23 O      8.6919     8.0000    -0.6919     1.7787     1.7787    -0.0000

  Mayer bond orders larger than 0.100000
B(  0-C ,  1-N ) :   0.8239 B(  0-C ,  4-N ) :   0.9814 B(  0-C ,  5-H ) :   0.9562 
B(  0-C ,  6-H ) :   0.9737 B(  1-N ,  3-C ) :   0.8636 B(  1-N ,  8-H ) :   0.8907 
B(  1-N , 16-C ) :   0.2035 B(  2-H ,  4-N ) :   0.8574 B(  3-C ,  7-C ) :   0.9493 
B(  3-C , 11-C ) :   0.9586 B(  3-C , 12-H ) :   0.9780 B(  4-N ,  7-C ) :   0.9579 
B(  7-C ,  9-H ) :   0.9780 B(  7-C , 10-H ) :   0.9719 B( 11-C , 13-C ) :   0.9534 
B( 11-C , 14-H ) :   0.9741 B( 11-C , 15-H ) :   0.9698 B( 13-C , 16-C ) :   0.9407 
B( 13-C , 18-N ) :   0.9449 B( 13-C , 21-H ) :   0.9635 B( 16-C , 20-O ) :   0.8813 
B( 16-C , 23-O ) :   1.6557 B( 17-H , 18-N ) :   0.8716 B( 18-N , 19-H ) :   0.9083 
B( 20-O , 22-H ) :   0.8521 

-------
TIMINGS
-------

Total SCF time: 0 days 0 hours 0 min 43 sec 

Total time                  ....      43.707 sec
Sum of individual times     ....      41.823 sec  ( 95.7%)

SCF preparation             ....       0.020 sec  (  0.0%)
Fock matrix formation       ....      41.724 sec  ( 95.5%)
  Startup                   ....       0.001 sec  (  0.0% of F)
  Coulomb+Exchange Fock     ....      43.591 sec  (104.5% of F)
Diagonalization             ....       0.000 sec  (  0.0%)
Density matrix formation    ....       0.006 sec  (  0.0%)
Total Energy calculation    ....       0.001 sec  (  0.0%)
Population analysis         ....       0.003 sec  (  0.0%)
Orbital Transformation      ....       0.008 sec  (  0.0%)
Orbital Orthonormalization  ....       0.000 sec  (  0.0%)
DIIS solution               ....       0.036 sec  (  0.1%)
SOSCF solution              ....       0.023 sec  (  0.1%)
Finished LeanSCF after  43.7 sec

Maximum memory used throughout the entire LEANSCF-calculation: 18.4 MB

------------------------------------------------------------------------------
                                ORCA  MP2 
------------------------------------------------------------------------------

Freezing NCore=22 chemical core electrons
MP2 will be done in the AO integral direct mode
The Q1-step will be done using symmetric double matrices
Dimension of the basis                    ...  219
Memory devoted for MP2                    ... 4096 MB   
Memory needed for all in one shot         ... 1289 MB
Number of MOs that can be treated together...  100      
MP2 density construction                  ... relaxed
The MP2 gradient is requested => amplitudes will be stored on disk
Total number of MOs              ...   32
Number of MOs treated per batch  ...   32 
Number of batches necessary      ...    1 
OPERATORS   0/  0 PASS   0
-----------------------------------------------
 MP2 CORRELATION ENERGY   :     -1.698438856 Eh
-----------------------------------------------


---------------------
MP2 DENSITY FORMATION
---------------------

Completing the external part of the density      ... done
Storing the unrelaxed density                    ... done

Calculating G(D)                                 ... done
Completing the Lagrangian                        ... done
Solving the Z-vector equations                   ... 
-------------------
SHARK CP-SCF DRIVER
-------------------

Dimension of the orbital basis          ...    219
Dimension of the CPSCF-problem          ...   7568
Number of operators                     ...      1
Max. number of iterations               ...    128
Convergence Tolerance                   ... 1.0e-04
Number of perturbations                 ...      1
Perturbation type                       ... REAL

----------------------------
POPLE LINEAR EQUATION SOLVER
----------------------------

  ITERATION   0:   ||err||_max =   1.4923e-01 (   4.9 sec)
  ITERATION   1:   ||err||_max =   4.2149e-02 (   5.0 sec)
  ITERATION   2:   ||err||_max =   1.6800e-02 (   5.1 sec)
  ITERATION   3:   ||err||_max =   4.6756e-03 (   5.0 sec)
  ITERATION   4:   ||err||_max =   1.5734e-03 (   5.1 sec)
  ITERATION   5:   ||err||_max =   5.1227e-04 (   5.0 sec)
  ITERATION   6:   ||err||_max =   1.7184e-04 (   5.1 sec)
  ITERATION   7:   ||err||_max =   5.7133e-05 (   5.0 sec)
                                                 ... done
Finalizing the relaxed density                   ... done
Transforming P to the AO basis                   ... done
Storing the relaxed density                      ... done

------------------------------------
ENERGY WEIGHTED DENSITY FINALIZATION
------------------------------------

Gathering the parts of the W-matrix              ...                                                      done
Forming the Z-density                            ... done
Transforming Z to the AO basis                   ... done
Calculating G(Z)                                 ... done
Finalizing the W-matrix                          ...                                                      done
Transforming W to the AO basis and storing       ... done

                *********************************************
                * UNRELAXED MP2 DENSITY POPULATION ANALYSIS *
                *********************************************

------------------------------------------------------------------------------
                           ORCA POPULATION ANALYSIS
------------------------------------------------------------------------------
Input electron density              ... 0.pmp2ur
BaseName (.gbw .S,...)              ... 0

                    ********************************
                    * MULLIKEN POPULATION ANALYSIS *
                    ********************************

-----------------------
MULLIKEN ATOMIC CHARGES
-----------------------
   0 C :    0.157382
   1 N :   -0.739191
   2 H :    0.321010
   3 C :    0.072796
   4 N :   -0.622021
   5 H :    0.167999
   6 H :    0.110401
   7 C :   -0.049705
   8 H :    0.300764
   9 H :    0.127078
  10 H :    0.120477
  11 C :   -0.215533
  12 H :    0.127317
  13 C :   -0.009194
  14 H :    0.121697
  15 H :    0.136828
  16 C :    0.870456
  17 H :    0.308983
  18 N :   -0.738670
  19 H :    0.276120
  20 O :   -0.671632
  21 H :    0.140892
  22 H :    0.353791
  23 O :   -0.668044
Sum of atomic charges:   -0.0000000

--------------------------------
MULLIKEN REDUCED ORBITAL CHARGES
--------------------------------
  0 C s       :     3.123107  s :     3.123107
      pz      :     1.028512  p :     2.626059
      px      :     0.739637
      py      :     0.857909
      dz2     :     0.013126  d :     0.093452
      dxz     :     0.020134
      dyz     :     0.018658
      dx2y2   :     0.024804
      dxy     :     0.016730
  1 N s       :     3.643844  s :     3.643844
      pz      :     1.458941  p :     4.032326
      px      :     1.390558
      py      :     1.182827
      dz2     :     0.009167  d :     0.063021
      dxz     :     0.010160
      dyz     :     0.017177
      dx2y2   :     0.016643
      dxy     :     0.009874
  2 H s       :     0.649452  s :     0.649452
      pz      :     0.013448  p :     0.029538
      px      :     0.010313
      py      :     0.005776
  3 C s       :     3.162734  s :     3.162734
      pz      :     0.996830  p :     2.681637
      px      :     0.933049
      py      :     0.751758
      dz2     :     0.020299  d :     0.082833
      dxz     :     0.011235
      dyz     :     0.013880
      dx2y2   :     0.019695
      dxy     :     0.017724
  4 N s       :     3.618787  s :     3.618787
      pz      :     1.158966  p :     3.937873
      px      :     1.718267
      py      :     1.060640
      dz2     :     0.010874  d :     0.065361
      dxz     :     0.016598
      dyz     :     0.013201
      dx2y2   :     0.010826
      dxy     :     0.013862
  5 H s       :     0.816571  s :     0.816571
      pz      :     0.008304  p :     0.015431
      px      :     0.002526
      py      :     0.004600
  6 H s       :     0.875193  s :     0.875193
      pz      :     0.005271  p :     0.014406
      px      :     0.005729
      py      :     0.003407
  7 C s       :     3.190283  s :     3.190283
      pz      :     0.904708  p :     2.780500
      px      :     0.892558
      py      :     0.983234
      dz2     :     0.015122  d :     0.078922
      dxz     :     0.020763
      dyz     :     0.014239
      dx2y2   :     0.017658
      dxy     :     0.011140
  8 H s       :     0.672162  s :     0.672162
      pz      :     0.009799  p :     0.027074
      px      :     0.006109
      py      :     0.011166
  9 H s       :     0.857758  s :     0.857758
      pz      :     0.002930  p :     0.015164
      px      :     0.002841
      py      :     0.009393
 10 H s       :     0.864809  s :     0.864809
      pz      :     0.006503  p :     0.014714
      px      :     0.005710
      py      :     0.002501
 11 C s       :     3.229363  s :     3.229363
      pz      :     0.919838  p :     2.922774
      px      :     0.982220
      py      :     1.020715
      dz2     :     0.013757  d :     0.063395
      dxz     :     0.014771
      dyz     :     0.009414
      dx2y2   :     0.016615
      dxy     :     0.008839
 12 H s       :     0.857712  s :     0.857712
      pz      :     0.009775  p :     0.014971
      px      :     0.002848
      py      :     0.002347
 13 C s       :     3.189640  s :     3.189640
      pz      :     0.882439  p :     2.734471
      px      :     0.956576
      py      :     0.895456
      dz2     :     0.021931  d :     0.085084
      dxz     :     0.017705
      dyz     :     0.012966
      dx2y2   :     0.022708
      dxy     :     0.009773
 14 H s       :     0.862951  s :     0.862951
      pz      :     0.002794  p :     0.015352
      px      :     0.002857
      py      :     0.009701
 15 H s       :     0.847819  s :     0.847819
      pz      :     0.004732  p :     0.015353
      px      :     0.007437
      py      :     0.003184
 16 C s       :     2.921590  s :     2.921590
      pz      :     0.609319  p :     2.050507
      px      :     0.590006
      py      :     0.851182
      dz2     :     0.034948  d :     0.157447
      dxz     :     0.033703
      dyz     :     0.029636
      dx2y2   :     0.034595
      dxy     :     0.024564
 17 H s       :     0.662467  s :     0.662467
      pz      :     0.010276  p :     0.028550
      px      :     0.007396
      py      :     0.010879
 18 N s       :     3.612396  s :     3.612396
      pz      :     1.284848  p :     4.070826
      px      :     1.574127
      py      :     1.211851
      dz2     :     0.008076  d :     0.055448
      dxz     :     0.010790
      dyz     :     0.016459
      dx2y2   :     0.009407
      dxy     :     0.010716
 19 H s       :     0.695846  s :     0.695846
      pz      :     0.006875  p :     0.028035
      px      :     0.007585
      py      :     0.013574
 20 O s       :     3.853116  s :     3.853116
      pz      :     1.752565  p :     4.770584
      px      :     1.654752
      py      :     1.363267
      dz2     :     0.008465  d :     0.047933
      dxz     :     0.011218
      dyz     :     0.008610
      dx2y2   :     0.012533
      dxy     :     0.007107
 21 H s       :     0.844171  s :     0.844171
      pz      :     0.002887  p :     0.014938
      px      :     0.009147
      py      :     0.002904
 22 H s       :     0.603268  s :     0.603268
      pz      :     0.009486  p :     0.042941
      px      :     0.008237
      py      :     0.025218
 23 O s       :     3.885451  s :     3.885451
      pz      :     1.473933  p :     4.729755
      px      :     1.575592
      py      :     1.680230
      dz2     :     0.013174  d :     0.052838
      dxz     :     0.010507
      dyz     :     0.011765
      dx2y2   :     0.008193
      dxy     :     0.009199


                     *******************************
                     * LOEWDIN POPULATION ANALYSIS *
                     *******************************

----------------------
LOEWDIN ATOMIC CHARGES
----------------------
   0 C :    0.027692
   1 N :   -0.160675
   2 H :    0.131315
   3 C :   -0.006322
   4 N :   -0.237809
   5 H :    0.079734
   6 H :    0.048535
   7 C :   -0.038376
   8 H :    0.138806
   9 H :    0.066598
  10 H :    0.058979
  11 C :   -0.117133
  12 H :    0.060314
  13 C :   -0.023126
  14 H :    0.065523
  15 H :    0.071211
  16 C :    0.227213
  17 H :    0.141881
  18 N :   -0.277701
  19 H :    0.128924
  20 O :   -0.246928
  21 H :    0.067533
  22 H :    0.185272
  23 O :   -0.391463

-------------------------------
LOEWDIN REDUCED ORBITAL CHARGES
-------------------------------
  0 C s       :     2.872507  s :     2.872507
      pz      :     1.049621  p :     2.923363
      px      :     0.900165
      py      :     0.973576
      dz2     :     0.023757  d :     0.176438
      dxz     :     0.038133
      dyz     :     0.032535
      dx2y2   :     0.049817
      dxy     :     0.032196
  1 N s       :     3.161481  s :     3.161481
      pz      :     1.389536  p :     3.894629
      px      :     1.345896
      py      :     1.159197
      dz2     :     0.013037  d :     0.104565
      dxz     :     0.018057
      dyz     :     0.027295
      dx2y2   :     0.029879
      dxy     :     0.016297
  2 H s       :     0.771913  s :     0.771913
      pz      :     0.044139  p :     0.096772
      px      :     0.035411
      py      :     0.017221
  3 C s       :     2.875536  s :     2.875536
      pz      :     1.035327  p :     2.974629
      px      :     1.031238
      py      :     0.908063
      dz2     :     0.036084  d :     0.156157
      dxz     :     0.018492
      dyz     :     0.027784
      dx2y2   :     0.038021
      dxy     :     0.035776
  4 N s       :     3.176602  s :     3.176602
      pz      :     1.170740  p :     3.954402
      px      :     1.664276
      py      :     1.119386
      dz2     :     0.020269  d :     0.106805
      dxz     :     0.021931
      dyz     :     0.026138
      dx2y2   :     0.017918
      dxy     :     0.020548
  5 H s       :     0.874244  s :     0.874244
      pz      :     0.025603  p :     0.046022
      px      :     0.006270
      py      :     0.014149
  6 H s       :     0.908945  s :     0.908945
      pz      :     0.015500  p :     0.042519
      px      :     0.016373
      py      :     0.010646
  7 C s       :     2.886126  s :     2.886126
      pz      :     0.987950  p :     3.010223
      px      :     0.996008
      py      :     1.026264
      dz2     :     0.027277  d :     0.142028
      dxz     :     0.038727
      dyz     :     0.025096
      dx2y2   :     0.031495
      dxy     :     0.019433
  8 H s       :     0.771774  s :     0.771774
      pz      :     0.033820  p :     0.089420
      px      :     0.021125
      py      :     0.034475
  9 H s       :     0.889332  s :     0.889332
      pz      :     0.008548  p :     0.044070
      px      :     0.007350
      py      :     0.028172
 10 H s       :     0.897846  s :     0.897846
      pz      :     0.019287  p :     0.043175
      px      :     0.016259
      py      :     0.007630
 11 C s       :     2.899155  s :     2.899155
      pz      :     1.015517  p :     3.108911
      px      :     1.041156
      py      :     1.052238
      dz2     :     0.024777  d :     0.109066
      dxz     :     0.025935
      dyz     :     0.016177
      dx2y2   :     0.028179
      dxy     :     0.013998
 12 H s       :     0.895185  s :     0.895185
      pz      :     0.028820  p :     0.044501
      px      :     0.008757
      py      :     0.006924
 13 C s       :     2.874031  s :     2.874031
      pz      :     0.986183  p :     2.991056
      px      :     1.009103
[...]
      dxz     :     0.013781
      dyz     :     0.023021
      dx2y2   :     0.029117
      dxy     :     0.014719
  2 H s       :     0.780304  s :     0.780304
      pz      :     0.041896  p :     0.091187
      px      :     0.035696
      py      :     0.013595
  3 C s       :     2.881576  s :     2.881576
      pz      :     1.048928  p :     2.994813
      px      :     1.024913
      py      :     0.920973
      dz2     :     0.032889  d :     0.148696
      dxz     :     0.019569
      dyz     :     0.022539
      dx2y2   :     0.040053
      dxy     :     0.033646
  4 N s       :     3.192272  s :     3.192272
      pz      :     1.180470  p :     3.919767
      px      :     1.622445
      py      :     1.116852
      dz2     :     0.015828  d :     0.103162
      dxz     :     0.022788
      dyz     :     0.027188
      dx2y2   :     0.018554
      dxy     :     0.018805
  5 H s       :     0.889079  s :     0.889079
      pz      :     0.018556  p :     0.043122
      px      :     0.006195
      py      :     0.018371
  6 H s       :     0.911844  s :     0.911844
      pz      :     0.016240  p :     0.042563
      px      :     0.018092
      py      :     0.008230
  7 C s       :     2.892130  s :     2.892130
      pz      :     1.012199  p :     3.036813
      px      :     1.012483
      py      :     1.012131
      dz2     :     0.016580  d :     0.132770
      dxz     :     0.036863
      dyz     :     0.030153
      dx2y2   :     0.028439
      dxy     :     0.020735
  8 H s       :     0.788162  s :     0.788162
      pz      :     0.040047  p :     0.086206
      px      :     0.020510
      py      :     0.025649
  9 H s       :     0.887664  s :     0.887664
      pz      :     0.012042  p :     0.044293
      px      :     0.008153
      py      :     0.024098
 10 H s       :     0.895455  s :     0.895455
      pz      :     0.018283  p :     0.043267
      px      :     0.016808
      py      :     0.008176
 11 C s       :     2.903087  s :     2.903087
      pz      :     1.009311  p :     3.117901
      px      :     1.050498
      py      :     1.058092
      dz2     :     0.025784  d :     0.103833
      dxz     :     0.024744
      dyz     :     0.013547
      dx2y2   :     0.026194
      dxy     :     0.013564
 12 H s       :     0.898185  s :     0.898185
      pz      :     0.027440  p :     0.044272
      px      :     0.008577
      py      :     0.008255
 13 C s       :     2.874266  s :     2.874266
      pz      :     1.001694  p :     3.019389
      px      :     1.011957
      py      :     1.005737
      dz2     :     0.038755  d :     0.150706
      dxz     :     0.027466
      dyz     :     0.023485
      dx2y2   :     0.043672
      dxy     :     0.017328
 14 H s       :     0.891211  s :     0.891211
      pz      :     0.008412  p :     0.044201
      px      :     0.008619
      py      :     0.027170
 15 H s       :     0.878038  s :     0.878038
      pz      :     0.013850  p :     0.045012
      px      :     0.019942
      py      :     0.011220
 16 C s       :     2.853462  s :     2.853462
      pz      :     0.856778  p :     2.675246
      px      :     0.841645
      py      :     0.976823
      dz2     :     0.058052  d :     0.307808
      dxz     :     0.062602
      dyz     :     0.060611
      dx2y2   :     0.070791
      dxy     :     0.055752
 17 H s       :     0.779775  s :     0.779775
      pz      :     0.043181  p :     0.085937
      px      :     0.023349
      py      :     0.019407
 18 N s       :     3.194014  s :     3.194014
      pz      :     1.216567  p :     3.982181
      px      :     1.602427
      py      :     1.163187
      dz2     :     0.021537  d :     0.082053
      dxz     :     0.014329
      dyz     :     0.014590
      dx2y2   :     0.017451
      dxy     :     0.014146
 19 H s       :     0.787593  s :     0.787593
      pz      :     0.014489  p :     0.084362
      px      :     0.024434
      py      :     0.045439
 20 O s       :     3.478141  s :     3.478141
      pz      :     1.692486  p :     4.629266
      px      :     1.624062
      py      :     1.312717
      dz2     :     0.011976  d :     0.071863
      dxz     :     0.015263
      dyz     :     0.012287
      dx2y2   :     0.019001
      dxy     :     0.013336
 21 H s       :     0.884666  s :     0.884666
      pz      :     0.008796  p :     0.044982
      px      :     0.026688
      py      :     0.009498
 22 H s       :     0.693081  s :     0.693081
      pz      :     0.028676  p :     0.120964
      px      :     0.024770
      py      :     0.067519
 23 O s       :     3.558799  s :     3.558799
      pz      :     1.442930  p :     4.604912
      px      :     1.482224
      py      :     1.679758
      dz2     :     0.016286  d :     0.078447
      dxz     :     0.019403
      dyz     :     0.016937
      dx2y2   :     0.011706
      dxy     :     0.014115


                      *****************************
                      * MAYER POPULATION ANALYSIS *
                      *****************************

  NA   - Mulliken gross atomic population
  ZA   - Total nuclear charge
  QA   - Mulliken gross atomic charge
  VA   - Mayer's total valence
  BVA  - Mayer's bonded valence
  FA   - Mayer's free valence

  ATOM       NA         ZA         QA         VA         BVA        FA
  0 C      5.9171     6.0000     0.0829     3.9010     3.6421     0.2589
  1 N      7.5914     7.0000    -0.5914     2.9941     2.6381     0.3560
  2 H      0.7111     1.0000     0.2889     0.9264     0.8801     0.0464
  3 C      5.9709     6.0000     0.0291     3.8842     3.6006     0.2836
  4 N      7.5274     7.0000    -0.5274     3.0549     2.7137     0.3412
  5 H      0.8731     1.0000     0.1269     0.9610     0.9144     0.0465
  6 H      0.9043     1.0000     0.0957     0.9528     0.9040     0.0488
  7 C      6.0758     6.0000    -0.0758     3.9275     3.6617     0.2658
  8 H      0.7444     1.0000     0.2556     0.9233     0.8749     0.0484
  9 H      0.8855     1.0000     0.1145     0.9721     0.9243     0.0479
 10 H      0.8901     1.0000     0.1099     0.9564     0.9077     0.0487
 11 C      6.1902     6.0000    -0.1902     3.8936     3.6234     0.2702
 12 H      0.8989     1.0000     0.1011     0.9576     0.9066     0.0510
 13 C      6.0602     6.0000    -0.0602     3.9074     3.6306     0.2768
 14 H      0.8980     1.0000     0.1020     0.9635     0.9128     0.0508
 15 H      0.8725     1.0000     0.1275     0.9629     0.9135     0.0494
 16 C      5.3437     6.0000     0.6563     3.9340     3.6604     0.2736
 17 H      0.7251     1.0000     0.2749     0.9202     0.8747     0.0455
 18 N      7.6403     7.0000    -0.6403     3.0126     2.6867     0.3259
 19 H      0.7411     1.0000     0.2589     0.9187     0.8721     0.0465
 20 O      8.5402     8.0000    -0.5402     2.1895     1.8384     0.3510
 21 H      0.8705     1.0000     0.1295     0.9504     0.8998     0.0507
 22 H      0.6618     1.0000     0.3382     0.9069     0.8629     0.0440
 23 O      8.4664     8.0000    -0.4664     2.3016     1.9125     0.3891

  Mayer bond orders larger than 0.100000
B(  0-C ,  1-N ) :   0.8471 B(  0-C ,  4-N ) :   0.9640 B(  0-C ,  5-H ) :   0.9222 
B(  0-C ,  6-H ) :   0.9214 B(  1-N ,  3-C ) :   0.9048 B(  1-N ,  8-H ) :   0.8663 
B(  2-H ,  4-N ) :   0.8277 B(  3-C ,  7-C ) :   0.9027 B(  3-C , 11-C ) :   0.9171 
B(  3-C , 12-H ) :   0.9207 B(  4-N ,  7-C ) :   0.9389 B(  7-C ,  9-H ) :   0.9281 
B(  7-C , 10-H ) :   0.9238 B( 11-C , 13-C ) :   0.9151 B( 11-C , 14-H ) :   0.9179 
B( 11-C , 15-H ) :   0.9164 B( 13-C , 16-C ) :   0.8965 B( 13-C , 18-N ) :   0.9273 
B( 13-C , 21-H ) :   0.9027 B( 16-C , 20-O ) :   0.9728 B( 16-C , 23-O ) :   1.7642 
B( 17-H , 18-N ) :   0.8536 B( 18-N , 19-H ) :   0.8689 B( 20-O , 22-H ) :   0.8166 



----------------------------------
MP2 DERIVATIVE INTEGRAL GENERATION
----------------------------------

Input SCF Electron Density              ... 0.scfp
Input Correlated Electron Density       ... 0.pmp2re
Input Energy Weighted Density           ... 0.wmp2.tmp
Input Wavefunction Amplitudes           ... 0.mp2tsaa.tmp

Nuclear repulsion gradient              ... done (  0.0 sec)
HCore & Overlap gradient  (SHARK)       ... done (  0.2 sec)
Analytic two-electron gradient terms    ... 
  Batch handling in the gradient evaluation:
  General contraction                   ... not used
  Memory available                      ... 4077.3 MB
  Memory per occupied orbital in Q2     ...   11.7 MB
  Memory per occupied orbital in Q3     ...    0.0 MB
  Total memory requirement per |i>      ...   11.8 MB
  Number of orbitals treated per batch  ...     32
  Number of batches to be done          ...      1
done ( 42.1 sec)

---------------------------------------
MP2 TOTAL ENERGY:     -549.554574182 Eh
---------------------------------------

The final MP2 gradient
  0:   0.00013991  -0.00006739   0.00010491
  1:  -0.00004620   0.00011635  -0.00004309
  2:   0.00000967  -0.00000928   0.00000810
  3:  -0.00003042  -0.00011635  -0.00008878
  4:  -0.00005206   0.00005676  -0.00001521
  5:  -0.00005730  -0.00000082  -0.00000219
  6:  -0.00002421  -0.00002484  -0.00002851
  7:   0.00009496  -0.00001188  -0.00008906
  8:   0.00001151  -0.00001348  -0.00001126
  9:  -0.00003978   0.00002249   0.00003919
 10:  -0.00000437  -0.00000393   0.00001256
 11:   0.00000440  -0.00001993   0.00016729
 12:   0.00000823   0.00006576   0.00000665
 13:   0.00003153  -0.00005817  -0.00004980
 14:   0.00000459   0.00000387  -0.00001831
 15:   0.00000784   0.00000554  -0.00001711
 16:  -0.00004758   0.00007411   0.00005413
 17:   0.00002146   0.00001616  -0.00001434
 18:  -0.00005338  -0.00003382   0.00004563
 19:   0.00001645   0.00000670  -0.00002622
 20:   0.00002785  -0.00001846   0.00002383
 21:  -0.00001079   0.00001157  -0.00000806
 22:   0.00000047   0.00000493  -0.00000631
 23:  -0.00001278  -0.00000584  -0.00004402

-----------------------------------
NORM OF THE MP2 GRADIENT:  0.000414
-----------------------------------

Maximum memory used throughout the entire MP2-calculation: 1373.8 MB

-------------------------   --------------------
FINAL SINGLE POINT ENERGY      -549.554574181783
-------------------------   --------------------

                                *** OPTIMIZATION RUN DONE ***


------------------------------------------------------------------------------
                              ORCA PROPERTY CALCULATIONS
------------------------------------------------------------------------------

GBWName                                 ... 0.gbw
Number of atoms                         ...     24
Number of basis functions               ...    219
Max core memory                         ...   4096 MB

Electric properties:
Dipole moment                           ... YES
Quadrupole moment                       ...  NO
Static polarizability (Dipole/Dipole)   ...  NO
Static polarizability (Dipole/Quad.)    ...  NO
Static polarizability (Quad./Quad.)     ...  NO
Static polarizability (Velocity)        ...  NO
Static hyperpolarizability              ...  NO

Atomic electric properties:
Dipole moment                           ...  NO
Quadrupole moment                       ...  NO
Static polarizability                   ...  NO

Choice of electric origin               ... Center of mass
Position of electric origin             ...   -13.014894     5.883983    -0.454592

General magnetic properties:
Magnetizability                         ...  NO

EPR properties:
g-Tensor (aka g-matrix)                 ...  NO
Zero-Field splitting spin-orbit         ...  NO
Zero-field splitting spin-spin          ...  NO
Hyperfine couplings                     ...  NO (   0 nuclei)
Quadrupole couplings                    ...  NO (   0 nuclei)
Contact density                         ...  NO (   0 nuclei)

NMR properties:
Chemical shifts                         ...  NO (   0 nuclei)
Spin-rotation constants                 ...  NO (   0 nuclei)
Spin-spin couplings                     ...  NO (   0 nuclei,    0 pairs)

Choice of magnetic origin               ... GIAO
Position of magnetic origin             ...     0.000000     0.000000     0.000000

Properties with geometric perturbations:
SCF Hessian                             ...  NO
IR spectrum                             ...  NO
VCD spectrum                            ...  NO
X-ray spectroscopy properties:
SCF XES/XAS/RIXS spectra                ...  NO

SCF SOC stabilization energy            ...  NO
Diagonal Born-Oppenheimer correction    ...  NO

-------------
DIPOLE MOMENT
-------------

Method             : SCF
Type of density    : Electron Density
Multiplicity       :   1
Irrep              :   0
Energy             :  -547.8637770826718452 Eh
Basis              : AO
                                X                 Y                 Z
Electronic contribution:      3.461313808      -4.701157030      -3.275950215
Nuclear contribution   :     -2.357894847       5.148392836       3.942615204
                        -----------------------------------------
Total Dipole Moment    :      1.103418961       0.447235806       0.666664989
                        -----------------------------------------
Magnitude (a.u.)       :      1.364549551
Magnitude (Debye)      :      3.468409320



--------------------
Rotational spectrum 
--------------------
 
Rotational constants in cm-1:             0.053053             0.033410             0.031240 
Rotational constants in MHz :          1590.492404          1001.619515           936.547432 

Dipole components along the rotational axes: 
x,y,z [a.u.] :     0.506234     0.685485     1.065755 
x,y,z [Debye]:     1.286744     1.742364     2.708934 

 

-------------
DIPOLE MOMENT
-------------

Method             : MP2
Type of density    : Electron Density
Multiplicity       :   1
Level              : Unrelaxed density
Irrep              :   0
Energy             :     0.0000000000000000 Eh
Basis              : AO
                                X                 Y                 Z
Electronic contribution:      3.437092958      -4.729703084      -3.307874856
Nuclear contribution   :     -2.357894847       5.148392836       3.942615204
                        -----------------------------------------
Total Dipole Moment    :      1.079198111       0.418689752       0.634740348
                        -----------------------------------------
Magnitude (a.u.)       :      1.320176118
Magnitude (Debye)      :      3.355621016



--------------------
Rotational spectrum 
--------------------
 
Rotational constants in cm-1:             0.053053             0.033410             0.031240 
Rotational constants in MHz :          1590.492404          1001.619515           936.547432 

Dipole components along the rotational axes: 
x,y,z [a.u.] :     0.508359     0.654196     1.027844 
x,y,z [Debye]:     1.292145     1.662835     2.612572 

 

-------------
DIPOLE MOMENT
-------------

Method             : MP2
Type of density    : Electron Density
Multiplicity       :   1
Level              : Relaxed density
Irrep              :   0
Energy             :     0.0000000000000000 Eh
Basis              : AO
                                X                 Y                 Z
Electronic contribution:      3.357620389      -4.845316714      -3.424219245
Nuclear contribution   :     -2.357894847       5.148392836       3.942615204
                        -----------------------------------------
Total Dipole Moment    :      0.999725542       0.303076122       0.518395960
                        -----------------------------------------
Magnitude (a.u.)       :      1.166207815
Magnitude (Debye)      :      2.964264691



--------------------
Rotational spectrum 
--------------------
 
Rotational constants in cm-1:             0.053053             0.033410             0.031240 
Rotational constants in MHz :          1590.492404          1001.619515           936.547432 

Dipole components along the rotational axes: 
x,y,z [a.u.] :     0.527035     0.531701     0.894186 
x,y,z [Debye]:     1.339617     1.351477     2.272840 

 

Dipole moment calculation done in   0.0 sec 

Maximum memory used throughout the entire PROP-calculation: 13.6 MB

--------------------------------
SUGGESTED CITATIONS FOR THIS RUN
--------------------------------

Below you find a list of papers that are relevant to this ORCA run
We neither can nor want to force you to cite these papers, but we appreciate if you do
You receive ORCA, which is the product of decades of hard work by many enthusiastic individuals, for free
The only thing we kindly ask in return is that you cite our papers,
We deeply appreciate it, if you show your appreciation for ORCA by not just citing the generic ORCA reference.

Please note that relegating all ORCA citations to the supporting information does *not* help us.
SI sections are not indexed - citations you put there will not count into any citation statistics
But we need these citations in order to attract the funding resources that allow us to do what we are doing

Therefore, if you are a happy ORCA user, please consider citing a few of the papers listed below in the main body of your paper

In addition to the list printed below, the program has created the file 0.bibtex that contains the list in bibtex format
You can import this file easily into all common literature databanks and citation aid programs


List of essential papers. We consider these as the minimum necessary citations

  1. Neese, F.
     Software update: the ORCA program system, version 6.0
     WIRES Comput. Molec. Sci. 2025 15(1), e70019
     doi.org/10.1002/wcms.7019

List of papers to cite with high priority. The work reported in these papers was absolutely
necessary for this run to complete.
Our perspective: the developers of density functionals and basis sets usually get cited in chemistry papers
Good! But without the algorithms to do something with them, the functionals or basis sets would not do anything.
Hence, in our opinion, the algorithm design and method developments papers are equally worthy of getting cited

  1. Neese, F.
     The SHARK Integral Generation and Digestion System
     J. Comp. Chem. 2022 44(3), 381
     doi.org/10.1002/jcc.26942

List of suggested additional citations. These are papers that are important in the 'surrounding' of 
of this run, or papers that preceded the highly important papers. If you like your results we are grateful for a citation.

  1. Neese, F.
     The ORCA program system
     WIRES Comput. Molec. Sci. 2012 2(1), 73-78
     doi.org/10.1002/wcms.81
  2. Neese, F.
     Software update: the ORCA program system, version 4.0
     WIRES Comput. Molec. Sci. 2018 8(1), 1-6
     doi.org/10.1002/wcms.1327
  3. Neese, F.; Wennmohs, F.; Becker, U.; Riplinger, C.
     The ORCA quantum chemistry program package
     J. Chem. Phys. 2020 152(22), 224108
     doi.org/10.1063/5.0004608
  4. Neese, F.
     Software update: The ORCA program system—Version 5.0
     WIRES Comput. Molec. Sci. 2022 12(1), e1606
     doi.org/10.1002/wcms.1606

List of optional additional citations

  1. Neese, F.
     Approximate second-order SCF convergence for spin unrestricted wavefunctions
     Chem. Phys. Lett. 2000 325(1-3), 93-98
     doi.org/10.1016/s0009-2614(00)00662-x

Timings for individual modules:

Sum of individual times          ...     2464.968 sec (=  41.083 min)
Startup calculation              ...        8.899 sec (=   0.148 min)   0.4 %
SCF iterations                   ...      465.287 sec (=   7.755 min)  18.9 %
Property calculations            ...        0.045 sec (=   0.001 min)   0.0 %
MP2 module                       ...     1990.701 sec (=  33.178 min)  80.8 %
Geometry relaxation              ...        0.036 sec (=   0.001 min)   0.0 %
                             ****ORCA TERMINATED NORMALLY****
TOTAL RUN TIME: 0 days 0 hours 41 minutes 5 seconds 335 msec
