
                                 *****************
                                 * O   R   C   A *
                                 *****************

                                            #,                                       
                                            ###                                      
                                            ####                                     
                                            #####                                    
                                            ######                                   
                                           ########,                                 
                                     ,,################,,,,,                         
                               ,,#################################,,                 
                          ,,##########################################,,             
                       ,#########################################, ''#####,          
                    ,#############################################,,   '####,        
                  ,##################################################,,,,####,       
                ,###########''''           ''''###############################       
              ,#####''   ,,,,##########,,,,          '''####'''          '####       
            ,##' ,,,,###########################,,,                        '##       
           ' ,,###''''                  '''############,,,                           
         ,,##''                                '''############,,,,        ,,,,,,###''
      ,#''                                            '''#######################'''  
     '                                                          ''''####''''         
             ,#######,   #######,   ,#######,      ##                                
            ,#'     '#,  ##    ##  ,#'     '#,    #''#        ,####,    ,#,          
            ##       ##  ##   ,#'  ##            #'  '#       #'       ,# #          
            ##       ##  #######   ##           ,######,      #####,      #          
            '#,     ,#'  ##    ##  '#,     ,#' ,#      #,     #,   #      #          
             '#######'   ##     ##  '#######'  #'      '#     '####' #    #          



                #########################################################
                #                        -***-                          #
                #          Department of theory and spectroscopy        #
                #                                                       #
                #                      Frank Neese                      #
                #                                                       #
                #     Directorship, Architecture, Infrastructure        #
                #                    SHARK, DRIVERS                     #
                #        Core code/Algorithms in most modules           #
                #                                                       #
                #        Max Planck Institute fuer Kohlenforschung      #
                #                Kaiser Wilhelm Platz 1                 #
                #                 D-45470 Muelheim/Ruhr                 #
                #                      Germany                          #
                #                                                       #
                #                  All rights reserved                  #
                #                        -***-                          #
                #########################################################


                         Program Version 6.1.0  -  RELEASE   -
                                (GIT: $679e74b$)
                          ($2025-06-10 18:02:51 +0200$)


 With contributions from (in alphabetic order):
[Max-Planck-Institut fuer Kohlenforschung]                               
  Daniel Aravena         : Magnetic Suceptibility                        
  Michael Atanasov       : Ab Initio Ligand Field Theory (pilot matlab implementation)
  Alexander A. Auer      : GIAO ZORA, VPT2 properties, NMR spectrum      
  Ute Becker             : All parallelization in ORCA, NUMFREQ, NUMCALC 
  Giovanni Bistoni       : ED, misc. LED, open-shell LED, HFLD           
  Dmytro Bykov           : pre 5.0 version of the SCF Hessian            
  Marcos Casanova-Páez   : Triplet and SCS-CIS(D). UHF-(DLPNO)-IP/EA/STEOM-CCSD. UHF-CVS-IP/STEOM-CCSD   
  Vijay G. Chilkuri      : MRCI spin determinant printing, contributions to CSF-ICE 
  Pauline Colinet        : FMM embedding                                 
  Dipayan Datta          : RHF DLPNO-CCSD density                        
  Achintya Kumar Dutta   : EOM-CC, STEOM-CC                              
  Nicolas Foglia         : Exact transition moments, OPA infrastructure, MCD improvements    
  Dmitry Ganyushin       : Spin-Orbit,Spin-Spin,Magnetic field MRCI      
  Miquel Garcia-Rates    : C-PCM and meta-GGA Hessian, CCSD/C-PCM, Gaussian charge scheme 
  Tiago L. C. Gouveia    : GS-ROHF, GS-ROCIS                             
  Yang Guo               : DLPNO-NEVPT2, F12-NEVPT2, CIM, IAO-localization        
  Andreas Hansen         : Spin unrestricted coupled pair/coupled cluster methods 
  Ingolf Harden          : AUTO-CI MPn and infrastructure                
  Benjamin Helmich-Paris : MC-RPA, TRAH-(SCF,CASSCF), AVAS, COSX integrals, SCF dyn. polar., MC-PDFT, srDFT 
  Lee Huntington         : MR-EOM, pCC                                   
  Robert Izsak           : Overlap fitted RIJCOSX, COSX-SCS-MP3, EOM     
  Riya Kayal             : Wick's Theorem for AUTO-CI, AUTO-CI UHF-CCSDT 
  Emily Kempfer          : AUTO-CI RHF CISDT and CCSDT, approximate NEVPT4
  Christian Kollmar      : KDIIS, OOCD, Brueckner-CCSD(T), CCSD density, CASPT2, CASPT2-K, improved NEVPT2 
  Axel Koslowski         : Symmetry handling                             
  Simone Kossmann        : meta-GGA functionals, TD-DFT gradient, OOMP2, (MP2 Hessian; deprecated post 5.0) 
  Lucas Lang             : DCDCAS, Hyperfine gauge corrections, ICE-SOC+SSC
  Marvin Lechner         : AUTO-CI (C++ implementation), FIC-MRCC        
  Spencer Leger          : CASSCF response                               
  Dagmar Lenk            : GEPOL surface, SMD, ORCA-2-JSON               
  Dimitrios Liakos       : Extrapolation schemes; Compound Job, Property file
  Dimitrios Manganas     : Further ROCIS development; embedding schemes. LFT, Crystal Embedding 
  Dimitrios Pantazis     : SARC Basis sets                               
  Anastasios Papadopoulos: AUTO-CI, single reference methods and gradients 
  Taras Petrenko         : pre 6.0 DFT Hessian and TD-DFT gradient,  ECA, NRVS 
  Petra Pikulova         : Analytic Raman intensities                    
  Peter Pinski           : DLPNO-MP2, DLPNO-MP2 Gradient                 
  Shashank Vittal Rao    : ES-AILFT, MagRelax                            
  Christoph Reimann      : Effective Core Potentials                     
  Marius Retegan         : Local ZFS, SOC                                
  Christoph Riplinger    : Optimizer, TS searches, QM/MM, DLPNO-CCSD(T), (RO)-DLPNO pert. Triples 
  Michael Roemelt        : Original ROCIS implementation, recursive CI coupling coefficients
  Masaaki Saitow         : Open-shell DLPNO-CCSD energy and density      
  Barbara Sandhoefer     : DKH picture change effects                    
  Yorick L. A. Schmerwitz: GMF and freeze-and-release deltaSCF, NEB S-IDPP initial path                    
  Kantharuban Sivalingam : CASSCF convergence/infrastructure, NEVPT2, NEVPT3, NEVPT4(SD), FIC-MRCI and CEPA variants
  Bernardo de Souza      : ESD, SOC TD-DFT                               
  Georgi L. Stoychev     : AutoAux, RI-MP2 NMR, DLPNO-MP2 response, X2C  
  Van Anh Tran           : RI-MP2 g-tensors                              
  Willem Van den Heuvel  : Paramagnetic NMR                              
  Zikuan Wang            : NOTCH, Electric field optimization            
  Frank Wennmohs         : Technical directorship and infrastructure     
  Hang Xu                : AUTO-CI-Response properties                   
                                                                         
[FACCTs GmbH]                                                            
  Markus Bursch, Nicolas Foglia, Miquel Garcia-Rates, Ingolf Harden, Hagen Neugebauer, Anastasios Papadopoulos, 
  Christoph Riplinger, Bernardo de Souza, Georgi L. Stoychev                                                    
                                                                 
  APM, various basis sets, CI-OPT, improved COSX, DLPNO-Multilevel,           
  DOCKER, DRACO, updates on ESD, Fragmentator, GOAT, IRC, LR-CPCM, L-BFGS, MBIS, meta-GGA TD-DFT gradient, ML-optimized integration grids, 
  MM, NACMEs, nearIR, NEB, NEB-TS, NL-DFT gradient (VV10), 2- and 3-layer-ONIOM, interface openCOSMO-RS, QMMM,   
  Crystal-QMMM, RESP, rigid body optimization, SF, symmetry and pop. for TD-DFT, various functionals, SOLVATOR                                   
                                                                         
[Other institutions]                                                     
  V. Asgeirsson          : NEB                                           
  Christoph Bannwarth    : sTDA-DFT, sTD-DFT, PBEh-3c, B97-3c, D3        
  Giovanni Bistoni       : ETS/NOCV, ADLD/ADEX, COVALED                  
  Martin Brehm           : Molecular dynamics                            
  Ronald Cardenas        : ETS/NOCV                                      
  Martina Colucci        : COVALED                                       
  Sebastian Ehlert       : rSCAN, r2SCAN, r2SCAN-3c, D4, dhf basis sets  
  Marvin Friede          : D4 for Fr, Ra, Ac-Lr                          
  Lars Goerigk           : TD-DFT with DH, B97 family of functionals     
  Stefan Grimme          : VdW corrections, initial TS optimization, DFT functionals, gCP, sTDA/sTD-DF 
  Waldemar Hujo          : DFT-NL                                        
  H. Jonsson             : NEB                                           
  Holger Kruse           : gCP                                           
  Marcel Mueller         : wB97X-3c, vDZP basis set                      
  Hagen Neugebauer       : wr2SCAN, Native XTB                           
  Gianluca Regni         : ADLD/ADEX                                     
  Tobias Risthaus        : pre 6.0 range-separated hybrid DFT and stability analysis
  Lukas Wittmann         : regularized MP2, r2SCAN double-hybrids, wr2SCAN        
                                                                         
We gratefully acknowledge several colleagues who have allowed us to      
interface, adapt or use parts of their codes:                            
  Ed Valeev, F. Pavosevic, A. Kumar             : LibInt (2-el integral package), F12 methods 
  Garnet Chan, S. Sharma, J. Yang, R. Olivares  : DMRG                   
  Ulf Ekstrom                                   : XCFun DFT Library      
  Mihaly Kallay                                 : mrcc  (arbitrary order and MRCC methods)
  Frank Weinhold                                : gennbo (NPA and NBO analysis)           
  Simon Mueller                                 : openCOSMO-RS                            
  Christopher J. Cramer and Donald G. Truhlar   : smd solvation model                     
  S Lehtola, MJT Oliveira, MAL Marques          : LibXC Library                           
  Liviu Ungur et al                             : ANISO software                          


 Your calculation uses the libint2 library for the computation of 2-el integrals
 For citations please refer to: http://libint.valeyev.net

 Your ORCA version has been built with support for libXC version: 7.0.0
 For citations please refer to: https://libxc.gitlab.io

 This ORCA versions uses:
   CBLAS   interface :  Fast vector & matrix operations
   LAPACKE interface :  Fast linear algebra routines
   SCALAPACK package :  Parallel linear algebra routines
   Shared memory     :  Shared parallel matrices
   BLAS/LAPACK       :  OpenBLAS 0.3.29  USE64BITINT DYNAMIC_ARCH NO_AFFINITY Haswell SINGLE_THREADED
        Core in use  :  Haswell
   Copyright (c) 2011-2014, The OpenBLAS Project


  ***********************************
  * Starting time: Sat Aug 16 15:52:58 2025
  * Host name:     CHEMLAB02
  * Process ID:    1907006
  * Working dir.:  /home/vivek/mm-project/vivek/xtb-goat/B97-D/l/1
  ***********************************



***************************************
The coordinates will be read from file: /home/vivek/mm-project/vivek/xtb-goat/xtb-goat/l/L_CONF/1.xyz
***************************************


Your calculation utilizes empirical dispersion correction


Warning: RI is on but no J-basis has been assigned. Assigning Def2/J (nothing to worry about!)
================================================================================

----- Orbital basis set information -----
Your calculation utilizes the basis: 6-31G**
   H-He, Li-Ne : W. J. Hehre, R. Ditchfield and J.A. Pople, J. Chem. Phys. 56, 2257 (1972).
                 Note: He and Ne are unpublished basis sets taken from the Gaussian program.
                 Note: Li and B from J. D. Dill and J. A. Pople, J. Chem. Phys. 62, 2921 (1975).
   Na - Ar     : M. M. Francl, W. J. Pietro, W. J. Hehre, J. S. Binkley, M. S. Gordon, 
                 D. J. DeFrees and J. A. Pople, J. Chem. Phys. 77, 3654 (1982).
   K - Zn      : V. A. Rassolov, J. A. Pople, M. A. Ratner, and T. L. Windus, J. Chem. Phys. 109, 1223 (1998).

----- AuxJ basis set information -----
Your calculation utilizes the auxiliary basis: def2/J
   H-Rn: F. Weigend, Phys. Chem. Chem. Phys. 8, 1057 (2006).
   Fr-Lr: K. Eichkorn, F. Weigend, O. Treutler, R. Ahlrichs; Theor. Chem. Acc. 97, 119 (1997).

================================================================================
                                        WARNINGS
                       Please study these warnings very carefully!
================================================================================


INFO   : The exchange functional is Grimme's B97(-D)
         As described in S. Grimme, J. Comput. Chem. 27, 1787 (2006).
         Note that this functional defaults to a pure GGA. 

INFO   : The correlation functional is Grimme's B97(-D)
         As described in S. Grimme, J. Comput. Chem. 27, 1787 (2006).

================================================================================
                                       INPUT FILE
================================================================================
NAME = 1.inp
|  1> ! B97-D 6-31G** 
|  2> 
|  3> * xyzfile 0 1 /home/vivek/mm-project/vivek/xtb-goat/xtb-goat/l/L_CONF/1.xyz
|  4> 
|  5>                          ****END OF INPUT****
================================================================================

                       ****************************
                       * Single Point Calculation *
                       ****************************

---------------------------------
CARTESIAN COORDINATES (ANGSTROEM)
---------------------------------
  C     -9.276162    6.455258   -2.085801
  C     -8.358719    7.401386   -1.317282
  H     -7.916551    5.998543   -3.517258
  H     -8.892349    7.241160   -3.922893
  C     -9.278908    5.095010   -1.366343
  H    -10.288717    6.874217   -2.051192
  H    -11.366229    2.359547   -1.074909
  N     -8.875226    6.331650   -3.472847
  C    -10.423128    4.167568   -1.792337
  H     -8.322407    4.599614   -1.546885
  H     -9.367459    5.288117   -0.295301
  C    -10.202281    3.604830   -3.192631
  H    -10.064884    4.413443   -3.903443
  C    -10.560710    3.028816   -0.782363
  H     -9.315817    2.974362   -3.208583
  H    -11.055707    3.002890   -3.496294
  H    -11.352834    4.746602   -1.789653
  H     -9.639024    2.452750   -0.733142
  H    -10.779428    3.413225    0.211536
  O     -8.845998    7.740016   -0.118216
  H     -8.230798    8.332531    0.343255
  O     -7.305858    7.811274   -1.730828

----------------------------
CARTESIAN COORDINATES (A.U.)
----------------------------
  NO LB      ZA    FRAG     MASS         X           Y           Z
   0 C     6.0000    0    12.011  -17.529406   12.198670   -3.941593
   1 C     6.0000    0    12.011  -15.795690   13.986593   -2.489301
   2 H     1.0000    0     1.008  -14.960114   11.335603   -6.646654
   3 H     1.0000    0     1.008  -16.804104   13.683809   -7.413194
   4 C     6.0000    0    12.011  -17.534596    9.628174   -2.582015
   5 H     1.0000    0     1.008  -19.442858   12.990388   -3.876192
   6 H     1.0000    0     1.008  -21.479060    4.458897   -2.031283
   7 N     7.0000    0    14.007  -16.771746   11.965085   -6.562730
   8 C     6.0000    0    12.011  -19.696857    7.875562   -3.387027
   9 H     1.0000    0     1.008  -15.727070    8.692011   -2.923189
  10 H     1.0000    0     1.008  -17.701932    9.993092   -0.558038
  11 C     6.0000    0    12.011  -19.279516    6.812141   -6.033199
  12 H     1.0000    0     1.008  -19.019874    8.340199   -7.376438
  13 C     6.0000    0    12.011  -19.956849    5.723633   -1.478451
  14 H     1.0000    0     1.008  -17.604342    5.620729   -6.063343
  15 H     1.0000    0     1.008  -20.892258    5.674640   -6.607039
  16 H     1.0000    0     1.008  -21.453746    8.969779   -3.381954
  17 H     1.0000    0     1.008  -18.215115    4.635025   -1.385438
  18 H     1.0000    0     1.008  -20.370166    6.450060    0.399745
  19 O     8.0000    0    15.999  -16.716514   14.626511   -0.223396
  20 H     1.0000    0     1.008  -15.553953   15.746201    0.648658
  21 O     8.0000    0    15.999  -13.806070   14.761169   -3.270791

--------------------------------
INTERNAL COORDINATES (ANGSTROEM)
--------------------------------
 C      0   0   0     0.000000000000     0.00000000     0.00000000
 C      1   0   0     1.525608873780     0.00000000     0.00000000
 H      1   2   0     2.026375919471    95.28676824     0.00000000
 H      3   1   2     1.631201512080    66.58424188   266.91375590
 C      1   2   3     1.538798757201   108.28562696    99.81390165
 H      1   2   3     1.096354243234   107.60822267   217.20067940
 H      5   1   2     3.453201443828   137.79745554   155.37585207
 N      4   3   1     1.014910130664    36.57949822   320.02524691
 C      5   1   2     1.533251121041   113.96196996   164.58099080
 H      5   1   2     1.092203038646   108.78979886   287.02204414
 H      5   1   2     1.091907880954   107.60322909    44.10175873
 C      9   5   1     1.525211683025   111.72798714    72.60982259
 H     12   9   5     1.085350829592   110.16489530   304.25098122
 C      7   5   1     1.087366186153    24.12676102   200.93837707
 H     12   9   5     1.087916550889   110.19795722    64.06591976
 H     12   9   5     1.087602430347   110.29888407   183.63241606
 H      9   5   1     1.095281132942   108.23970670   312.98818010
 H     14   7   5     1.088016551246   108.29061173   239.39286263
 H     14   7   5     1.087861257228   108.32190684   121.99741373
 O      2   1   3     1.337859802549   112.91891135   191.51779534
 H     20   2   1     0.970824626748   110.46911055   179.32154722
 O      2   1   3     1.203140461507   124.35911345    11.61288684

---------------------------
INTERNAL COORDINATES (A.U.)
---------------------------
 C      0   0   0     0.000000000000     0.00000000     0.00000000
 C      1   0   0     2.882982958925     0.00000000     0.00000000
 H      1   2   0     3.829295532174    95.28676824     0.00000000
 H      3   1   2     3.082524127069    66.58424188   266.91375590
 C      1   2   3     2.907908226328   108.28562696    99.81390165
 H      1   2   3     2.071809265475   107.60822267   217.20067940
 H      5   1   2     6.525605014096   137.79745554   155.37585207
 N      4   3   1     1.917902197497    36.57949822   320.02524691
 C      5   1   2     2.897424713296   113.96196996   164.58099080
 H      5   1   2     2.063964625677   108.78979886   287.02204414
 H      5   1   2     2.063406858473   107.60322909    44.10175873
 C      9   5   1     2.882232377175   111.72798714    72.60982259
 H     12   9   5     2.051015827153   110.16489530   304.25098122
 C      7   5   1     2.054824299116    24.12676102   200.93837707
 H     12   9   5     2.055864337740   110.19795722    64.06591976
 H     12   9   5     2.055270735943   110.29888407   183.63241606
 H      9   5   1     2.069781380912   108.23970670   312.98818010
 H     14   7   5     2.056053311029   108.29061173   239.39286263
 H     14   7   5     2.055759847865   108.32190684   121.99741373
 O      2   1   3     2.528188632400   112.91891135   191.51779534
 H     20   2   1     1.834592668620   110.46911055   179.32154722
 O      2   1   3     2.273605972888   124.35911345    11.61288684

---------------------
BASIS SET INFORMATION
---------------------
There are 4 groups of distinct atoms

 Group   1 Type C   : 10s4p1d contracted to 3s2p1d pattern {631/31/1}
 Group   2 Type H   : 4s1p contracted to 2s1p pattern {31/1}
 Group   3 Type N   : 10s4p1d contracted to 3s2p1d pattern {631/31/1}
 Group   4 Type O   : 10s4p1d contracted to 3s2p1d pattern {631/31/1}

Atom   0C    basis set group =>   1
Atom   1C    basis set group =>   1
Atom   2H    basis set group =>   2
Atom   3H    basis set group =>   2
Atom   4C    basis set group =>   1
Atom   5H    basis set group =>   2
Atom   6H    basis set group =>   2
Atom   7N    basis set group =>   3
Atom   8C    basis set group =>   1
Atom   9H    basis set group =>   2
Atom  10H    basis set group =>   2
Atom  11C    basis set group =>   1
Atom  12H    basis set group =>   2
Atom  13C    basis set group =>   1
Atom  14H    basis set group =>   2
Atom  15H    basis set group =>   2
Atom  16H    basis set group =>   2
Atom  17H    basis set group =>   2
Atom  18H    basis set group =>   2
Atom  19O    basis set group =>   4
Atom  20H    basis set group =>   2
Atom  21O    basis set group =>   4
---------------------------------
AUXILIARY/J BASIS SET INFORMATION
---------------------------------
There are 4 groups of distinct atoms

 Group   1 Type C   : 12s5p4d2f1g contracted to 6s4p3d1f1g pattern {711111/2111/211/2/1}
 Group   2 Type H   : 5s2p1d contracted to 3s1p1d pattern {311/2/1}
 Group   3 Type N   : 12s5p4d2f1g contracted to 6s4p3d1f1g pattern {711111/2111/211/2/1}
 Group   4 Type O   : 12s5p4d2f1g contracted to 6s4p3d1f1g pattern {711111/2111/211/2/1}

Atom   0C    basis set group =>   1
Atom   1C    basis set group =>   1
Atom   2H    basis set group =>   2
Atom   3H    basis set group =>   2
Atom   4C    basis set group =>   1
Atom   5H    basis set group =>   2
Atom   6H    basis set group =>   2
Atom   7N    basis set group =>   3
Atom   8C    basis set group =>   1
Atom   9H    basis set group =>   2
Atom  10H    basis set group =>   2
Atom  11C    basis set group =>   1
Atom  12H    basis set group =>   2
Atom  13C    basis set group =>   1
Atom  14H    basis set group =>   2
Atom  15H    basis set group =>   2
Atom  16H    basis set group =>   2
Atom  17H    basis set group =>   2
Atom  18H    basis set group =>   2
Atom  19O    basis set group =>   4
Atom  20H    basis set group =>   2
Atom  21O    basis set group =>   4
------------------------------------------------------------------------------
                             ORCA STARTUP CALCULATIONS
                           -- RI-GTO INTEGRALS CHOSEN --
------------------------------------------------------------------------------
------------------------------------------------------------------------------
                   ___                                                        
                  /   \      - P O W E R E D   B Y -                         
                 /     \                                                     
                 |  |  |   _    _      __       _____    __    __             
                 |  |  |  | |  | |    /  \     |  _  \  |  |  /  |          
                  \  \/   | |  | |   /    \    | | | |  |  | /  /          
                 / \  \   | |__| |  /  /\  \   | |_| |  |  |/  /          
                |  |  |   |  __  | /  /__\  \  |    /   |      \           
                |  |  |   | |  | | |   __   |  |    \   |  |\   \          
                \     /   | |  | | |  |  |  |  | |\  \  |  | \   \       
                 \___/    |_|  |_| |__|  |__|  |_| \__\ |__|  \__/        
                                                                              
                      - O R C A' S   B I G   F R I E N D -                    
                                      &                                       
                       - I N T E G R A L  F E E D E R -                       
                                                                              
 v1 FN, 2020, v2 2021, v3 2022-2024                                           
------------------------------------------------------------------------------


----------------------
SHARK INTEGRAL PACKAGE
----------------------

Number of atoms                             ...     22
Number of basis functions                   ...    191
Number of shells                            ...     93
Maximum angular momentum                    ...      2
Integral batch strategy                     ... SHARK/LIBINT Hybrid
RI-J (if used) integral strategy            ... SPLIT-RIJ (Revised 2003 algorithm where possible)
Printlevel                                  ...      1
Contraction scheme used                     ... SEGMENTED contraction
Prescreening option                         ... SCHWARTZ
   Thresh                                   ... 1.000e-10
   Tcut                                     ... 1.000e-11
   Tpresel                                  ... 1.000e-11 
Coulomb Range Separation                    ... NOT USED
Exchange Range Separation                   ... NOT USED
Multipole approximations                    ... NOT USED
Finite Nucleus Model                        ... NOT USED
CABS basis                                  ... NOT available
Auxiliary Coulomb fitting basis             ... AVAILABLE
   # of basis functions in Aux-J            ...    584
   # of shells in Aux-J                     ...    200
   Maximum angular momentum in Aux-J        ...      4
Auxiliary J/K fitting basis                 ... NOT available
Auxiliary Correlation fitting basis         ... NOT available
Auxiliary 'external' fitting basis          ... NOT available

Checking pre-screening integrals            ... done (  0.0 sec) Dimension = 93
   => SHARK Basis and OBASIS are compatible. Storing Pre-screening
Shell pair information
Shell pair cut-off parameter TPreSel        ...   1.0e-11
Total number of shell pairs                 ...      4371
Shell pairs after pre-screening             ...      3854
Total number of primitive shell pairs       ...     20328
Primitive shell pairs kept                  ...     11896
          la=0 lb=0:   1280 shell pairs
          la=1 lb=0:   1450 shell pairs
          la=1 lb=1:    429 shell pairs
          la=2 lb=0:    414 shell pairs
          la=2 lb=1:    242 shell pairs
          la=2 lb=2:     39 shell pairs

Checking whether 4 symmetric matrices of dimension 191 fit in memory
:Max Core in MB      =   4096.00
 MB in use           =      8.53
 MB left             =   4087.47
 MB needed           =      0.56
 Data fit in memory  = YES
Calculating RI/J V-Matrix + Cholesky decomp.... done (  0.0 sec)
Calculating Nuclear repulsion               ... done (  0.0 sec) ENN=    482.765383124241 Eh

Diagonalization of the overlap matrix:
Smallest eigenvalue                        ... 2.830e-03
Time for diagonalization                   ...    0.002 sec
Threshold for overlap eigenvalues          ... 1.000e-07
Number of eigenvalues below threshold      ... 0
Time for construction of square roots      ...    0.001 sec
Total time needed                          ...    0.003 sec

-------------------
DFT GRID GENERATION
-------------------

General Integration Accuracy     IntAcc      ... 4.388
Radial Grid Type                 RadialGrid  ... OptM3 with GC (2021)
Angular Grid (max. ang.)         AngularGrid ... 4 (Lebedev-302)
Angular grid pruning method      GridPruning ... 4 (adaptive)
Weight generation scheme         WeightScheme... mBecke (2022)
Basis function cutoff            BFCut       ... 1.0000e-10
Integration weight cutoff        WCut        ... 1.0000e-14
Partially contracted basis set               ... off
Rotationally invariant grid construction     ... off
Angular grids for H and He will be reduced by one unit

Total number of grid points                  ...    95615
Total number of batches                      ...     1506
Average number of points per batch           ...       63
Average number of grid points per atom       ...     4346
Grids setup in   0.4 sec
Initializing property integral containers    ... done (  0.0 sec)

SHARK setup successfully completed in   0.4 seconds

Maximum memory used throughout the entire STARTUP-calculation: 40.4 MB
-------------------------------------------------------------------------------
                                 ORCA GUESS
                   Start orbitals & Density for SCF / CASSCF
-------------------------------------------------------------------------------

------------
SCF SETTINGS
------------
Hamiltonian:
 Density Functional     Method          .... DFT(GTOs)
 Exchange Functional    Exchange        .... B97(D)
 Correlation Functional Correlation     .... B97(D)
 Gradients option       PostSCFGGA      .... off
 RI-approximation to the Coulomb term is turned on
   Number of AuxJ basis functions       .... 584


General Settings:
 Integral files         IntName         .... 1
 Hartree-Fock type      HFTyp           .... RHF
 Total Charge           Charge          ....    0
 Multiplicity           Mult            ....    1
 Number of Electrons    NEL             ....   72
 Basis Dimension        Dim             ....  191
 Nuclear Repulsion      ENuc            ....    482.7653831242 Eh

Convergence Acceleration:
 AO-DIIS                CNVDIIS         .... on
   Start iteration      DIISMaxIt       ....    12
   Startup error        DIISStart       ....  0.200000
   # of expansion vecs  DIISMaxEq       ....     5
   Bias factor          DIISBfac        ....   1.050
   Max. coefficient     DIISMaxC        ....  10.000
 MO-DIIS                CNVKDIIS        .... off
 Trust-Rad. Augm. Hess. CNVTRAH         .... auto
   Auto Start mean grad. ratio tolernc. ....  1.125000
   Auto Start start iteration           ....    50
   Auto Start num. interpolation iter.  ....    10
   Max. Number of Micro iterations      ....    24
   Max. Number of Macro iterations      .... Maxiter - #DIIS iter
   Number of Davidson start vectors     ....     2
   Converg. threshold    (grad. norm)   ....   5.000e-05
   Grad. Scal. Fac. for Micro threshold ....   0.100
   Minimum threshold for Micro iter.    ....   1.000e-02
   NR start threshold (gradient norm)   ....   1.000e-04
   Initial trust radius                 ....   0.400
   Minimum AH scaling param. (alpha)    ....   1.000
   Maximum AH scaling param. (alpha)    .... 1000.000
   Quad. conv. algorithm                .... NR
   White noise on init. David. guess    .... on
   Maximum white noise                  ....   0.010
   Pseudo random numbers                .... off
   Inactive MOs                         .... canonical
   Orbital update algorithm             .... Taylor
   Preconditioner                       .... Diag
   Full preconditioner red. dimension   ....   250
 SOSCF                 CNVSOSCF           .... on
   Start iteration     SOSCFMaxIt         ....   150
   Startup grad/error  SOSCFStart         ....  0.003300
   Hessian update      SOSCFHessUp        .... L-BFGS
   Autom. constraints  SOSCFAutoConstrain .... off
 Level Shifting         CNVShift        .... on
   Level shift para.    LevelShift      ....    0.2500
   Turn off err/grad.   ShiftErr        ....    0.0010
 Zerner damping         CNVZerner       .... off
 Static damping         CNVDamp         .... on
   Fraction old density DampFac         ....    0.7000
   Max. Damping (<1)    DampMax         ....    0.9800
   Min. Damping (>=0)   DampMin         ....    0.0000
   Turn off err/grad.   DampErr         ....    0.1000

SCF Procedure:
 Maximum # iterations   MaxIter         ....   125
 SCF integral mode      SCFMode         .... Direct
   Integral package                     .... SHARK and LIBINT hybrid scheme
 Reset frequency        DirectResetFreq ....    20
 Integral Threshold     Thresh          ....  1.000e-10 Eh
 Primitive CutOff       TCut            ....  1.000e-11 Eh

Convergence Tolerance:
 Convergence Check Mode ConvCheckMode   .... Total+1el-Energy
 Convergence forced     ConvForced      .... 0
 Energy Change          TolE            ....  1.000e-06 Eh
 1-El. energy change                    ....  1.000e-03 Eh
 Orbital Gradient       TolG            ....  5.000e-05
 Orbital Rotation angle TolX            ....  5.000e-05
 DIIS Error             TolErr          ....  1.000e-06

------------------------------
INITIAL GUESS: MODEL POTENTIAL
------------------------------
Loading Hartree-Fock densities                     ... done
Calculating cut-offs                               ... done
Initializing the effective Hamiltonian             ... done
Setting up the integral package (SHARK)            ... done
Starting the Coulomb interaction                   ... done (   0.1 sec)
Making the grid                                    ... done (   0.1 sec)
Mapping shells                                     ... done
Starting the XC term evaluation                    ... done (   0.1 sec)
  promolecular density results
     # of electrons  =     71.997039349
     EX              =    -56.846438801
     EC              =     -3.118122806
     EX+EC           =    -59.964561607
Transforming the Hamiltonian                       ... done (   0.0 sec)
Diagonalizing the Hamiltonian                      ... done (   0.0 sec)
Back transforming the eigenvectors                 ... done (   0.0 sec)
Now organizing SCF variables                       ... done
                      ------------------
                      INITIAL GUESS DONE (   0.3 sec)
                      ------------------
             **** ENERGY FILE WAS UPDATED (1.en.tmp) ****
Finished Guess after   0.3 sec
Maximum memory used throughout the entire GUESS-calculation: 13.5 MB

-------------------------------------------------------------------------------------------
                                      ORCA LEAN-SCF
                              memory conserving SCF solver
-------------------------------------------------------------------------------------------

----------------------------------------D-I-I-S--------------------------------------------
Iteration    Energy (Eh)           Delta-E    RMSDP     MaxDP     DIISErr   Damp  Time(sec)
-------------------------------------------------------------------------------------------
               ***  Starting incremental Fock matrix formation  ***
    1    -441.0132996357143043     0.00e+00  3.61e-03  1.03e-01  2.57e-01  0.700   0.5
    2    -441.1940629290050424    -1.81e-01  2.37e-03  5.30e-02  9.49e-02  0.700   0.5
                               ***Turning on AO-DIIS***
    3    -441.2502288639281574    -5.62e-02  9.14e-04  1.71e-02  2.60e-02  0.700   0.5
    4    -441.2863485132984920    -3.61e-02  1.22e-03  2.10e-02  1.08e-02  0.000   0.5
    5    -441.3700523061648369    -8.37e-02  4.15e-04  9.00e-03  8.96e-03  0.000   0.5
                              *** Initializing SOSCF ***
---------------------------------------S-O-S-C-F--------------------------------------
Iteration    Energy (Eh)           Delta-E    RMSDP     MaxDP     MaxGrad    Time(sec)
--------------------------------------------------------------------------------------
    6    -441.3709749926597965    -9.23e-04  1.55e-04  3.14e-03  3.24e-03     0.5
               *** Restarting incremental Fock matrix formation ***
    7    -441.3710488403009435    -7.38e-05  1.27e-04  4.38e-03  7.58e-04     0.5
    8    -441.3710149863205174     3.39e-05  7.04e-05  3.08e-03  2.31e-03     0.4
    9    -441.3710592075689760    -4.42e-05  4.05e-05  7.28e-04  1.86e-04     0.4
   10    -441.3710574882126707     1.72e-06  2.23e-05  4.16e-04  1.96e-04     0.4
   11    -441.3710607337301894    -3.25e-06  5.71e-06  1.65e-04  2.61e-05     0.4
   12    -441.3710606783996013     5.53e-08  3.24e-06  1.10e-04  4.16e-05     0.4
                 **** Energy Check signals convergence ****

               *****************************************************
               *                     SUCCESS                       *
               *           SCF CONVERGED AFTER  12 CYCLES          *
               *****************************************************

             **** ENERGY FILE WAS UPDATED (1.en.tmp) ****

----------------
TOTAL SCF ENERGY
----------------

Total Energy       :       -441.37106076706078 Eh          -12010.31716 eV

Components:
Nuclear Repulsion  :        482.76538312424071 Eh           13136.71393 eV
Electronic Energy  :       -924.13644389130150 Eh          -25147.03109 eV
One Electron Energy:      -1557.62025055943877 Eh          -42385.00183 eV
Two Electron Energy:        633.48380666813728 Eh           17237.97074 eV

Virial components:
Potential Energy   :       -880.49451005990250 Eh          -23959.47369 eV
Kinetic Energy     :        439.12344929284166 Eh           11949.15654 eV
Virial Ratio       :          2.00511840458039

DFT components:
N(Alpha)           :       35.999959852354 electrons
N(Beta)            :       35.999959852354 electrons
N(Total)           :       71.999919704708 electrons
E(X)               :      -58.279340243913 Eh       
E(C)               :       -3.115247716016 Eh       
E(XC)              :      -61.394587959929 Eh       

---------------
SCF CONVERGENCE
---------------

  Last Energy change         ...   -5.5331e-08  Tolerance :   1.0000e-06
  Last MAX-Density change    ...    1.1040e-04  Tolerance :   1.0000e-05
  Last RMS-Density change    ...    3.2442e-06  Tolerance :   1.0000e-06
  Last DIIS Error            ...    3.2429e-03  Tolerance :   1.0000e-06
  Last Orbital Gradient      ...    4.1607e-05  Tolerance :   5.0000e-05
  Last Orbital Rotation      ...    4.1003e-05  Tolerance :   5.0000e-05


----------------
ORBITAL ENERGIES
----------------

  NO   OCC          E(Eh)            E(eV) 
   0   2.0000     -18.814066      -511.9568 
   1   2.0000     -18.753547      -510.3100 
   2   2.0000     -13.987723      -380.6253 
   3   2.0000     -10.026376      -272.8316 
   4   2.0000      -9.947481      -270.6847 
   5   2.0000      -9.905692      -269.5476 
   6   2.0000      -9.904177      -269.5063 
   7   2.0000      -9.887774      -269.0600 
   8   2.0000      -9.873391      -268.6686 
   9   2.0000      -1.020640       -27.7730 
  10   2.0000      -0.931709       -25.3531 
  11   2.0000      -0.817121       -22.2350 
  12   2.0000      -0.728452       -19.8222 
  13   2.0000      -0.667570       -18.1655 
  14   2.0000      -0.606497       -16.5036 
  15   2.0000      -0.597176       -16.2500 
  16   2.0000      -0.535844       -14.5810 
  17   2.0000      -0.503015       -13.6877 
  18   2.0000      -0.448971       -12.2171 
  19   2.0000      -0.440602       -11.9894 
  20   2.0000      -0.424219       -11.5436 
  21   2.0000      -0.409034       -11.1304 
  22   2.0000      -0.389844       -10.6082 
  23   2.0000      -0.372371       -10.1327 
  24   2.0000      -0.370013       -10.0686 
  25   2.0000      -0.358734        -9.7616 
  26   2.0000      -0.340055        -9.2534 
  27   2.0000      -0.328877        -8.9492 
  28   2.0000      -0.312661        -8.5079 
  29   2.0000      -0.307761        -8.3746 
  30   2.0000      -0.281724        -7.6661 
  31   2.0000      -0.277903        -7.5621 
  32   2.0000      -0.276434        -7.5222 
  33   2.0000      -0.270066        -7.3489 
  34   2.0000      -0.223348        -6.0776 
  35   2.0000      -0.193245        -5.2585 
  36   0.0000      -0.016594        -0.4515 
  37   0.0000       0.050594         1.3767 
  38   0.0000       0.070054         1.9063 
  39   0.0000       0.087377         2.3776 
  40   0.0000       0.091256         2.4832 
  41   0.0000       0.130646         3.5551 
  42   0.0000       0.134474         3.6592 
  43   0.0000       0.137737         3.7480 
  44   0.0000       0.146333         3.9819 
  45   0.0000       0.149320         4.0632 
  46   0.0000       0.162676         4.4266 
*Only the first 10 virtual orbitals were printed.

                    ********************************
                    * MULLIKEN POPULATION ANALYSIS *
                    ********************************

-----------------------
MULLIKEN ATOMIC CHARGES
-----------------------
   0 C :   -0.044514
   1 C :    0.479958
   2 H :    0.246417
   3 H :    0.244587
   4 C :   -0.177437
   5 H :    0.125834
   6 H :    0.104088
   7 N :   -0.544905
   8 C :   -0.068353
   9 H :    0.097594
  10 H :    0.116206
  11 C :   -0.322775
  12 H :    0.145047
  13 C :   -0.319374
  14 H :    0.089450
  15 H :    0.090227
  16 H :    0.089518
  17 H :    0.103039
  18 H :    0.099768
  19 O :   -0.454256
  20 H :    0.317746
  21 O :   -0.417865
Sum of atomic charges:   -0.0000000

--------------------------------
MULLIKEN REDUCED ORBITAL CHARGES
--------------------------------
  0 C s       :     3.201692  s :     3.201692
      pz      :     0.815548  p :     2.785454
      px      :     0.989527
      py      :     0.980380
      dz2     :     0.015617  d :     0.057368
      dxz     :     0.011327
      dyz     :     0.014449
      dx2y2   :     0.006671
      dxy     :     0.009304

  1 C s       :     2.990156  s :     2.990156
      pz      :     0.752795  p :     2.405685
      px      :     0.821618
      py      :     0.831273
      dz2     :     0.030970  d :     0.124200
      dxz     :     0.035594
      dyz     :     0.016693
      dx2y2   :     0.017842
      dxy     :     0.023100

  2 H s       :     0.729595  s :     0.729595
      pz      :     0.005121  p :     0.023988
      px      :     0.011623
      py      :     0.007245

  3 H s       :     0.731470  s :     0.731470
      pz      :     0.007138  p :     0.023943
      px      :     0.006023
      py      :     0.010782

  4 C s       :     3.228902  s :     3.228902
      pz      :     1.005431  p :     2.912351
      px      :     0.993977
      py      :     0.912942
      dz2     :     0.010399  d :     0.036185
      dxz     :     0.002454
      dyz     :     0.006162
      dx2y2   :     0.007938
      dxy     :     0.009231

  5 H s       :     0.863116  s :     0.863116
      pz      :     0.001788  p :     0.011051
      px      :     0.006148
      py      :     0.003115

  6 H s       :     0.884317  s :     0.884317
      pz      :     0.002827  p :     0.011595
      px      :     0.004691
      py      :     0.004078

  7 N s       :     3.586442  s :     3.586442
      pz      :     1.214485  p :     3.930028
      px      :     1.347963
      py      :     1.367580
      dz2     :     0.008760  d :     0.028435
      dxz     :     0.002514
      dyz     :     0.005737
      dx2y2   :     0.009862
      dxy     :     0.001562

  8 C s       :     3.208853  s :     3.208853
      pz      :     0.925133  p :     2.815714
      px      :     0.960136
      py      :     0.930446
      dz2     :     0.010925  d :     0.043786
      dxz     :     0.005448
      dyz     :     0.010255
      dx2y2   :     0.005576
      dxy     :     0.011582

  9 H s       :     0.890777  s :     0.890777
      pz      :     0.002698  p :     0.011630
      px      :     0.005556
      py      :     0.003376

 10 H s       :     0.872037  s :     0.872037
      pz      :     0.006507  p :     0.011758
      px      :     0.002587
      py      :     0.002664

 11 C s       :     3.243484  s :     3.243484
      pz      :     0.984314  p :     3.049384
      px      :     1.019232
      py      :     1.045838
      dz2     :     0.007228  d :     0.029908
      dxz     :     0.003232
      dyz     :     0.008192
      dx2y2   :     0.002297
      dxy     :     0.008959

 12 H s       :     0.841999  s :     0.841999
      pz      :     0.004110  p :     0.012954
      px      :     0.002803
      py      :     0.006041

 13 C s       :     3.247659  s :     3.247659
      pz      :     1.003260  p :     3.041255
      px      :     1.039372
      py      :     0.998623
      dz2     :     0.009068  d :     0.030460
      dxz     :     0.002351
      dyz     :     0.006279
      dx2y2   :     0.002594
      dxy     :     0.010168

 14 H s       :     0.898872  s :     0.898872
      pz      :     0.002555  p :     0.011678
      px      :     0.005077
      py      :     0.004047

 15 H s       :     0.898141  s :     0.898141
      pz      :     0.002918  p :     0.011631
      px      :     0.004853
      py      :     0.003861

 16 H s       :     0.899023  s :     0.899023
      pz      :     0.002572  p :     0.011459
      px      :     0.005375
      py      :     0.003511

 17 H s       :     0.885355  s :     0.885355
      pz      :     0.002603  p :     0.011606
      px      :     0.005257
      py      :     0.003745

 18 H s       :     0.888652  s :     0.888652
      pz      :     0.005797  p :     0.011580
      px      :     0.002837
      py      :     0.002946

 19 O s       :     3.824267  s :     3.824267
      pz      :     1.368634  p :     4.607279
      px      :     1.636800
      py      :     1.601845
      dz2     :     0.004975  d :     0.022710
      dxz     :     0.006899
      dyz     :     0.003627
      dx2y2   :     0.002013
      dxy     :     0.005196

 20 H s       :     0.644313  s :     0.644313
      pz      :     0.010544  p :     0.037941
      px      :     0.013585
      py      :     0.013812

 21 O s       :     3.854887  s :     3.854887
      pz      :     1.664471  p :     4.534916
      px      :     1.372720
      py      :     1.497725
      dz2     :     0.003786  d :     0.028061
      dxz     :     0.006614
      dyz     :     0.002454
      dx2y2   :     0.007901
      dxy     :     0.007307



                     *******************************
                     * LOEWDIN POPULATION ANALYSIS *
                     *******************************

----------------------
LOEWDIN ATOMIC CHARGES
----------------------
   0 C :   -0.049559
   1 C :    0.100188
   2 H :    0.127989
   3 H :    0.127777
   4 C :   -0.114358
   5 H :    0.082740
   6 H :    0.068985
   7 N :   -0.233377
   8 C :   -0.066187
   9 H :    0.068053
  10 H :    0.075183
  11 C :   -0.206212
  12 H :    0.080595
  13 C :   -0.196956
  14 H :    0.061504
  15 H :    0.062142
  16 H :    0.062826
  17 H :    0.066773
  18 H :    0.065079
  19 O :   -0.141497
  20 H :    0.181792
  21 O :   -0.223482

-------------------------------
LOEWDIN REDUCED ORBITAL CHARGES
-------------------------------
  0 C s       :     2.881796  s :     2.881796
      pz      :     0.951914  p :     3.037249
      px      :     1.045629
      py      :     1.039705
      dz2     :     0.034789  d :     0.130513
      dxz     :     0.025949
      dyz     :     0.033601
      dx2y2   :     0.015471
      dxy     :     0.020704

  1 C s       :     2.859180  s :     2.859180
      pz      :     0.889437  p :     2.743625
      px      :     0.983155
      py      :     0.871033
      dz2     :     0.074917  d :     0.297006
      dxz     :     0.090868
      dyz     :     0.037696
      dx2y2   :     0.039191
      dxy     :     0.054334

  2 H s       :     0.792790  s :     0.792790
      pz      :     0.014303  p :     0.079221
      px      :     0.044317
      py      :     0.020601

  3 H s       :     0.793336  s :     0.793336
      pz      :     0.021868  p :     0.078887
      px      :     0.016001
      py      :     0.041018

  4 C s       :     2.905812  s :     2.905812
      pz      :     1.061428  p :     3.128018
      px      :     1.063616
      py      :     1.002973
      dz2     :     0.021908  d :     0.080528
      dxz     :     0.005231
      dyz     :     0.014583
      dx2y2   :     0.017738
      dxy     :     0.021069

  5 H s       :     0.877872  s :     0.877872
      pz      :     0.005543  p :     0.039388
      px      :     0.024177
      py      :     0.009667

  6 H s       :     0.891416  s :     0.891416
      pz      :     0.008382  p :     0.039600
      px      :     0.016918
      py      :     0.014299

  7 N s       :     3.195655  s :     3.195655
      pz      :     1.256649  p :     3.979878
      px      :     1.355359
      py      :     1.367870
      dz2     :     0.019833  d :     0.057844
      dxz     :     0.006274
      dyz     :     0.012738
      dx2y2   :     0.015676
      dxy     :     0.003324

  8 C s       :     2.880174  s :     2.880174
      pz      :     1.027117  p :     3.085431
      px      :     1.035160
      py      :     1.023155
      dz2     :     0.024768  d :     0.100582
      dxz     :     0.011343
      dyz     :     0.025912
      dx2y2   :     0.012141
      dxy     :     0.026418

  9 H s       :     0.892157  s :     0.892157
      pz      :     0.007513  p :     0.039790
      px      :     0.021219
      py      :     0.011057

 10 H s       :     0.884506  s :     0.884506
      pz      :     0.025534  p :     0.040311
      px      :     0.007275
      py      :     0.007502

 11 C s       :     2.918696  s :     2.918696
      pz      :     1.051969  p :     3.223867
      px      :     1.082364
      py      :     1.089534
      dz2     :     0.016756  d :     0.063649
      dxz     :     0.006668
      dyz     :     0.017643
      dx2y2   :     0.004529
      dxy     :     0.018053

 12 H s       :     0.873966  s :     0.873966
      pz      :     0.015836  p :     0.045438
      px      :     0.007822
      py      :     0.021780

 13 C s       :     2.919788  s :     2.919788
      pz      :     1.062362  p :     3.212833
      px      :     1.089253
      py      :     1.061218
      dz2     :     0.018305  d :     0.064335
      dxz     :     0.004557
      dyz     :     0.015188
      dx2y2   :     0.005907
      dxy     :     0.020378

 14 H s       :     0.898973  s :     0.898973
      pz      :     0.007386  p :     0.039524
      px      :     0.018767
      py      :     0.013371

 15 H s       :     0.898245  s :     0.898245
      pz      :     0.009021  p :     0.039613
      px      :     0.017708
      py      :     0.012883

 16 H s       :     0.898964  s :     0.898964
      pz      :     0.007094  p :     0.038210
      px      :     0.019594
      py      :     0.011522

 17 H s       :     0.893632  s :     0.893632
      pz      :     0.007159  p :     0.039595
      px      :     0.019947
      py      :     0.012488

 18 H s       :     0.895463  s :     0.895463
      pz      :     0.022313  p :     0.039458
      px      :     0.007870
      py      :     0.009274

 19 O s       :     3.470093  s :     3.470093
      pz      :     1.401885  p :     4.620444
      px      :     1.634637
      py      :     1.583923
      dz2     :     0.013582  d :     0.050959
      dxz     :     0.015448
      dyz     :     0.010795
      dx2y2   :     0.002560
      dxy     :     0.008574

 20 H s       :     0.702425  s :     0.702425
      pz      :     0.030640  p :     0.115783
      px      :     0.042982
      py      :     0.042162

 21 O s       :     3.554563  s :     3.554563
      pz      :     1.659587  p :     4.610885
      px      :     1.454339
      py      :     1.496958
      dz2     :     0.008223  d :     0.058034
      dxz     :     0.014914
      dyz     :     0.004087
      dx2y2   :     0.015479
      dxy     :     0.015330



                      *****************************
                      * MAYER POPULATION ANALYSIS *
                      *****************************

  NA   - Mulliken gross atomic population
  ZA   - Total nuclear charge
  QA   - Mulliken gross atomic charge
  VA   - Mayer's total valence
  BVA  - Mayer's bonded valence
  FA   - Mayer's free valence

  ATOM       NA         ZA         QA         VA         BVA        FA
  0 C      6.0445     6.0000    -0.0445     3.8614     3.8614    -0.0000
  1 C      5.5200     6.0000     0.4800     3.9606     3.9606     0.0000
  2 H      0.7536     1.0000     0.2464     0.9292     0.9292     0.0000
  3 H      0.7554     1.0000     0.2446     0.9227     0.9227     0.0000
  4 C      6.1774     6.0000    -0.1774     3.8611     3.8611     0.0000
  5 H      0.8742     1.0000     0.1258     0.9514     0.9514    -0.0000
  6 H      0.8959     1.0000     0.1041     0.9574     0.9574    -0.0000
  7 N      7.5449     7.0000    -0.5449     2.9340     2.9340     0.0000
  8 C      6.0684     6.0000    -0.0684     3.9406     3.9406    -0.0000
  9 H      0.9024     1.0000     0.0976     0.9599     0.9599    -0.0000
 10 H      0.8838     1.0000     0.1162     0.9598     0.9598     0.0000
 11 C      6.3228     6.0000    -0.3228     3.8633     3.8633    -0.0000
 12 H      0.8550     1.0000     0.1450     0.9725     0.9725     0.0000
 13 C      6.3194     6.0000    -0.3194     3.8850     3.8850    -0.0000
 14 H      0.9105     1.0000     0.0895     0.9618     0.9618    -0.0000
 15 H      0.9098     1.0000     0.0902     0.9576     0.9576     0.0000
 16 H      0.9105     1.0000     0.0895     0.9513     0.9513    -0.0000
 17 H      0.8970     1.0000     0.1030     0.9584     0.9584    -0.0000
 18 H      0.9002     1.0000     0.0998     0.9567     0.9567     0.0000
 19 O      8.4543     8.0000    -0.4543     2.0295     2.0295     0.0000
 20 H      0.6823     1.0000     0.3177     0.9178     0.9178    -0.0000
 21 O      8.4179     8.0000    -0.4179     2.1163     2.1163     0.0000

  Mayer bond orders larger than 0.100000
B(  0-C ,  1-C ) :   0.8952 B(  0-C ,  4-C ) :   0.9748 B(  0-C ,  5-H ) :   0.9221 
B(  0-C ,  7-N ) :   1.0456 B(  1-C , 19-O ) :   1.0784 B(  1-C , 21-O ) :   1.9322 
B(  2-H ,  7-N ) :   0.8999 B(  3-H ,  7-N ) :   0.9061 B(  4-C ,  8-C ) :   0.9936 
B(  4-C ,  9-H ) :   0.9388 B(  4-C , 10-H ) :   0.9380 B(  6-H , 13-C ) :   0.9591 
B(  8-C , 11-C ) :   1.0152 B(  8-C , 13-C ) :   1.0061 B(  8-C , 16-H ) :   0.9421 
B( 11-C , 12-H ) :   0.9329 B( 11-C , 14-H ) :   0.9605 B( 11-C , 15-H ) :   0.9582 
B( 13-C , 17-H ) :   0.9590 B( 13-C , 18-H ) :   0.9594 B( 19-O , 20-H ) :   0.8514 


-------
TIMINGS
-------

Total SCF time: 0 days 0 hours 0 min 6 sec 

Total time                  ....       6.058 sec
Sum of individual times     ....       5.655 sec  ( 93.4%)

SCF preparation             ....       0.026 sec  (  0.4%)
Fock matrix formation       ....       5.572 sec  ( 92.0%)
  Startup                   ....       0.001 sec  (  0.0% of F)
  Split-RI-J                ....       1.974 sec  ( 35.4% of F)
  XC integration            ....       3.982 sec  ( 71.5% of F)
    Basis function eval.    ....       1.410 sec  ( 35.4% of XC)
    Density eval.           ....       0.887 sec  ( 22.3% of XC)
    XC-Functional eval.     ....       0.727 sec  ( 18.3% of XC)
    XC-Potential eval.      ....       0.850 sec  ( 21.4% of XC)
Diagonalization             ....       0.000 sec  (  0.0%)
Density matrix formation    ....       0.004 sec  (  0.1%)
Total Energy calculation    ....       0.001 sec  (  0.0%)
Population analysis         ....       0.003 sec  (  0.0%)
Orbital Transformation      ....       0.006 sec  (  0.1%)
Orbital Orthonormalization  ....       0.000 sec  (  0.0%)
DIIS solution               ....       0.028 sec  (  0.5%)
SOSCF solution              ....       0.016 sec  (  0.3%)
Finished LeanSCF after   6.1 sec

Maximum memory used throughout the entire LEANSCF-calculation: 21.1 MB



-------------------------------------------------------------------------------
                          DFT DISPERSION CORRECTION                            
-------------------------------------------------------------------------------
Active option DFTDOPT                   ...         2   
Final C6-coefficient scaling factor     ...     1.250
Final VDW-radii scaling factor          ...     1.100
Damping factor alpha                    ...    20.000
-------------------------   ----------------
Dispersion correction           -0.033079503
-------------------------   ----------------


-------------------------   --------------------
FINAL SINGLE POINT ENERGY      -441.404140269722
-------------------------   --------------------


------------------------------------------------------------------------------
                              ORCA PROPERTY CALCULATIONS
------------------------------------------------------------------------------

GBWName                                 ... 1.gbw
Number of atoms                         ...     22
Number of basis functions               ...    191
Max core memory                         ...   4096 MB

Electric properties:
Dipole moment                           ... YES
Quadrupole moment                       ...  NO
Static polarizability (Dipole/Dipole)   ...  NO
Static polarizability (Dipole/Quad.)    ...  NO
Static polarizability (Quad./Quad.)     ...  NO
Static polarizability (Velocity)        ...  NO
Static hyperpolarizability              ...  NO

Atomic electric properties:
Dipole moment                           ...  NO
Quadrupole moment                       ...  NO
Static polarizability                   ...  NO

Choice of electric origin               ... Center of mass
Position of electric origin             ...   -17.405098    10.906098    -3.312962

General magnetic properties:
Magnetizability                         ...  NO

EPR properties:
g-Tensor (aka g-matrix)                 ...  NO
Zero-Field splitting spin-orbit         ...  NO
Zero-field splitting spin-spin          ...  NO
Hyperfine couplings                     ...  NO (   0 nuclei)
Quadrupole couplings                    ...  NO (   0 nuclei)
Contact density                         ...  NO (   0 nuclei)

NMR properties:
Chemical shifts                         ...  NO (   0 nuclei)
Spin-rotation constants                 ...  NO (   0 nuclei)
Spin-spin couplings                     ...  NO (   0 nuclei,    0 pairs)

Choice of magnetic origin               ... GIAO
Position of magnetic origin             ...     0.000000     0.000000     0.000000

Properties with geometric perturbations:
SCF Hessian                             ...  NO
IR spectrum                             ...  NO
VCD spectrum                            ...  NO
X-ray spectroscopy properties:
SCF XES/XAS/RIXS spectra                ...  NO

SCF SOC stabilization energy            ...  NO
Diagonal Born-Oppenheimer correction    ...  NO

-------------
DIPOLE MOMENT
-------------

Method             : SCF
Type of density    : Electron Density
Multiplicity       :   1
Irrep              :   0
Energy             :  -441.3710607670607828 Eh
Basis              : AO
                                X                 Y                 Z
Electronic contribution:      6.249048885      12.689205412       2.504580786
Nuclear contribution   :     -6.397905247     -12.442915757      -2.043216256
                        -----------------------------------------
Total Dipole Moment    :     -0.148856362       0.246289655       0.461364530
                        -----------------------------------------
Magnitude (a.u.)       :      0.543759175
Magnitude (Debye)      :      1.382125982



--------------------
Rotational spectrum 
--------------------
 
Rotational constants in cm-1:             0.094461             0.030162             0.024638 
Rotational constants in MHz :          2831.865301           904.233322           738.615854 

Dipole components along the rotational axes: 
x,y,z [a.u.] :     0.202664     0.468531     0.187297 
x,y,z [Debye]:     0.515130     1.190912     0.476071 

 

Dipole moment calculation done in   0.0 sec 

Maximum memory used throughout the entire PROP-calculation: 12.0 MB

--------------------------------
SUGGESTED CITATIONS FOR THIS RUN
--------------------------------

Below you find a list of papers that are relevant to this ORCA run
We neither can nor want to force you to cite these papers, but we appreciate if you do
You receive ORCA, which is the product of decades of hard work by many enthusiastic individuals, for free
The only thing we kindly ask in return is that you cite our papers,
We deeply appreciate it, if you show your appreciation for ORCA by not just citing the generic ORCA reference.

Please note that relegating all ORCA citations to the supporting information does *not* help us.
SI sections are not indexed - citations you put there will not count into any citation statistics
But we need these citations in order to attract the funding resources that allow us to do what we are doing

Therefore, if you are a happy ORCA user, please consider citing a few of the papers listed below in the main body of your paper

In addition to the list printed below, the program has created the file 1.bibtex that contains the list in bibtex format
You can import this file easily into all common literature databanks and citation aid programs


List of essential papers. We consider these as the minimum necessary citations

  1. Neese, F.
     Software update: the ORCA program system, version 6.0
     WIRES Comput. Molec. Sci. 2025 15(1), e70019
     doi.org/10.1002/wcms.7019

List of papers to cite with high priority. The work reported in these papers was absolutely
necessary for this run to complete.
Our perspective: the developers of density functionals and basis sets usually get cited in chemistry papers
Good! But without the algorithms to do something with them, the functionals or basis sets would not do anything.
Hence, in our opinion, the algorithm design and method developments papers are equally worthy of getting cited

  1. Neese, F.
     An improvement of the resolution of the identity approximation for the formation of the Coulomb matrix
     J. Comp. Chem. 2003 24(14), 1740-1747
     doi.org/10.1002/jcc.10318
  2. Grimme, S.
     Semiempirical GGA-type density functional constructed with a long-range dispersion correction
     J.Comput.Chem. 2006 27(15), 1787-1799
     doi.org/10.1002/jcc.20495
  3. Neese, F.
     The SHARK Integral Generation and Digestion System
     J. Comp. Chem. 2022 44(3), 381
     doi.org/10.1002/jcc.26942

List of suggested additional citations. These are papers that are important in the 'surrounding' of 
of this run, or papers that preceded the highly important papers. If you like your results we are grateful for a citation.

  1. Neese, F.
     The ORCA program system
     WIRES Comput. Molec. Sci. 2012 2(1), 73-78
     doi.org/10.1002/wcms.81
  2. Neese, F.
     Software update: the ORCA program system, version 4.0
     WIRES Comput. Molec. Sci. 2018 8(1), 1-6
     doi.org/10.1002/wcms.1327
  3. Neese, F.; Wennmohs, F.; Becker, U.; Riplinger, C.
     The ORCA quantum chemistry program package
     J. Chem. Phys. 2020 152(22), 224108
     doi.org/10.1063/5.0004608
  4. Neese, F.
     Software update: The ORCA program system—Version 5.0
     WIRES Comput. Molec. Sci. 2022 12(1), e1606
     doi.org/10.1002/wcms.1606

List of optional additional citations

  1. Neese, F.
     Approximate second-order SCF convergence for spin unrestricted wavefunctions
     Chem. Phys. Lett. 2000 325(1-3), 93-98
     doi.org/10.1016/s0009-2614(00)00662-x

Timings for individual modules:

Sum of individual times          ...        6.855 sec (=   0.114 min)
Startup calculation              ...        0.450 sec (=   0.008 min)   6.6 %
SCF iterations                   ...        6.373 sec (=   0.106 min)  93.0 %
Property calculations            ...        0.032 sec (=   0.001 min)   0.5 %
                             ****ORCA TERMINATED NORMALLY****
TOTAL RUN TIME: 0 days 0 hours 0 minutes 6 seconds 896 msec
