
                                 *****************
                                 * O   R   C   A *
                                 *****************

                                            #,                                       
                                            ###                                      
                                            ####                                     
                                            #####                                    
                                            ######                                   
                                           ########,                                 
                                     ,,################,,,,,                         
                               ,,#################################,,                 
                          ,,##########################################,,             
                       ,#########################################, ''#####,          
                    ,#############################################,,   '####,        
                  ,##################################################,,,,####,       
                ,###########''''           ''''###############################       
              ,#####''   ,,,,##########,,,,          '''####'''          '####       
            ,##' ,,,,###########################,,,                        '##       
           ' ,,###''''                  '''############,,,                           
         ,,##''                                '''############,,,,        ,,,,,,###''
      ,#''                                            '''#######################'''  
     '                                                          ''''####''''         
             ,#######,   #######,   ,#######,      ##                                
            ,#'     '#,  ##    ##  ,#'     '#,    #''#        ,####,    ,#,          
            ##       ##  ##   ,#'  ##            #'  '#       #'       ,# #          
            ##       ##  #######   ##           ,######,      #####,      #          
            '#,     ,#'  ##    ##  '#,     ,#' ,#      #,     #,   #      #          
             '#######'   ##     ##  '#######'  #'      '#     '####' #    #          



                #########################################################
                #                        -***-                          #
                #          Department of theory and spectroscopy        #
                #                                                       #
                #                      Frank Neese                      #
                #                                                       #
                #     Directorship, Architecture, Infrastructure        #
                #                    SHARK, DRIVERS                     #
                #        Core code/Algorithms in most modules           #
                #                                                       #
                #        Max Planck Institute fuer Kohlenforschung      #
                #                Kaiser Wilhelm Platz 1                 #
                #                 D-45470 Muelheim/Ruhr                 #
                #                      Germany                          #
                #                                                       #
                #                  All rights reserved                  #
                #                        -***-                          #
                #########################################################


                         Program Version 6.1.0  -  RELEASE   -
                                (GIT: $679e74b$)
                          ($2025-06-10 18:02:51 +0200$)


 With contributions from (in alphabetic order):
[Max-Planck-Institut fuer Kohlenforschung]                               
  Daniel Aravena         : Magnetic Suceptibility                        
  Michael Atanasov       : Ab Initio Ligand Field Theory (pilot matlab implementation)
  Alexander A. Auer      : GIAO ZORA, VPT2 properties, NMR spectrum      
  Ute Becker             : All parallelization in ORCA, NUMFREQ, NUMCALC 
  Giovanni Bistoni       : ED, misc. LED, open-shell LED, HFLD           
  Dmytro Bykov           : pre 5.0 version of the SCF Hessian            
  Marcos Casanova-Páez   : Triplet and SCS-CIS(D). UHF-(DLPNO)-IP/EA/STEOM-CCSD. UHF-CVS-IP/STEOM-CCSD   
  Vijay G. Chilkuri      : MRCI spin determinant printing, contributions to CSF-ICE 
  Pauline Colinet        : FMM embedding                                 
  Dipayan Datta          : RHF DLPNO-CCSD density                        
  Achintya Kumar Dutta   : EOM-CC, STEOM-CC                              
  Nicolas Foglia         : Exact transition moments, OPA infrastructure, MCD improvements    
  Dmitry Ganyushin       : Spin-Orbit,Spin-Spin,Magnetic field MRCI      
  Miquel Garcia-Rates    : C-PCM and meta-GGA Hessian, CCSD/C-PCM, Gaussian charge scheme 
  Tiago L. C. Gouveia    : GS-ROHF, GS-ROCIS                             
  Yang Guo               : DLPNO-NEVPT2, F12-NEVPT2, CIM, IAO-localization        
  Andreas Hansen         : Spin unrestricted coupled pair/coupled cluster methods 
  Ingolf Harden          : AUTO-CI MPn and infrastructure                
  Benjamin Helmich-Paris : MC-RPA, TRAH-(SCF,CASSCF), AVAS, COSX integrals, SCF dyn. polar., MC-PDFT, srDFT 
  Lee Huntington         : MR-EOM, pCC                                   
  Robert Izsak           : Overlap fitted RIJCOSX, COSX-SCS-MP3, EOM     
  Riya Kayal             : Wick's Theorem for AUTO-CI, AUTO-CI UHF-CCSDT 
  Emily Kempfer          : AUTO-CI RHF CISDT and CCSDT, approximate NEVPT4
  Christian Kollmar      : KDIIS, OOCD, Brueckner-CCSD(T), CCSD density, CASPT2, CASPT2-K, improved NEVPT2 
  Axel Koslowski         : Symmetry handling                             
  Simone Kossmann        : meta-GGA functionals, TD-DFT gradient, OOMP2, (MP2 Hessian; deprecated post 5.0) 
  Lucas Lang             : DCDCAS, Hyperfine gauge corrections, ICE-SOC+SSC
  Marvin Lechner         : AUTO-CI (C++ implementation), FIC-MRCC        
  Spencer Leger          : CASSCF response                               
  Dagmar Lenk            : GEPOL surface, SMD, ORCA-2-JSON               
  Dimitrios Liakos       : Extrapolation schemes; Compound Job, Property file
  Dimitrios Manganas     : Further ROCIS development; embedding schemes. LFT, Crystal Embedding 
  Dimitrios Pantazis     : SARC Basis sets                               
  Anastasios Papadopoulos: AUTO-CI, single reference methods and gradients 
  Taras Petrenko         : pre 6.0 DFT Hessian and TD-DFT gradient,  ECA, NRVS 
  Petra Pikulova         : Analytic Raman intensities                    
  Peter Pinski           : DLPNO-MP2, DLPNO-MP2 Gradient                 
  Shashank Vittal Rao    : ES-AILFT, MagRelax                            
  Christoph Reimann      : Effective Core Potentials                     
  Marius Retegan         : Local ZFS, SOC                                
  Christoph Riplinger    : Optimizer, TS searches, QM/MM, DLPNO-CCSD(T), (RO)-DLPNO pert. Triples 
  Michael Roemelt        : Original ROCIS implementation, recursive CI coupling coefficients
  Masaaki Saitow         : Open-shell DLPNO-CCSD energy and density      
  Barbara Sandhoefer     : DKH picture change effects                    
  Yorick L. A. Schmerwitz: GMF and freeze-and-release deltaSCF, NEB S-IDPP initial path                    
  Kantharuban Sivalingam : CASSCF convergence/infrastructure, NEVPT2, NEVPT3, NEVPT4(SD), FIC-MRCI and CEPA variants
  Bernardo de Souza      : ESD, SOC TD-DFT                               
  Georgi L. Stoychev     : AutoAux, RI-MP2 NMR, DLPNO-MP2 response, X2C  
  Van Anh Tran           : RI-MP2 g-tensors                              
  Willem Van den Heuvel  : Paramagnetic NMR                              
  Zikuan Wang            : NOTCH, Electric field optimization            
  Frank Wennmohs         : Technical directorship and infrastructure     
  Hang Xu                : AUTO-CI-Response properties                   
                                                                         
[FACCTs GmbH]                                                            
  Markus Bursch, Nicolas Foglia, Miquel Garcia-Rates, Ingolf Harden, Hagen Neugebauer, Anastasios Papadopoulos, 
  Christoph Riplinger, Bernardo de Souza, Georgi L. Stoychev                                                    
                                                                 
  APM, various basis sets, CI-OPT, improved COSX, DLPNO-Multilevel,           
  DOCKER, DRACO, updates on ESD, Fragmentator, GOAT, IRC, LR-CPCM, L-BFGS, MBIS, meta-GGA TD-DFT gradient, ML-optimized integration grids, 
  MM, NACMEs, nearIR, NEB, NEB-TS, NL-DFT gradient (VV10), 2- and 3-layer-ONIOM, interface openCOSMO-RS, QMMM,   
  Crystal-QMMM, RESP, rigid body optimization, SF, symmetry and pop. for TD-DFT, various functionals, SOLVATOR                                   
                                                                         
[Other institutions]                                                     
  V. Asgeirsson          : NEB                                           
  Christoph Bannwarth    : sTDA-DFT, sTD-DFT, PBEh-3c, B97-3c, D3        
  Giovanni Bistoni       : ETS/NOCV, ADLD/ADEX, COVALED                  
  Martin Brehm           : Molecular dynamics                            
  Ronald Cardenas        : ETS/NOCV                                      
  Martina Colucci        : COVALED                                       
  Sebastian Ehlert       : rSCAN, r2SCAN, r2SCAN-3c, D4, dhf basis sets  
  Marvin Friede          : D4 for Fr, Ra, Ac-Lr                          
  Lars Goerigk           : TD-DFT with DH, B97 family of functionals     
  Stefan Grimme          : VdW corrections, initial TS optimization, DFT functionals, gCP, sTDA/sTD-DF 
  Waldemar Hujo          : DFT-NL                                        
  H. Jonsson             : NEB                                           
  Holger Kruse           : gCP                                           
  Marcel Mueller         : wB97X-3c, vDZP basis set                      
  Hagen Neugebauer       : wr2SCAN, Native XTB                           
  Gianluca Regni         : ADLD/ADEX                                     
  Tobias Risthaus        : pre 6.0 range-separated hybrid DFT and stability analysis
  Lukas Wittmann         : regularized MP2, r2SCAN double-hybrids, wr2SCAN        
                                                                         
We gratefully acknowledge several colleagues who have allowed us to      
interface, adapt or use parts of their codes:                            
  Ed Valeev, F. Pavosevic, A. Kumar             : LibInt (2-el integral package), F12 methods 
  Garnet Chan, S. Sharma, J. Yang, R. Olivares  : DMRG                   
  Ulf Ekstrom                                   : XCFun DFT Library      
  Mihaly Kallay                                 : mrcc  (arbitrary order and MRCC methods)
  Frank Weinhold                                : gennbo (NPA and NBO analysis)           
  Simon Mueller                                 : openCOSMO-RS                            
  Christopher J. Cramer and Donald G. Truhlar   : smd solvation model                     
  S Lehtola, MJT Oliveira, MAL Marques          : LibXC Library                           
  Liviu Ungur et al                             : ANISO software                          


 Your calculation uses the libint2 library for the computation of 2-el integrals
 For citations please refer to: http://libint.valeyev.net

 Your ORCA version has been built with support for libXC version: 7.0.0
 For citations please refer to: https://libxc.gitlab.io

 This ORCA versions uses:
   CBLAS   interface :  Fast vector & matrix operations
   LAPACKE interface :  Fast linear algebra routines
   SCALAPACK package :  Parallel linear algebra routines
   Shared memory     :  Shared parallel matrices
   BLAS/LAPACK       :  OpenBLAS 0.3.29  USE64BITINT DYNAMIC_ARCH NO_AFFINITY Haswell SINGLE_THREADED
        Core in use  :  Haswell
   Copyright (c) 2011-2014, The OpenBLAS Project


  ***********************************
  * Starting time: Wed Sep  3 15:33:50 2025
  * Host name:     chemlab03
  * Process ID:    122157
  * Working dir.:  /home/vivek/mm-project/vivek/xtb-goat/MP2-opt/k/3
  ***********************************



***************************************
The coordinates will be read from file: /home/vivek/mm-project/vivek/xtb-goat/xtb-goat/k/K_CONF/3.xyz
***************************************


================================================================================

----- Orbital basis set information -----
Your calculation utilizes the basis: 6-31G**
   H-He, Li-Ne : W. J. Hehre, R. Ditchfield and J.A. Pople, J. Chem. Phys. 56, 2257 (1972).
                 Note: He and Ne are unpublished basis sets taken from the Gaussian program.
                 Note: Li and B from J. D. Dill and J. A. Pople, J. Chem. Phys. 62, 2921 (1975).
   Na - Ar     : M. M. Francl, W. J. Pietro, W. J. Hehre, J. S. Binkley, M. S. Gordon, 
                 D. J. DeFrees and J. A. Pople, J. Chem. Phys. 77, 3654 (1982).
   K - Zn      : V. A. Rassolov, J. A. Pople, M. A. Ratner, and T. L. Windus, J. Chem. Phys. 109, 1223 (1998).

================================================================================
                                        WARNINGS
                       Please study these warnings very carefully!
================================================================================


WARNING: The frozen-core approximation for MP2-gradient calculations is turned on by default.

WARNING: Geometry Optimization
  ===> : Switching off AutoStart
         For restart on a previous wavefunction, please use MOREAD

WARNING: Post HF methods need fully converged wavefunctions
  ===> : Setting SCFConvForced true
         You can overwrite this default with %scf ConvForced false 


================================================================================
                                       INPUT FILE
================================================================================
NAME = 3.inp
|  1> ! MP2 6-31G** opt
|  2> 
|  3> * xyzfile 0 1 /home/vivek/mm-project/vivek/xtb-goat/xtb-goat/k/K_CONF/3.xyz
|  4> 
|  5>                          ****END OF INPUT****
================================================================================

                       *****************************
                       * Geometry Optimization Run *
                       *****************************

Geometry optimization settings:
Update method            Update   .... BFGS
Choice of coordinates    CoordSys .... (2022) Redundant Internals
Initial Hessian          InHess   .... Almloef's Model
Max. no of cycles        MaxIter  .... 72

Convergence Tolerances:
Energy Change            TolE     ....  5.0000e-06 Eh
Max. Gradient            TolMAXG  ....  3.0000e-04 Eh/bohr
RMS Gradient             TolRMSG  ....  1.0000e-04 Eh/bohr
Max. Displacement        TolMAXD  ....  4.0000e-03 bohr
RMS Displacement         TolRMSD  ....  2.0000e-03 bohr
Strict Convergence                .... False

------------------------------------------------------------------------------
                        ORCA OPTIMIZATION COORDINATE SETUP
------------------------------------------------------------------------------

The optimization will be done in redundant internal coordinates (2022)
Making redundant internal coordinates   ...  (2022 redundants) done
Evaluating the initial hessian          ...  (Almloef) done
Evaluating the coordinates              ...  done
Calculating the B-matrix                .... done
Calculating the G-matrix                .... done
The number of degrees of freedom        ....  104

    -----------------------------------------------------------------
                    Redundant Internal Coordinates


    -----------------------------------------------------------------
         Definition                    Initial Value    Approx d2E/dq
    -----------------------------------------------------------------
      1. B(C   1,C   0)                  1.5345         0.367383   
      2. B(N   4,H   2)                  1.0153         0.424412   
      3. B(N   4,C   0)                  1.4525         0.444809   
      4. B(N   4,H   3)                  1.0152         0.424493   
      5. B(C   5,C   1)                  1.5251         0.380426   
      6. B(H   6,C   1)                  1.0937         0.355175   
      7. B(H   7,C   1)                  1.0909         0.358848   
      8. B(C   8,C   5)                  1.5289         0.375132   
      9. B(H   9,C   5)                  1.0918         0.357691   
     10. B(H  10,C   5)                  1.0930         0.356139   
     11. B(C  11,C   8)                  1.5390         0.361398   
     12. B(H  12,C   8)                  1.0917         0.357866   
     13. B(H  13,C   8)                  1.0922         0.357171   
     14. B(C  14,C  11)                  1.5259         0.379312   
     15. B(N  16,C  11)                  1.4497         0.449417   
     16. B(O  17,H  15)                  0.9709         0.499561   
     17. B(O  17,C  14)                  1.3372         0.679314   
     18. B(H  18,C   0)                  1.0942         0.354527   
     19. B(H  19,C   0)                  1.0937         0.355299   
     20. B(H  20,N  16)                  1.0160         0.423276   
     21. B(O  21,C  14)                  1.2030         1.112227   
     22. B(H  22,C  11)                  1.0962         0.352048   
     23. B(H  23,N  16)                  1.0151         0.424732   
     24. A(C   1,C   0,H  19)          109.5355         0.322719   
     25. A(C   1,C   0,N   4)          114.5974         0.370989   
     26. A(N   4,C   0,H  18)          107.4432         0.330930   
     27. A(C   1,C   0,H  18)          109.7975         0.322604   
     28. A(H  18,C   0,H  19)          107.8536         0.289518   
     29. A(N   4,C   0,H  19)          107.3796         0.331050   
     30. A(C   5,C   1,H   6)          109.2490         0.324553   
     31. A(C   5,C   1,H   7)          109.0714         0.325103   
     32. A(C   0,C   1,H   6)          109.0548         0.322701   
     33. A(C   0,C   1,C   5)          111.8299         0.363442   
     34. A(H   6,C   1,H   7)          107.8647         0.290053   
     35. A(C   0,C   1,H   7)          109.6858         0.323246   
     36. A(C   0,N   4,H   3)          109.8127         0.338060   
     37. A(C   0,N   4,H   2)          109.9609         0.338049   
     38. A(H   2,N   4,H   3)          107.2782         0.301397   
     39. A(C   8,C   5,H  10)          108.2839         0.323951   
     40. A(C   1,C   5,H  10)          108.9997         0.324698   
     41. A(C   8,C   5,H   9)          109.1515         0.324183   
     42. A(C   1,C   5,H   9)          109.3396         0.324930   
     43. A(C   1,C   5,C   8)          113.3771         0.364742   
     44. A(H   9,C   5,H  10)          107.5209         0.290029   
     45. A(H  12,C   8,H  13)          108.3020         0.290183   
     46. A(C  11,C   8,H  12)          107.7739         0.322232   
     47. A(C  11,C   8,H  13)          108.7166         0.322129   
     48. A(C   5,C   8,H  13)          109.6816         0.324106   
     49. A(C   5,C   8,H  12)          108.6805         0.324209   
     50. A(C   5,C   8,C  11)          113.5486         0.361558   
     51. A(C  14,C  11,N  16)          111.6118         0.373699   
     52. A(C   8,C  11,N  16)          111.7184         0.370598   
     53. A(C   8,C  11,C  14)          108.4158         0.362242   
     54. A(N  16,C  11,H  22)          108.5910         0.331111   
     55. A(C  14,C  11,H  22)          107.6790         0.323926   
     56. A(C   8,C  11,H  22)          108.7057         0.321368   
     57. A(C  11,C  14,O  17)          112.8962         0.401605   
     58. A(O  17,C  14,O  21)          122.8124         0.484504   
     59. A(C  11,C  14,O  21)          124.2914         0.438510   
     60. A(H  20,N  16,H  23)          106.7931         0.301295   
     61. A(C  11,N  16,H  23)          109.9945         0.338674   
     62. A(C  11,N  16,H  20)          109.2914         0.338480   
     63. A(C  14,O  17,H  15)          110.5040         0.373402   
     64. D(H   6,C   1,C   0,H  19)    179.3722         0.010799   
     65. D(H   6,C   1,C   0,N   4)    -59.8970         0.010799   
     66. D(H   6,C   1,C   0,H  18)     61.1122         0.010799   
     67. D(C   5,C   1,C   0,N   4)    179.1666         0.010799   
     68. D(C   5,C   1,C   0,H  18)    -59.8242         0.010799   
     69. D(C   5,C   1,C   0,H  19)     58.4357         0.010799   
     70. D(H   2,N   4,C   0,C   1)     58.9680         0.016874   
     71. D(H   3,N   4,C   0,H  18)    178.8498         0.016874   
     72. D(H   3,N   4,C   0,C   1)    -58.8541         0.016874   
     73. D(H   2,N   4,C   0,H  19)   -179.1186         0.016874   
     74. D(H   2,N   4,C   0,H  18)    -63.3281         0.016874   
     75. D(H   9,C   5,C   1,C   0)    -56.4090         0.011533   
     76. D(C   8,C   5,C   1,H   6)     60.7288         0.011533   
     77. D(C   8,C   5,C   1,C   0)   -178.4476         0.011533   
     78. D(C   8,C   5,C   1,H   7)    -56.9512         0.011533   
     79. D(H   9,C   5,C   1,H   7)     65.0875         0.011533   
     80. D(H   9,C   5,C   1,H   6)   -177.2326         0.011533   
     81. D(H  12,C   8,C   5,H   9)     69.0880         0.011231   
     82. D(H  12,C   8,C   5,C   1)   -168.7686         0.011231   
     83. D(C  11,C   8,C   5,H  10)   -167.6050         0.011231   
     84. D(C  11,C   8,C   5,H   9)    -50.8367         0.011231   
     85. D(H  12,C   8,C   5,H  10)    -47.6802         0.011231   
     86. D(C  11,C   8,C   5,C   1)     71.3067         0.011231   
     87. D(N  16,C  11,C   8,H  13)     50.4793         0.010473   
     88. D(N  16,C  11,C   8,H  12)    167.6593         0.010473   
     89. D(N  16,C  11,C   8,C   5)    -71.9026         0.010473   
     90. D(C  14,C  11,C   8,H  13)    -72.9209         0.010473   
     91. D(C  14,C  11,C   8,H  12)     44.2590         0.010473   
     92. D(C  14,C  11,C   8,C   5)    164.6971         0.010473   
     93. D(O  17,C  14,C  11,N  16)    167.9040         0.010739   
     94. D(O  17,C  14,C  11,C   8)    -68.6316         0.010739   
     95. D(O  21,C  14,C  11,N  16)    -12.0114         0.010739   
     96. D(O  21,C  14,C  11,C   8)    111.4530         0.010739   
     97. D(O  17,C  14,C  11,H  22)     48.8136         0.010739   
     98. D(H  23,N  16,C  11,C  14)    -59.2182         0.017229   
     99. D(H  23,N  16,C  11,C   8)    179.2102         0.017229   
    100. D(H  20,N  16,C  11,H  22)    176.2719         0.017229   
    101. D(H  20,N  16,C  11,C  14)     57.7245         0.017229   
    102. D(H  20,N  16,C  11,C   8)    -63.8472         0.017229   
    103. D(H  15,O  17,C  14,O  21)     -0.7122         0.034365   
    104. D(H  15,O  17,C  14,C  11)    179.3709         0.034365   
    -----------------------------------------------------------------

Number of atoms                         .... 24
Number of degrees of freedom            .... 104


         *************************************************************
         *                GEOMETRY OPTIMIZATION CYCLE   1            *
         *************************************************************
---------------------------------
CARTESIAN COORDINATES (ANGSTROEM)
---------------------------------
  C    -14.040634    6.629333    0.526250
  C    -12.611153    6.314679    0.987139
  H    -15.021306    6.171635    2.251401
  H    -14.947894    4.932294    1.187277
  N    -15.080746    5.935721    1.265711
  C    -11.570825    7.059091    0.156865
  H    -12.504165    6.598505    2.037987
  H    -12.427836    5.242023    0.909857
  C    -10.131168    6.741866    0.562073
  H    -11.708060    6.814685   -0.898369
  H    -11.729484    8.134713    0.268836
  C     -9.680265    5.323643    0.169754
  H     -9.464559    7.451888    0.068822
  H    -10.018662    6.859196    1.642132
  C     -8.159147    5.256606    0.269396
  H     -6.580061    5.933770   -0.560222
  N    -10.314330    4.312333    0.992436
  O     -7.543810    5.993521   -0.661461
  H    -14.232218    7.702656    0.619245
  H    -14.153070    6.358719   -0.527412
  H    -10.018771    4.430732    1.957258
  O     -7.561468    4.612665    1.091206
  H     -9.953529    5.144727   -0.876608
  H    -10.009093    3.388376    0.703492

----------------------------
CARTESIAN COORDINATES (A.U.)
----------------------------
  NO LB      ZA    FRAG     MASS         X           Y           Z
   0 C     6.0000    0    12.011  -26.532952   12.527624    0.994469
   1 C     6.0000    0    12.011  -23.831625   11.933013    1.865422
   2 H     1.0000    0     1.008  -28.386155   11.662700    4.254531
   3 H     1.0000    0     1.008  -28.247425    9.320686    2.243629
   4 N     7.0000    0    14.007  -28.498480   11.216888    2.391847
   5 C     6.0000    0    12.011  -21.865690   13.339749    0.296432
   6 H     1.0000    0     1.008  -23.629447   12.469367    3.851237
   7 H     1.0000    0     1.008  -23.485207    9.905988    1.719381
   8 C     6.0000    0    12.011  -19.145134   12.740281    1.062165
   9 H     1.0000    0     1.008  -22.125026   12.877887   -1.697671
  10 H     1.0000    0     1.008  -22.165513   15.372380    0.508026
  11 C     6.0000    0    12.011  -18.293050   10.060228    0.320790
  12 H     1.0000    0     1.008  -17.885424   14.082028    0.130055
  13 H     1.0000    0     1.008  -18.932527   12.962003    3.103180
  14 C     6.0000    0    12.011  -15.418554    9.933546    0.509084
  15 H     1.0000    0     1.008  -12.434513   11.213200   -1.058666
  16 N     7.0000    0    14.007  -19.491259    8.149129    1.875433
  17 O     8.0000    0    15.999  -14.255735   11.326112   -1.249980
  18 H     1.0000    0     1.008  -26.894994   14.555910    1.170204
  19 H     1.0000    0     1.008  -26.745427   12.016238   -0.996664
  20 H     1.0000    0     1.008  -18.932734    8.372871    3.698682
  21 O     8.0000    0    15.999  -14.289104    8.716674    2.062080
  22 H     1.0000    0     1.008  -18.809444    9.722125   -1.656548
  23 H     1.0000    0     1.008  -18.914444    6.403103    1.329408

--------------------------------
INTERNAL COORDINATES (ANGSTROEM)
--------------------------------
 C      0   0   0     0.000000000000     0.00000000     0.00000000
 C      1   0   0     1.534549375138     0.00000000     0.00000000
 H      1   2   0     2.036504520987    98.51506760     0.00000000
 H      3   1   2     1.635149204855    66.26163861   266.33762933
 N      4   3   1     1.015217940538    36.36195713   320.34657122
 C      2   1   3     1.525052769986   111.82985523   203.12025770
 H      2   1   3     1.093748453501   109.05475944   324.05666405
 H      2   1   3     1.090948047367   109.68579208    81.97897345
 C      6   2   1     1.528867583527   113.37705581   181.55236488
 H      6   2   1     1.091826864165   109.33962648   303.59099486
 H      6   2   1     1.093011161404   108.99973705    60.86771327
 C      9   6   2     1.539020648723   113.54860442    71.30668221
 H      9   6   2     1.091694000195   108.68050065   191.23141376
 H      9   6   2     1.092222838352   109.68164987   309.46009698
 C     12   9   6     1.525851176307   108.41583838   164.69707269
 H     15  12   9     1.907965009521   141.35900724   291.84853188
 N     12   9   6     1.449686713741   111.71843107   288.09735962
 O     16  15  12     0.970892524271    41.03077801   359.07195551
 H      1   2   3     1.094246074890   109.79752855    97.05553071
 H      1   2   3     1.093653611461   109.53551124   215.31548963
 H     17  12   9     1.015999196615   109.29141277   296.15278594
 O     15  12   9     1.203017970266   124.29137151   111.45300913
 H     12   9   6     1.096155979579   108.70570455    47.91079340
 H     17  12   9     1.015064270647   109.99448601   179.21016137

---------------------------
INTERNAL COORDINATES (A.U.)
---------------------------
 C      0   0   0     0.000000000000     0.00000000     0.00000000
 C      1   0   0     2.899878057990     0.00000000     0.00000000
 H      1   2   0     3.848435815158    98.51506760     0.00000000
 H      3   1   2     3.089984185275    66.26163861   266.33762933
 N      4   3   1     1.918483873860    36.36195713   320.34657122
 C      2   1   3     2.881932075052   111.82985523   203.12025770
 H      2   1   3     2.066885036517   109.05475944   324.05666405
 H      2   1   3     2.061593035860   109.68579208    81.97897345
 C      6   2   1     2.889141027895   113.37705581   181.55236488
 H      6   2   1     2.063253758929   109.33962648   303.59099486
 H      6   2   1     2.065491756373   108.99973705    60.86771327
 C      9   6   2     2.908327540536   113.54860442    71.30668221
 H      9   6   2     2.063002682414   108.68050065   191.23141376
 H      9   6   2     2.064002041699   109.68164987   309.46009698
 C     12   9   6     2.883440844341   108.41583838   164.69707269
 H     15  12   9     3.605531341098   141.35900724   291.84853188
 N     12   9   6     2.739510868955   111.71843107   288.09735962
 O     16  15  12     1.834720976344    41.03077801   359.07195551
 H      1   2   3     2.067825404661   109.79752855    97.05553071
 H      1   2   3     2.066705811035   109.53551124   215.31548963
 H     17  12   9     1.919960233887   109.29141277   296.15278594
 O     15  12   9     2.273374497989   124.29137151   111.45300913
 H     12   9   6     2.071434601464   108.70570455    47.91079340
 H     17  12   9     1.918193479852   109.99448601   179.21016137

---------------------
BASIS SET INFORMATION
---------------------
There are 4 groups of distinct atoms

 Group   1 Type C   : 10s4p1d contracted to 3s2p1d pattern {631/31/1}
 Group   2 Type H   : 4s1p contracted to 2s1p pattern {31/1}
 Group   3 Type N   : 10s4p1d contracted to 3s2p1d pattern {631/31/1}
 Group   4 Type O   : 10s4p1d contracted to 3s2p1d pattern {631/31/1}

Atom   0C    basis set group =>   1
Atom   1C    basis set group =>   1
Atom   2H    basis set group =>   2
Atom   3H    basis set group =>   2
Atom   4N    basis set group =>   3
Atom   5C    basis set group =>   1
Atom   6H    basis set group =>   2
Atom   7H    basis set group =>   2
Atom   8C    basis set group =>   1
Atom   9H    basis set group =>   2
Atom  10H    basis set group =>   2
Atom  11C    basis set group =>   1
Atom  12H    basis set group =>   2
Atom  13H    basis set group =>   2
Atom  14C    basis set group =>   1
Atom  15H    basis set group =>   2
Atom  16N    basis set group =>   3
Atom  17O    basis set group =>   4
Atom  18H    basis set group =>   2
Atom  19H    basis set group =>   2
Atom  20H    basis set group =>   2
Atom  21O    basis set group =>   4
Atom  22H    basis set group =>   2
Atom  23H    basis set group =>   2
------------------------------------------------------------------------------
                             ORCA STARTUP CALCULATIONS
------------------------------------------------------------------------------
------------------------------------------------------------------------------
                   ___                                                        
                  /   \      - P O W E R E D   B Y -                         
                 /     \                                                     
                 |  |  |   _    _      __       _____    __    __             
                 |  |  |  | |  | |    /  \     |  _  \  |  |  /  |          
                  \  \/   | |  | |   /    \    | | | |  |  | /  /          
                 / \  \   | |__| |  /  /\  \   | |_| |  |  |/  /          
                |  |  |   |  __  | /  /__\  \  |    /   |      \           
                |  |  |   | |  | | |   __   |  |    \   |  |\   \          
                \     /   | |  | | |  |  |  |  | |\  \  |  | \   \       
                 \___/    |_|  |_| |__|  |__|  |_| \__\ |__|  \__/        
                                                                              
                      - O R C A' S   B I G   F R I E N D -                    
                                      &                                       
                       - I N T E G R A L  F E E D E R -                       
                                                                              
 v1 FN, 2020, v2 2021, v3 2022-2024                                           
------------------------------------------------------------------------------


----------------------
SHARK INTEGRAL PACKAGE
----------------------

Number of atoms                             ...     24
Number of basis functions                   ...    210
Number of shells                            ...    102
Maximum angular momentum                    ...      2
Integral batch strategy                     ... SHARK/LIBINT Hybrid
RI-J (if used) integral strategy            ... SPLIT-RIJ (Revised 2003 algorithm where possible)
Printlevel                                  ...      1
Contraction scheme used                     ... SEGMENTED contraction
Prescreening option                         ... SCHWARTZ
   Thresh                                   ... 2.500e-11
   Tcut                                     ... 2.500e-12
   Tpresel                                  ... 2.500e-12 
Coulomb Range Separation                    ... NOT USED
Exchange Range Separation                   ... NOT USED
Multipole approximations                    ... NOT USED
Finite Nucleus Model                        ... NOT USED
CABS basis                                  ... NOT available
Auxiliary Coulomb fitting basis             ... NOT available
Auxiliary J/K fitting basis                 ... NOT available
Auxiliary Correlation fitting basis         ... NOT available
Auxiliary 'external' fitting basis          ... NOT available

Checking pre-screening integrals            ... done (  0.0 sec) Dimension = 102
   => SHARK Basis and OBASIS are compatible. Storing Pre-screening
Shell pair information
Shell pair cut-off parameter TPreSel        ...   2.5e-12
Total number of shell pairs                 ...      5253
Shell pairs after pre-screening             ...      4361
Total number of primitive shell pairs       ...     24562
Primitive shell pairs kept                  ...     13390
          la=0 lb=0:   1447 shell pairs
          la=1 lb=0:   1643 shell pairs
          la=1 lb=1:    488 shell pairs
          la=2 lb=0:    471 shell pairs
          la=2 lb=1:    268 shell pairs
          la=2 lb=2:     44 shell pairs

Checking whether 4 symmetric matrices of dimension 210 fit in memory
:Max Core in MB      =   4096.00
 MB in use           =      7.00
 MB left             =   4089.00
 MB needed           =      0.68
 Data fit in memory  = YES
Calculating Nuclear repulsion               ... done (  0.0 sec) ENN=    554.619204621755 Eh

Diagonalization of the overlap matrix:
Smallest eigenvalue                        ... 2.758e-03
Time for diagonalization                   ...    0.002 sec
Threshold for overlap eigenvalues          ... 1.000e-07
Number of eigenvalues below threshold      ... 0
Time for construction of square roots      ...    0.001 sec
Total time needed                          ...    0.003 sec

-------------------
DFT GRID GENERATION
-------------------

General Integration Accuracy     IntAcc      ... 4.388
Radial Grid Type                 RadialGrid  ... OptM3 with GC (2021)
Angular Grid (max. ang.)         AngularGrid ... 4 (Lebedev-302)
Angular grid pruning method      GridPruning ... 4 (adaptive)
Weight generation scheme         WeightScheme... mBecke (2022)
Basis function cutoff            BFCut       ... 1.0000e-11
Integration weight cutoff        WCut        ... 1.0000e-14
Partially contracted basis set               ... off
Rotationally invariant grid construction     ... off
Angular grids for H and He will be reduced by one unit

Total number of grid points                  ...   104814
Total number of batches                      ...     1649
Average number of points per batch           ...       63
Average number of grid points per atom       ...     4367
Grids setup in   0.4 sec
Initializing property integral containers    ... done (  0.0 sec)

SHARK setup successfully completed in   0.5 seconds

Maximum memory used throughout the entire STARTUP-calculation: 41.9 MB
-------------------------------------------------------------------------------
                                 ORCA GUESS
                   Start orbitals & Density for SCF / CASSCF
-------------------------------------------------------------------------------

------------
SCF SETTINGS
------------
Hamiltonian:
 Ab initio Hamiltonian  Method          .... Hartree-Fock(GTOs)


General Settings:
 Integral files         IntName         .... 3
 Hartree-Fock type      HFTyp           .... RHF
 Total Charge           Charge          ....    0
 Multiplicity           Mult            ....    1
 Number of Electrons    NEL             ....   80
 Basis Dimension        Dim             ....  210
 Nuclear Repulsion      ENuc            ....    554.6192046218 Eh

Convergence Acceleration:
 AO-DIIS                CNVDIIS         .... on
   Start iteration      DIISMaxIt       ....    12
   Startup error        DIISStart       ....  0.200000
   # of expansion vecs  DIISMaxEq       ....     5
   Bias factor          DIISBfac        ....   1.050
   Max. coefficient     DIISMaxC        ....  10.000
 MO-DIIS                CNVKDIIS        .... off
 Trust-Rad. Augm. Hess. CNVTRAH         .... auto
   Auto Start mean grad. ratio tolernc. ....  1.125000
   Auto Start start iteration           ....    50
   Auto Start num. interpolation iter.  ....    10
   Max. Number of Micro iterations      ....    24
   Max. Number of Macro iterations      .... Maxiter - #DIIS iter
   Number of Davidson start vectors     ....     2
   Converg. threshold    (grad. norm)   ....   1.000e-05
   Grad. Scal. Fac. for Micro threshold ....   0.100
   Minimum threshold for Micro iter.    ....   1.000e-02
   NR start threshold (gradient norm)   ....   1.000e-04
   Initial trust radius                 ....   0.400
   Minimum AH scaling param. (alpha)    ....   1.000
   Maximum AH scaling param. (alpha)    .... 1000.000
   Quad. conv. algorithm                .... NR
   White noise on init. David. guess    .... on
   Maximum white noise                  ....   0.010
   Pseudo random numbers                .... off
   Inactive MOs                         .... canonical
   Orbital update algorithm             .... Taylor
   Preconditioner                       .... Diag
   Full preconditioner red. dimension   ....   250
 SOSCF                 CNVSOSCF           .... on
   Start iteration     SOSCFMaxIt         ....   150
   Startup grad/error  SOSCFStart         ....  0.003300
   Hessian update      SOSCFHessUp        .... L-BFGS
   Autom. constraints  SOSCFAutoConstrain .... off
 Level Shifting         CNVShift        .... on
   Level shift para.    LevelShift      ....    0.2500
   Turn off err/grad.   ShiftErr        ....    0.0010
 Zerner damping         CNVZerner       .... off
 Static damping         CNVDamp         .... on
   Fraction old density DampFac         ....    0.7000
   Max. Damping (<1)    DampMax         ....    0.9800
   Min. Damping (>=0)   DampMin         ....    0.0000
   Turn off err/grad.   DampErr         ....    0.1000

SCF Procedure:
 Maximum # iterations   MaxIter         ....   125
 SCF integral mode      SCFMode         .... Direct
   Integral package                     .... SHARK and LIBINT hybrid scheme
 Reset frequency        DirectResetFreq ....    20
 Integral Threshold     Thresh          ....  2.500e-11 Eh
 Primitive CutOff       TCut            ....  2.500e-12 Eh

Convergence Tolerance:
 Convergence Check Mode ConvCheckMode   .... Total+1el-Energy
 Convergence forced     ConvForced      .... 1
 Energy Change          TolE            ....  1.000e-08 Eh
 1-El. energy change                    ....  1.000e-05 Eh
 Orbital Gradient       TolG            ....  1.000e-05
 Orbital Rotation angle TolX            ....  1.000e-05
 DIIS Error             TolErr          ....  5.000e-07

------------------------------
INITIAL GUESS: MODEL POTENTIAL
------------------------------
Loading Hartree-Fock densities                     ... done
Calculating cut-offs                               ... done
Initializing the effective Hamiltonian             ... done
Setting up the integral package (SHARK)            ... done
Starting the Coulomb interaction                   ... done (   0.1 sec)
Making the grid                                    ... done (   0.1 sec)
Mapping shells                                     ... done
Starting the XC term evaluation                    ... done (   0.1 sec)
Transforming the Hamiltonian                       ... done (   0.0 sec)
Diagonalizing the Hamiltonian                      ... done (   0.0 sec)
Back transforming the eigenvectors                 ... done (   0.0 sec)
Now organizing SCF variables                       ... done
                      ------------------
                      INITIAL GUESS DONE (   0.3 sec)
                      ------------------
             **** ENERGY FILE WAS UPDATED (3.en.tmp) ****
Finished Guess after   0.3 sec
Maximum memory used throughout the entire GUESS-calculation: 12.5 MB

-------------------------------------------------------------------------------------------
                                      ORCA LEAN-SCF
                              memory conserving SCF solver
-------------------------------------------------------------------------------------------

----------------------------------------D-I-I-S--------------------------------------------
Iteration    Energy (Eh)           Delta-E    RMSDP     MaxDP     DIISErr   Damp  Time(sec)
-------------------------------------------------------------------------------------------
               ***  Starting incremental Fock matrix formation  ***
    1    -493.5117900891697218     0.00e+00  2.43e-03  6.40e-02  2.51e-01  0.700   2.3
    2    -493.6944527751869600    -1.83e-01  1.84e-03  4.78e-02  1.57e-01  0.700   2.2
                               ***Turning on AO-DIIS***
    3    -493.8009754878384001    -1.07e-01  9.70e-04  2.11e-02  9.21e-02  0.700   2.1
    4    -493.8677813905013636    -6.68e-02  2.17e-03  4.47e-02  6.31e-02  0.000   2.1
    5    -494.0154687292566678    -1.48e-01  2.49e-04  5.24e-03  5.59e-03  0.000   2.2
    6    -494.0160215595725504    -5.53e-04  1.26e-04  3.40e-03  3.31e-03  0.000   2.0
                              *** Initializing SOSCF ***
---------------------------------------S-O-S-C-F--------------------------------------
Iteration    Energy (Eh)           Delta-E    RMSDP     MaxDP     MaxGrad    Time(sec)
--------------------------------------------------------------------------------------
    7    -494.0161389051569358    -1.17e-04  6.78e-05  1.83e-03  1.89e-03     1.9
               *** Restarting incremental Fock matrix formation ***
    8    -494.0161719661920188    -3.31e-05  3.47e-05  9.58e-04  5.61e-04     2.3
    9    -494.0161795163575107    -7.55e-06  3.60e-05  9.79e-04  3.64e-04     1.8
   10    -494.0161822154963147    -2.70e-06  6.93e-06  2.63e-04  1.15e-04     1.8
   11    -494.0161824662687877    -2.51e-07  2.41e-06  7.29e-05  4.07e-05     1.6
   12    -494.0161825009819268    -3.47e-08  7.54e-07  2.61e-05  1.05e-05     1.5
   13    -494.0161825029582587    -1.98e-09  3.33e-07  1.20e-05  1.88e-06     1.3
                 **** Energy Check signals convergence ****

               *****************************************************
               *                     SUCCESS                       *
               *           SCF CONVERGED AFTER  13 CYCLES          *
               *****************************************************

             **** ENERGY FILE WAS UPDATED (3.en.tmp) ****

----------------
TOTAL SCF ENERGY
----------------

Total Energy       :       -494.01618250384047 Eh          -13442.86375 eV

Components:
Nuclear Repulsion  :        554.61920462175465 Eh           15091.95582 eV
Electronic Energy  :      -1048.63538712559512 Eh          -28534.81957 eV
One Electron Energy:      -1774.33214348134243 Eh          -48282.03224 eV
Two Electron Energy:        725.69675635574731 Eh           19747.21267 eV

Virial components:
Potential Energy   :       -987.56462384852978 Eh          -26872.99961 eV
Kinetic Energy     :        493.54844134468931 Eh           13430.13586 eV
Virial Ratio       :          2.00094771074117

---------------
SCF CONVERGENCE
---------------

  Last Energy change         ...    1.9763e-09  Tolerance :   1.0000e-08
  Last MAX-Density change    ...    1.2001e-05  Tolerance :   1.0000e-07
  Last RMS-Density change    ...    3.3345e-07  Tolerance :   5.0000e-09
  Last DIIS Error            ...    1.8918e-03  Tolerance :   5.0000e-07
  Last Orbital Gradient      ...    1.8819e-06  Tolerance :   1.0000e-05
  Last Orbital Rotation      ...    7.2047e-06  Tolerance :   1.0000e-05


----------------
ORBITAL ENERGIES
----------------

  NO   OCC          E(Eh)            E(eV) 
   0   2.0000     -20.620987      -561.1256 
   1   2.0000     -20.557059      -559.3860 
   2   2.0000     -15.551225      -423.1704 
   3   2.0000     -15.528907      -422.5630 
   4   2.0000     -11.384658      -309.7923 
   5   2.0000     -11.277518      -306.8769 
   6   2.0000     -11.234743      -305.7129 
   7   2.0000     -11.232700      -305.6573 
   8   2.0000     -11.219882      -305.3085 
   9   2.0000     -11.200941      -304.7931 
  10   2.0000      -1.471812       -40.0500 
  11   2.0000      -1.365584       -37.1594 
  12   2.0000      -1.202501       -32.7217 
  13   2.0000      -1.169373       -31.8203 
  14   2.0000      -1.070532       -29.1306 
  15   2.0000      -1.000056       -27.2129 
  16   2.0000      -0.926329       -25.2067 
  17   2.0000      -0.844898       -22.9909 
  18   2.0000      -0.806452       -21.9447 
  19   2.0000      -0.788146       -21.4465 
  20   2.0000      -0.709774       -19.3139 
  21   2.0000      -0.703299       -19.1377 
  22   2.0000      -0.675187       -18.3728 
  23   2.0000      -0.666684       -18.1414 
  24   2.0000      -0.637221       -17.3397 
  25   2.0000      -0.620237       -16.8775 
  26   2.0000      -0.604289       -16.4435 
  27   2.0000      -0.583590       -15.8803 
  28   2.0000      -0.577937       -15.7265 
  29   2.0000      -0.563875       -15.3438 
  30   2.0000      -0.527878       -14.3643 
  31   2.0000      -0.518582       -14.1113 
  32   2.0000      -0.503736       -13.7074 
  33   2.0000      -0.489805       -13.3283 
  34   2.0000      -0.481528       -13.1030 
  35   2.0000      -0.468452       -12.7472 
  36   2.0000      -0.466326       -12.6894 
  37   2.0000      -0.450893       -12.2694 
  38   2.0000      -0.398091       -10.8326 
  39   2.0000      -0.367627       -10.0036 
  40   0.0000       0.181130         4.9288 
  41   0.0000       0.215504         5.8642 
  42   0.0000       0.228999         6.2314 
  43   0.0000       0.233404         6.3512 
  44   0.0000       0.248801         6.7702 
  45   0.0000       0.254788         6.9331 
  46   0.0000       0.287731         7.8296 
  47   0.0000       0.295491         8.0407 
  48   0.0000       0.306287         8.3345 
  49   0.0000       0.321929         8.7601 
  50   0.0000       0.336976         9.1696 
*Only the first 10 virtual orbitals were printed.

                    ********************************
                    * MULLIKEN POPULATION ANALYSIS *
                    ********************************

-----------------------
MULLIKEN ATOMIC CHARGES
-----------------------
   0 C :   -0.021400
   1 C :   -0.230863
   2 H :    0.256286
   3 H :    0.258565
   4 N :   -0.700300
   5 C :   -0.219477
   6 H :    0.087628
   7 H :    0.158700
   8 C :   -0.235142
   9 H :    0.109149
  10 H :    0.113662
  11 C :   -0.023254
  12 H :    0.146047
  13 H :    0.120000
  14 C :    0.777764
  15 H :    0.373053
  16 N :   -0.680543
  17 O :   -0.636282
  18 H :    0.106451
  19 H :    0.108976
  20 H :    0.281028
  21 O :   -0.584946
  22 H :    0.156621
  23 H :    0.278278
Sum of atomic charges:    0.0000000

--------------------------------
MULLIKEN REDUCED ORBITAL CHARGES
--------------------------------
  0 C s       :     3.188701  s :     3.188701
      pz      :     0.965132  p :     2.766942
      px      :     0.817390
      py      :     0.984420
      dz2     :     0.017382  d :     0.065757
      dxz     :     0.011411
      dyz     :     0.006219
      dx2y2   :     0.020355
      dxy     :     0.010390

  1 C s       :     3.240727  s :     3.240727
      pz      :     0.983199  p :     2.942192
      px      :     0.897450
      py      :     1.061543
      dz2     :     0.013957  d :     0.047944
      dxz     :     0.008216
      dyz     :     0.004656
      dx2y2   :     0.013841
      dxy     :     0.007274

  2 H s       :     0.717648  s :     0.717648
      pz      :     0.014743  p :     0.026066
      px      :     0.006523
      py      :     0.004799

  3 H s       :     0.715382  s :     0.715382
      pz      :     0.004371  p :     0.026053
      px      :     0.006471
      py      :     0.015211

  4 N s       :     3.607480  s :     3.607480
      pz      :     1.216242  p :     4.057957
      px      :     1.656173
      py      :     1.185542
      dz2     :     0.013248  d :     0.034863
      dxz     :     0.005006
      dyz     :     0.001914
      dx2y2   :     0.009015
      dxy     :     0.005680

  5 C s       :     3.238814  s :     3.238814
      pz      :     1.007804  p :     2.931437
      px      :     0.896404
      py      :     1.027230
      dz2     :     0.014874  d :     0.049226
      dxz     :     0.008089
      dyz     :     0.004143
      dx2y2   :     0.015037
      dxy     :     0.007084

  6 H s       :     0.900055  s :     0.900055
      pz      :     0.008297  p :     0.012318
      px      :     0.001788
      py      :     0.002233

  7 H s       :     0.827806  s :     0.827806
      pz      :     0.001652  p :     0.013494
      px      :     0.002237
      py      :     0.009605

  8 C s       :     3.238275  s :     3.238275
      pz      :     1.048455  p :     2.948469
      px      :     0.988005
      py      :     0.912010
      dz2     :     0.014135  d :     0.048397
      dxz     :     0.006534
      dyz     :     0.005773
      dx2y2   :     0.010588
      dxy     :     0.011367

  9 H s       :     0.878442  s :     0.878442
      pz      :     0.008477  p :     0.012409
      px      :     0.001835
      py      :     0.002098

 10 H s       :     0.873911  s :     0.873911
      pz      :     0.001822  p :     0.012427
      px      :     0.001889
      py      :     0.008716

 11 C s       :     3.206605  s :     3.206605
      pz      :     1.019313  p :     2.746304
      px      :     0.832073
      py      :     0.894918
      dz2     :     0.017815  d :     0.070344
      dxz     :     0.006672
      dyz     :     0.013070
      dx2y2   :     0.022196
      dxy     :     0.010592

 12 H s       :     0.841326  s :     0.841326
      pz      :     0.003290  p :     0.012627
      px      :     0.004481
      py      :     0.004856

 13 H s       :     0.867636  s :     0.867636
      pz      :     0.008893  p :     0.012365
      px      :     0.001716
      py      :     0.001756

 14 C s       :     2.950404  s :     2.950404
      pz      :     0.631490  p :     2.125971
      px      :     0.857863
      py      :     0.636618
      dz2     :     0.036012  d :     0.145861
      dxz     :     0.031740
      dyz     :     0.025755
      dx2y2   :     0.029360
      dxy     :     0.022993

 15 H s       :     0.585408  s :     0.585408
      pz      :     0.007241  p :     0.041538
      px      :     0.026438
      py      :     0.007860

 16 N s       :     3.602055  s :     3.602055
      pz      :     1.163265  p :     4.044091
      px      :     1.745331
      py      :     1.135496
      dz2     :     0.008676  d :     0.034397
      dxz     :     0.007688
      dyz     :     0.005379
      dx2y2   :     0.003954
      dxy     :     0.008700

 17 O s       :     3.836672  s :     3.836672
      pz      :     1.676905  p :     4.774300
      px      :     1.357056
      py      :     1.740338
      dz2     :     0.006342  d :     0.025310
      dxz     :     0.003971
      dyz     :     0.006276
      dx2y2   :     0.006364
      dxy     :     0.002357

 18 H s       :     0.881593  s :     0.881593
      pz      :     0.001559  p :     0.011956
      px      :     0.001707
      py      :     0.008690

 19 H s       :     0.879029  s :     0.879029
      pz      :     0.008469  p :     0.011995
      px      :     0.001576
      py      :     0.001951

 20 H s       :     0.692943  s :     0.692943
      pz      :     0.014817  p :     0.026029
      px      :     0.007570
      py      :     0.003642

 21 O s       :     3.871555  s :     3.871555
      pz      :     1.480693  p :     4.680675
      px      :     1.719673
      py      :     1.480309
      dz2     :     0.009245  d :     0.032715
      dxz     :     0.006707
      dyz     :     0.006483
      dx2y2   :     0.004767
      dxy     :     0.005513

 22 H s       :     0.831223  s :     0.831223
      pz      :     0.008573  p :     0.012156
      px      :     0.002063
      py      :     0.001521

 23 H s       :     0.695670  s :     0.695670
      pz      :     0.004633  p :     0.026053
      px      :     0.007549
      py      :     0.013871



                     *******************************
                     * LOEWDIN POPULATION ANALYSIS *
                     *******************************

----------------------
LOEWDIN ATOMIC CHARGES
----------------------
   0 C :   -0.044806
   1 C :   -0.139024
   2 H :    0.121392
   3 H :    0.122407
   4 N :   -0.300321
   5 C :   -0.109044
   6 H :    0.049823
   7 H :    0.075262
   8 C :   -0.106786
   9 H :    0.058393
  10 H :    0.060785
  11 C :   -0.024606
  12 H :    0.073523
  13 H :    0.063706
  14 C :    0.226781
  15 H :    0.201948
  16 N :   -0.267445
  17 O :   -0.210010
  18 H :    0.055259
  19 H :    0.057101
  20 H :    0.133998
  21 O :   -0.310644
  22 H :    0.080225
  23 H :    0.132084

-------------------------------
LOEWDIN REDUCED ORBITAL CHARGES
-------------------------------
  0 C s       :     2.880148  s :     2.880148
      pz      :     1.028544  p :     3.037033
      px      :     0.971724
      py      :     1.036765
      dz2     :     0.032104  d :     0.127625
      dxz     :     0.022935
      dyz     :     0.011454
      dx2y2   :     0.040365
      dxy     :     0.020767

  1 C s       :     2.899785  s :     2.899785
      pz      :     1.047251  p :     3.148096
      px      :     1.013439
      py      :     1.087406
      dz2     :     0.025008  d :     0.091143
      dxz     :     0.017030
      dyz     :     0.008368
      dx2y2   :     0.026040
      dxy     :     0.014696

  2 H s       :     0.797780  s :     0.797780
      pz      :     0.044468  p :     0.080828
      px      :     0.022271
      py      :     0.014090

  3 H s       :     0.796680  s :     0.796680
      pz      :     0.013095  p :     0.080913
      px      :     0.022350
      py      :     0.045468

  4 N s       :     3.192660  s :     3.192660
      pz      :     1.225767  p :     4.046300
      px      :     1.626274
      py      :     1.194258
      dz2     :     0.022642  d :     0.061361
      dxz     :     0.008295
      dyz     :     0.005372
      dx2y2   :     0.016093
      dxy     :     0.008959

  5 C s       :     2.887630  s :     2.887630
      pz      :     1.059561  p :     3.127929
      px      :     1.007466
      py      :     1.060902
      dz2     :     0.026427  d :     0.093485
      dxz     :     0.016509
      dyz     :     0.007322
      dx2y2   :     0.028930
      dxy     :     0.014297

  6 H s       :     0.911428  s :     0.911428
      pz      :     0.023770  p :     0.038749
      px      :     0.006804
      py      :     0.008175

  7 H s       :     0.880682  s :     0.880682
      pz      :     0.006460  p :     0.044056
      px      :     0.008574
      py      :     0.029022

  8 C s       :     2.891718  s :     2.891718
      pz      :     1.070426  p :     3.123912
      px      :     1.045774
      py      :     1.007712
      dz2     :     0.024983  d :     0.091156
      dxz     :     0.011857
      dyz     :     0.010882
      dx2y2   :     0.021223
      dxy     :     0.022210

  9 H s       :     0.902529  s :     0.902529
      pz      :     0.024674  p :     0.039077
      px      :     0.006826
      py      :     0.007578

 10 H s       :     0.900200  s :     0.900200
      pz      :     0.006808  p :     0.039016
      px      :     0.006965
      py      :     0.025242

 11 C s       :     2.871050  s :     2.871050
      pz      :     1.036864  p :     3.012770
      px      :     0.973967
      py      :     1.001938
      dz2     :     0.033159  d :     0.140787
      dxz     :     0.013334
      dyz     :     0.025281
      dx2y2   :     0.046802
      dxy     :     0.022211

 12 H s       :     0.885991  s :     0.885991
      pz      :     0.010766  p :     0.040486
      px      :     0.014430
      py      :     0.015290

 13 H s       :     0.896486  s :     0.896486
      pz      :     0.025968  p :     0.039809
      px      :     0.007088
      py      :     0.006753

 14 C s       :     2.849249  s :     2.849249
      pz      :     0.830570  p :     2.607573
      px      :     1.012341
      py      :     0.764663
      dz2     :     0.075152  d :     0.316398
      dxz     :     0.068408
      dyz     :     0.062030
      dx2y2   :     0.062070
      dxy     :     0.048739

 15 H s       :     0.677682  s :     0.677682
      pz      :     0.023299  p :     0.120370
      px      :     0.072242
      py      :     0.024828

 16 N s       :     3.187939  s :     3.187939
      pz      :     1.168584  p :     4.018553
      px      :     1.698370
      py      :     1.151599
      dz2     :     0.017166  d :     0.060953
      dxz     :     0.010612
      dyz     :     0.011958
      dx2y2   :     0.008481
      dxy     :     0.012737

 17 O s       :     3.457223  s :     3.457223
      pz      :     1.658945  p :     4.704744
      px      :     1.333893
      py      :     1.711907
      dz2     :     0.010060  d :     0.048042
      dxz     :     0.008894
      dyz     :     0.010510
      dx2y2   :     0.012808
      dxy     :     0.005771

 18 H s       :     0.907103  s :     0.907103
      pz      :     0.006209  p :     0.037638
      px      :     0.006165
      py      :     0.025263

 19 H s       :     0.905232  s :     0.905232
      pz      :     0.024770  p :     0.037667
      px      :     0.005667
      py      :     0.007231

 20 H s       :     0.784038  s :     0.784038
      pz      :     0.044533  p :     0.081964
      px      :     0.025920
      py      :     0.011511

 21 O s       :     3.548125  s :     3.548125
      pz      :     1.504360  p :     4.705269
      px      :     1.716217
      py      :     1.484693
      dz2     :     0.011769  d :     0.057249
      dxz     :     0.014068
      dyz     :     0.014093
      dx2y2   :     0.007140
      dxy     :     0.010179

 22 H s       :     0.880236  s :     0.880236
      pz      :     0.025466  p :     0.039539
      px      :     0.007474
      py      :     0.006599

 23 H s       :     0.786237  s :     0.786237
      pz      :     0.014115  p :     0.081679
      px      :     0.026102
      py      :     0.041462



                      *****************************
                      * MAYER POPULATION ANALYSIS *
                      *****************************

  NA   - Mulliken gross atomic population
  ZA   - Total nuclear charge
  QA   - Mulliken gross atomic charge
  VA   - Mayer's total valence
  BVA  - Mayer's bonded valence
  FA   - Mayer's free valence

  ATOM       NA         ZA         QA         VA         BVA        FA
  0 C      6.0214     6.0000    -0.0214     3.8009     3.8009    -0.0000
  1 C      6.2309     6.0000    -0.2309     3.7658     3.7658    -0.0000
  2 H      0.7437     1.0000     0.2563     0.9108     0.9108     0.0000
  3 H      0.7414     1.0000     0.2586     0.9102     0.9102     0.0000
  4 N      7.7003     7.0000    -0.7003     2.7553     2.7553     0.0000
  5 C      6.2195     6.0000    -0.2195     3.8114     3.8114     0.0000
  6 H      0.9124     1.0000     0.0876     0.9560     0.9560    -0.0000
  7 H      0.8413     1.0000     0.1587     0.9508     0.9508     0.0000
  8 C      6.2351     6.0000    -0.2351     3.7815     3.7815     0.0000
  9 H      0.8909     1.0000     0.1091     0.9501     0.9501    -0.0000
 10 H      0.8863     1.0000     0.1137     0.9492     0.9492    -0.0000
 11 C      6.0233     6.0000    -0.0233     3.7329     3.7329    -0.0000
 12 H      0.8540     1.0000     0.1460     0.9470     0.9470     0.0000
 13 H      0.8800     1.0000     0.1200     0.9512     0.9512     0.0000
 14 C      5.2222     6.0000     0.7778     3.7045     3.7045    -0.0000
 15 H      0.6269     1.0000     0.3731     0.8712     0.8712     0.0000
 16 N      7.6805     7.0000    -0.6805     2.7709     2.7709     0.0000
 17 O      8.6363     8.0000    -0.6363     1.8183     1.8183    -0.0000
 18 H      0.8935     1.0000     0.1065     0.9483     0.9483    -0.0000
 19 H      0.8910     1.0000     0.1090     0.9484     0.9484    -0.0000
 20 H      0.7190     1.0000     0.2810     0.9063     0.9063     0.0000
 21 O      8.5849     8.0000    -0.5849     1.9016     1.9016     0.0000
 22 H      0.8434     1.0000     0.1566     0.9415     0.9415    -0.0000
 23 H      0.7217     1.0000     0.2783     0.9049     0.9049     0.0000

  Mayer bond orders larger than 0.100000
B(  0-C ,  1-C ) :   0.9606 B(  0-C ,  4-N ) :   0.9450 B(  0-C , 18-H ) :   0.9741 
B(  0-C , 19-H ) :   0.9744 B(  1-C ,  5-C ) :   0.9614 B(  1-C ,  6-H ) :   0.9743 
B(  1-C ,  7-H ) :   0.9554 B(  2-H ,  4-N ) :   0.9164 B(  3-H ,  4-N ) :   0.9152 
B(  5-C ,  8-C ) :   0.9750 B(  5-C ,  9-H ) :   0.9731 B(  5-C , 10-H ) :   0.9770 
B(  8-C , 11-C ) :   0.9483 B(  8-C , 12-H ) :   0.9695 B(  8-C , 13-H ) :   0.9668 
B( 11-C , 14-C ) :   0.9231 B( 11-C , 16-N ) :   0.9797 B( 11-C , 22-H ) :   0.9554 
B( 14-C , 17-O ) :   0.9670 B( 14-C , 21-O ) :   1.8367 B( 15-H , 17-O ) :   0.8395 
B( 16-N , 20-H ) :   0.8994 B( 16-N , 23-H ) :   0.9074 

-------
TIMINGS
-------

Total SCF time: 0 days 0 hours 0 min 26 sec 

Total time                  ....      26.367 sec
Sum of individual times     ....      25.141 sec  ( 95.3%)

SCF preparation             ....       0.019 sec  (  0.1%)
Fock matrix formation       ....      25.014 sec  ( 94.9%)
  Startup                   ....       0.001 sec  (  0.0% of F)
  Coulomb+Exchange Fock     ....      26.222 sec  (104.8% of F)
Diagonalization             ....       0.000 sec  (  0.0%)
Density matrix formation    ....       0.040 sec  (  0.2%)
Total Energy calculation    ....       0.001 sec  (  0.0%)
Population analysis         ....       0.003 sec  (  0.0%)
Orbital Transformation      ....       0.007 sec  (  0.0%)
Orbital Orthonormalization  ....       0.000 sec  (  0.0%)
DIIS solution               ....       0.037 sec  (  0.1%)
SOSCF solution              ....       0.018 sec  (  0.1%)
Finished LeanSCF after  26.4 sec

Maximum memory used throughout the entire LEANSCF-calculation: 16.1 MB

------------------------------------------------------------------------------
                                ORCA  MP2 
------------------------------------------------------------------------------

Freezing NCore=20 chemical core electrons
MP2 will be done in the AO integral direct mode
The Q1-step will be done using symmetric double matrices
Dimension of the basis                    ...  210
Memory devoted for MP2                    ... 4096 MB   
Memory needed for all in one shot         ... 1066 MB
Number of MOs that can be treated together...  114      
MP2 density construction                  ... relaxed
The MP2 gradient is requested => amplitudes will be stored on disk
Total number of MOs              ...   30
Number of MOs treated per batch  ...   30 
Number of batches necessary      ...    1 
OPERATORS   0/  0 PASS   0
-----------------------------------------------
 MP2 CORRELATION ENERGY   :     -1.532477524 Eh
-----------------------------------------------


---------------------
MP2 DENSITY FORMATION
---------------------

Completing the external part of the density      ... done
Storing the unrelaxed density                    ... done

Calculating G(D)                                 ... done
Completing the Lagrangian                        ... done
Solving the Z-vector equations                   ... 
-------------------
SHARK CP-SCF DRIVER
-------------------

Dimension of the orbital basis          ...    210
Dimension of the CPSCF-problem          ...   6800
Number of operators                     ...      1
Max. number of iterations               ...    128
Convergence Tolerance                   ... 1.0e-04
Number of perturbations                 ...      1
Perturbation type                       ... REAL

----------------------------
POPLE LINEAR EQUATION SOLVER
----------------------------

  ITERATION   0:   ||err||_max =   1.2712e-01 (   3.0 sec)
  ITERATION   1:   ||err||_max =   3.3351e-02 (   3.0 sec)
  ITERATION   2:   ||err||_max =   1.4413e-02 (   3.1 sec)
  ITERATION   3:   ||err||_max =   3.4173e-03 (   3.0 sec)
  ITERATION   4:   ||err||_max =   1.2988e-03 (   3.1 sec)
  ITERATION   5:   ||err||_max =   3.0259e-04 (   3.0 sec)
  ITERATION   6:   ||err||_max =   9.2938e-05 (   3.1 sec)
                                                 ... done
Finalizing the relaxed density                   ... done
Transforming P to the AO basis                   ... done
Storing the relaxed density                      ... done

------------------------------------
ENERGY WEIGHTED DENSITY FINALIZATION
------------------------------------

Gathering the parts of the W-matrix              ...                                                      done
Forming the Z-density                            ... done
Transforming Z to the AO basis                   ... done
Calculating G(Z)                                 ... done
Finalizing the W-matrix                          ...                                                      done
Transforming W to the AO basis and storing       ... done

                *********************************************
                * UNRELAXED MP2 DENSITY POPULATION ANALYSIS *
                *********************************************

------------------------------------------------------------------------------
                           ORCA POPULATION ANALYSIS
------------------------------------------------------------------------------
Input electron density              ... 3.pmp2ur
BaseName (.gbw .S,...)              ... 3

                    ********************************
                    * MULLIKEN POPULATION ANALYSIS *
                    ********************************

-----------------------
MULLIKEN ATOMIC CHARGES
-----------------------
   0 C :   -0.027801
   1 C :   -0.233128
   2 H :    0.255136
   3 H :    0.257399
   4 N :   -0.693272
   5 C :   -0.221272
   6 H :    0.088673
   7 H :    0.158676
   8 C :   -0.236597
   9 H :    0.110089
  10 H :    0.114601
  11 C :   -0.028557
  12 H :    0.146606
  13 H :    0.120880
  14 C :    0.744659
  15 H :    0.369846
  16 N :   -0.672257
  17 O :   -0.622716
  18 H :    0.107489
  19 H :    0.110015
  20 H :    0.279455
  21 O :   -0.562118
  22 H :    0.157238
  23 H :    0.276956
Sum of atomic charges:   -0.0000000

--------------------------------
MULLIKEN REDUCED ORBITAL CHARGES
--------------------------------
  0 C s       :     3.186072  s :     3.186072
      pz      :     0.963040  p :     2.761418
      px      :     0.816308
      py      :     0.982070
      dz2     :     0.020173  d :     0.080310
      dxz     :     0.014347
      dyz     :     0.009252
      dx2y2   :     0.023098
      dxy     :     0.013441
  1 C s       :     3.237254  s :     3.237254
      pz      :     0.980027  p :     2.931602
      px      :     0.894412
      py      :     1.057162
      dz2     :     0.017062  d :     0.064273
      dxz     :     0.011492
      dyz     :     0.007964
      dx2y2   :     0.017015
      dxy     :     0.010739
  2 H s       :     0.716710  s :     0.716710
      pz      :     0.015112  p :     0.028153
      px      :     0.007431
      py      :     0.005611
  3 H s       :     0.714468  s :     0.714468
      pz      :     0.005222  p :     0.028134
      px      :     0.007377
      py      :     0.015534
  4 N s       :     3.602763  s :     3.602763
      pz      :     1.210061  p :     4.033978
      px      :     1.644042
      py      :     1.179875
      dz2     :     0.017404  d :     0.056531
      dxz     :     0.009451
      dyz     :     0.006115
      dx2y2   :     0.013472
      dxy     :     0.010090
  5 C s       :     3.235372  s :     3.235372
      pz      :     1.004181  p :     2.920530
      px      :     0.893015
      py      :     1.023334
      dz2     :     0.017946  d :     0.065371
      dxz     :     0.011383
      dyz     :     0.007446
      dx2y2   :     0.018115
      dxy     :     0.010480
  6 H s       :     0.896115  s :     0.896115
      pz      :     0.009060  p :     0.015211
      px      :     0.002880
      py      :     0.003272
  7 H s       :     0.825073  s :     0.825073
      pz      :     0.002703  p :     0.016250
      px      :     0.003326
      py      :     0.010222
  8 C s       :     3.234964  s :     3.234964
      pz      :     1.044073  p :     2.936980
      px      :     0.983564
      py      :     0.909343
      dz2     :     0.017121  d :     0.064652
      dxz     :     0.009963
      dyz     :     0.009103
      dx2y2   :     0.013727
      dxy     :     0.014738
  9 H s       :     0.874643  s :     0.874643
      pz      :     0.009211  p :     0.015269
      px      :     0.002917
      py      :     0.003141
 10 H s       :     0.870145  s :     0.870145
      pz      :     0.002872  p :     0.015255
      px      :     0.002955
      py      :     0.009428
 11 C s       :     3.203386  s :     3.203386
      pz      :     1.015761  p :     2.739276
      px      :     0.831733
      py      :     0.891782
      dz2     :     0.020706  d :     0.085896
      dxz     :     0.010079
      dyz     :     0.016127
      dx2y2   :     0.024862
      dxy     :     0.014122
 12 H s       :     0.837982  s :     0.837982
      pz      :     0.004247  p :     0.015412
      px      :     0.005411
      py      :     0.005754
 13 H s       :     0.863923  s :     0.863923
      pz      :     0.009577  p :     0.015197
      px      :     0.002789
      py      :     0.002831
 14 C s       :     2.952044  s :     2.952044
      pz      :     0.640788  p :     2.146896
      px      :     0.857250
      py      :     0.648858
      dz2     :     0.037894  d :     0.156401
      dxz     :     0.034118
      dyz     :     0.027438
      dx2y2   :     0.031484
      dxy     :     0.025466
 15 H s       :     0.587469  s :     0.587469
      pz      :     0.007874  p :     0.042685
      px      :     0.026313
      py      :     0.008497
 16 N s       :     3.597370  s :     3.597370
      pz      :     1.157354  p :     4.018342
      px      :     1.731295
      py      :     1.129692
      dz2     :     0.012997  d :     0.056545
      dxz     :     0.012196
      dyz     :     0.009423
      dx2y2   :     0.008703
      dxy     :     0.013225
 17 O s       :     3.832493  s :     3.832493
      pz      :     1.665115  p :     4.741924
      px      :     1.349065
      py      :     1.727743
      dz2     :     0.011019  d :     0.048299
      dxz     :     0.008513
      dyz     :     0.010736
      dx2y2   :     0.011047
      dxy     :     0.006985
 18 H s       :     0.877737  s :     0.877737
      pz      :     0.002608  p :     0.014773
      px      :     0.002773
      py      :     0.009393
 19 H s       :     0.875175  s :     0.875175
      pz      :     0.009185  p :     0.014810
      px      :     0.002650
      py      :     0.002975
 20 H s       :     0.692490  s :     0.692490
      pz      :     0.015115  p :     0.028055
      px      :     0.008448
      py      :     0.004492
 21 O s       :     3.866985  s :     3.866985
      pz      :     1.468273  p :     4.640819
      px      :     1.706117
      py      :     1.466429
      dz2     :     0.013571  d :     0.054314
      dxz     :     0.011020
      dyz     :     0.010593
      dx2y2   :     0.009279
      dxy     :     0.009851
 22 H s       :     0.827886  s :     0.827886
      pz      :     0.009244  p :     0.014876
      px      :     0.003082
      py      :     0.002551
 23 H s       :     0.694971  s :     0.694971
      pz      :     0.005424  p :     0.028073
      px      :     0.008421
      py      :     0.014228


                     *******************************
                     * LOEWDIN POPULATION ANALYSIS *
                     *******************************

----------------------
LOEWDIN ATOMIC CHARGES
----------------------
   0 C :   -0.047875
   1 C :   -0.139805
   2 H :    0.120708
   3 H :    0.121721
   4 N :   -0.296317
   5 C :   -0.109555
   6 H :    0.050090
   7 H :    0.075025
   8 C :   -0.107257
   9 H :    0.058669
  10 H :    0.061048
  11 C :   -0.028057
  12 H :    0.073625
  13 H :    0.064004
  14 C :    0.202698
  15 H :    0.199584
  16 N :   -0.262415
  17 O :   -0.201451
  18 H :    0.055594
  19 H :    0.057444
  20 H :    0.133109
  21 O :   -0.292269
  22 H :    0.080336
  23 H :    0.131346

-------------------------------
LOEWDIN REDUCED ORBITAL CHARGES
-------------------------------
  0 C s       :     2.880034  s :     2.880034
      pz      :     1.024140  p :     3.023741
      px      :     0.967366
      py      :     1.032236
      dz2     :     0.035377  d :     0.144100
      dxz     :     0.026243
      dyz     :     0.014748
      dx2y2   :     0.043572
      dxy     :     0.024160
  1 C s       :     2.899482  s :     2.899482
      pz      :     1.041764  p :     3.130421
      px      :     1.007381
      py      :     1.081277
      dz2     :     0.028730  d :     0.109902
      dxz     :     0.020741
      dyz     :     0.011970
      dx2y2   :     0.029937
      dxy     :     0.018524
  2 H s       :     0.794673  s :     0.794673
      pz      :     0.046333  p :     0.084619
      px      :     0.023190
      py      :     0.015095
  3 H s       :     0.793587  s :     0.793587
      pz      :     0.014072  p :     0.084691
      px      :     0.023298
      py      :     0.047321
  4 N s       :     3.190692  s :     3.190692
      pz      :     1.218802  p :     4.020811
      px      :     1.614251
      py      :     1.187758
      dz2     :     0.027417  d :     0.084813
      dxz     :     0.013067
      dyz     :     0.009623
      dx2y2   :     0.021035
      dxy     :     0.013671
  5 C s       :     2.887299  s :     2.887299
      pz      :     1.053810  p :     3.110182
      px      :     1.001234
      py      :     1.055138
      dz2     :     0.030140  d :     0.112074
      dxz     :     0.020248
      dyz     :     0.010926
      dx2y2   :     0.032681
      dxy     :     0.018080
  6 H s       :     0.906228  s :     0.906228
      pz      :     0.025979  p :     0.043682
      px      :     0.008168
      py      :     0.009535
  7 H s       :     0.876185  s :     0.876185
      pz      :     0.007761  p :     0.048790
      px      :     0.009968
      py      :     0.031061
  8 C s       :     2.891392  s :     2.891392
      pz      :     1.064540  p :     3.105934
      px      :     1.039159
      py      :     1.002235
      dz2     :     0.028664  d :     0.109932
      dxz     :     0.015634
      dyz     :     0.014570
      dx2y2   :     0.024991
      dxy     :     0.026072
  9 H s       :     0.897370  s :     0.897370
      pz      :     0.026848  p :     0.043961
      px      :     0.008190
      py      :     0.008923
 10 H s       :     0.895077  s :     0.895077
      pz      :     0.008117  p :     0.043875
      px      :     0.008332
      py      :     0.027426
 11 C s       :     2.871317  s :     2.871317
      pz      :     1.031471  p :     2.997978
      px      :     0.970192
      py      :     0.996315
      dz2     :     0.036627  d :     0.158762
      dxz     :     0.017142
      dyz     :     0.028879
      dx2y2   :     0.049951
      dxy     :     0.026163
 12 H s       :     0.881091  s :     0.881091
      pz      :     0.012209  p :     0.045284
      px      :     0.016109
      py      :     0.016966
 13 H s       :     0.891341  s :     0.891341
      pz      :     0.028117  p :     0.044654
      px      :     0.008445
      py      :     0.008093
 14 C s       :     2.849965  s :     2.849965
      pz      :     0.836570  p :     2.619466
      px      :     1.008759
      py      :     0.774138
      dz2     :     0.076535  d :     0.327871
      dxz     :     0.071123
      dyz     :     0.064646
      dx2y2   :     0.064098
      dxy     :     0.051468
 15 H s       :     0.677589  s :     0.677589
      pz      :     0.024031  p :     0.122827
      px      :     0.073282
      py      :     0.025513
 16 N s       :     3.185990  s :     3.185990
      pz      :     1.162002  p :     3.991279
      px      :     1.684408
      py      :     1.144869
      dz2     :     0.021954  d :     0.085146
      dxz     :     0.015490
      dyz     :     0.016344
      dx2y2   :     0.013629
      dxy     :     0.017729
 17 O s       :     3.455305  s :     3.455305
      pz      :     1.647757  p :     4.673619
      px      :     1.325988
      py      :     1.699875
      dz2     :     0.015012  d :     0.072526
      dxz     :     0.013613
      dyz     :     0.015519
      dx2y2   :     0.017926
      dxy     :     0.010456
 18 H s       :     0.902001  s :     0.902001
      pz      :     0.007497  p :     0.042404
      px      :     0.007512
      py      :     0.027396
 19 H s       :     0.900133  s :     0.900133
      pz      :     0.026875  p :     0.042423
      px      :     0.006995
      py      :     0.008553
 20 H s       :     0.781217  s :     0.781217
      pz      :     0.046187  p :     0.085674
      px      :     0.026935
      py      :     0.012552
 21 O s       :     3.545141  s :     3.545141
      pz      :     1.491859  p :     4.665728
      px      :     1.702774
      py      :     1.471095
      dz2     :     0.016525  d :     0.081399
      dxz     :     0.019084
      dyz     :     0.018972
      dx2y2   :     0.011817
      dxy     :     0.015002
 22 H s       :     0.875308  s :     0.875308
      pz      :     0.027464  p :     0.044356
      px      :     0.008887
[...]
  1 C s       :     2.901268  s :     2.901268
      pz      :     1.044194  p :     3.142644
      px      :     1.013422
      py      :     1.085029
      dz2     :     0.024398  d :     0.104287
      dxz     :     0.021505
      dyz     :     0.013978
      dx2y2   :     0.028995
      dxy     :     0.015411
  2 H s       :     0.796355  s :     0.796355
      pz      :     0.042262  p :     0.083358
      px      :     0.023453
      py      :     0.017642
  3 H s       :     0.795022  s :     0.795022
      pz      :     0.014042  p :     0.083398
      px      :     0.023346
      py      :     0.046009
  4 N s       :     3.203852  s :     3.203852
      pz      :     1.211536  p :     3.997682
      px      :     1.598529
      py      :     1.187618
      dz2     :     0.023009  d :     0.082211
      dxz     :     0.015377
      dyz     :     0.012166
      dx2y2   :     0.020489
      dxy     :     0.011169
  5 C s       :     2.889635  s :     2.889635
      pz      :     1.057731  p :     3.124367
      px      :     1.001848
      py      :     1.064788
      dz2     :     0.024963  d :     0.104460
      dxz     :     0.020871
      dyz     :     0.013029
      dx2y2   :     0.030708
      dxy     :     0.014888
  6 H s       :     0.902411  s :     0.902411
      pz      :     0.023995  p :     0.043386
      px      :     0.008477
      py      :     0.010914
  7 H s       :     0.879808  s :     0.879808
      pz      :     0.008073  p :     0.046937
      px      :     0.009249
      py      :     0.029615
  8 C s       :     2.894534  s :     2.894534
      pz      :     1.070080  p :     3.118949
      px      :     1.031556
      py      :     1.017313
      dz2     :     0.027515  d :     0.103511
      dxz     :     0.014666
      dyz     :     0.013243
      dx2y2   :     0.021690
      dxy     :     0.026397
  9 H s       :     0.890281  s :     0.890281
      pz      :     0.024585  p :     0.043695
      px      :     0.008358
      py      :     0.010753
 10 H s       :     0.890866  s :     0.890866
      pz      :     0.008423  p :     0.043700
      px      :     0.008532
      py      :     0.026744
 11 C s       :     2.874617  s :     2.874617
      pz      :     1.049641  p :     3.021383
      px      :     0.985961
      py      :     0.985780
      dz2     :     0.036459  d :     0.151976
      dxz     :     0.014628
      dyz     :     0.022938
      dx2y2   :     0.046543
      dxy     :     0.031409
 12 H s       :     0.878013  s :     0.878013
      pz      :     0.011371  p :     0.045031
      px      :     0.015108
      py      :     0.018552
 13 H s       :     0.888724  s :     0.888724
      pz      :     0.027518  p :     0.044169
      px      :     0.008291
      py      :     0.008359
 14 C s       :     2.862646  s :     2.862646
      pz      :     0.881625  p :     2.690081
      px      :     0.981984
      py      :     0.826472
      dz2     :     0.062566  d :     0.304915
      dxz     :     0.075450
      dyz     :     0.060347
      dx2y2   :     0.056729
      dxy     :     0.049823
 15 H s       :     0.690969  s :     0.690969
      pz      :     0.029447  p :     0.120486
      px      :     0.065713
      py      :     0.025326
 16 N s       :     3.200361  s :     3.200361
      pz      :     1.182655  p :     3.971006
      px      :     1.649713
      py      :     1.138638
      dz2     :     0.022817  d :     0.083232
      dxz     :     0.012632
      dyz     :     0.013935
      dx2y2   :     0.012736
      dxy     :     0.021112
 17 O s       :     3.481313  s :     3.481313
      pz      :     1.654286  p :     4.624221
      px      :     1.307801
      py      :     1.662134
      dz2     :     0.012364  d :     0.072118
      dxz     :     0.016511
      dyz     :     0.014530
      dx2y2   :     0.016910
      dxy     :     0.011803
 18 H s       :     0.897161  s :     0.897161
      pz      :     0.007811  p :     0.042471
      px      :     0.007381
      py      :     0.027279
 19 H s       :     0.894674  s :     0.894674
      pz      :     0.024740  p :     0.042499
      px      :     0.007448
      py      :     0.010311
 20 H s       :     0.785320  s :     0.785320
      pz      :     0.046363  p :     0.084057
      px      :     0.025283
      py      :     0.012411
 21 O s       :     3.561487  s :     3.561487
      pz      :     1.441873  p :     4.589130
      px      :     1.694160
      py      :     1.453096
      dz2     :     0.018263  d :     0.078735
      dxz     :     0.017540
      dyz     :     0.019774
      dx2y2   :     0.010661
      dxy     :     0.012497
 22 H s       :     0.873756  s :     0.873756
      pz      :     0.028765  p :     0.044455
      px      :     0.007899
      py      :     0.007792
 23 H s       :     0.786071  s :     0.786071
      pz      :     0.017280  p :     0.083601
      px      :     0.027828
      py      :     0.038493


                      *****************************
                      * MAYER POPULATION ANALYSIS *
                      *****************************

  NA   - Mulliken gross atomic population
  ZA   - Total nuclear charge
  QA   - Mulliken gross atomic charge
  VA   - Mayer's total valence
  BVA  - Mayer's bonded valence
  FA   - Mayer's free valence

  ATOM       NA         ZA         QA         VA         BVA        FA
  0 C      6.0640     6.0000    -0.0640     3.9409     3.6849     0.2559
  1 C      6.2196     6.0000    -0.2196     3.9105     3.6442     0.2664
  2 H      0.7580     1.0000     0.2420     0.9241     0.8774     0.0467
  3 H      0.7554     1.0000     0.2446     0.9233     0.8768     0.0465
  4 N      7.6266     7.0000    -0.6266     3.0179     2.6978     0.3201
  5 C      6.1997     6.0000    -0.1997     3.9352     3.6691     0.2661
  6 H      0.9152     1.0000     0.0848     0.9672     0.9167     0.0505
  7 H      0.8640     1.0000     0.1360     0.9726     0.9247     0.0479
  8 C      6.2189     6.0000    -0.2189     3.9180     3.6492     0.2688
  9 H      0.8930     1.0000     0.1070     0.9625     0.9130     0.0496
 10 H      0.8937     1.0000     0.1063     0.9599     0.9102     0.0497
 11 C      6.0488     6.0000    -0.0488     3.8992     3.6249     0.2743
 12 H      0.8667     1.0000     0.1333     0.9603     0.9117     0.0486
 13 H      0.8895     1.0000     0.1105     0.9639     0.9142     0.0497
 14 C      5.4434     6.0000     0.5566     3.9539     3.6750     0.2789
 15 H      0.6570     1.0000     0.3430     0.9013     0.8576     0.0437
 16 N      7.6010     7.0000    -0.6010     3.0488     2.7252     0.3237
 17 O      8.5248     8.0000    -0.5248     2.1964     1.8444     0.3519
 18 H      0.8952     1.0000     0.1048     0.9597     0.9119     0.0479
 19 H      0.8908     1.0000     0.1092     0.9590     0.9114     0.0476
 20 H      0.7386     1.0000     0.2614     0.9255     0.8794     0.0461
 21 O      8.4398     8.0000    -0.4398     2.3217     1.9326     0.3891
 22 H      0.8561     1.0000     0.1439     0.9544     0.9062     0.0482
 23 H      0.7401     1.0000     0.2599     0.9179     0.8715     0.0463

  Mayer bond orders larger than 0.100000
B(  0-C ,  1-C ) :   0.9228 B(  0-C ,  4-N ) :   0.9355 B(  0-C , 18-H ) :   0.9297 
B(  0-C , 19-H ) :   0.9299 B(  1-C ,  5-C ) :   0.9283 B(  1-C ,  6-H ) :   0.9264 
B(  1-C ,  7-H ) :   0.9129 B(  2-H ,  4-N ) :   0.8805 B(  3-H ,  4-N ) :   0.8796 
B(  5-C ,  8-C ) :   0.9246 B(  5-C ,  9-H ) :   0.9251 B(  5-C , 10-H ) :   0.9290 
B(  8-C , 11-C ) :   0.9217 B(  8-C , 12-H ) :   0.9210 B(  8-C , 13-H ) :   0.9198 
B( 11-C , 14-C ) :   0.8672 B( 11-C , 16-N ) :   0.9673 B( 11-C , 22-H ) :   0.9063 
B( 14-C , 17-O ) :   0.9845 B( 14-C , 21-O ) :   1.8151 B( 15-H , 17-O ) :   0.8124 
B( 16-N , 20-H ) :   0.8636 B( 16-N , 23-H ) :   0.8718 


----------------------------------
MP2 DERIVATIVE INTEGRAL GENERATION
----------------------------------

Input SCF Electron Density              ... 3.scfp
Input Correlated Electron Density       ... 3.pmp2re
Input Energy Weighted Density           ... 3.wmp2.tmp
Input Wavefunction Amplitudes           ... 3.mp2tsaa.tmp

Nuclear repulsion gradient              ... done (  0.0 sec)
HCore & Overlap gradient  (SHARK)       ... done (  0.2 sec)
Analytic two-electron gradient terms    ... 
  Batch handling in the gradient evaluation:
  General contraction                   ... not used
  Memory available                      ... 4079.9 MB
  Memory per occupied orbital in Q2     ...   10.1 MB
  Memory per occupied orbital in Q3     ...    0.0 MB
  Total memory requirement per |i>      ...   10.1 MB
  Number of orbitals treated per batch  ...     30
  Number of batches to be done          ...      1
done ( 28.8 sec)

---------------------------------------
MP2 TOTAL ENERGY:     -495.551954350 Eh
---------------------------------------

The final MP2 gradient
  0:  -0.00002504  -0.00002566   0.00004324
  1:   0.00000336  -0.00000019  -0.00002187
  2:  -0.00000180  -0.00000890   0.00000351
  3:  -0.00000108   0.00000024   0.00000944
  4:   0.00002050   0.00001522  -0.00002393
  5:   0.00000894  -0.00001464   0.00003645
  6:  -0.00000137  -0.00000176   0.00000269
  7:   0.00000058   0.00000458   0.00000959
  8:  -0.00000716  -0.00001285  -0.00001570
  9:  -0.00000680   0.00001610  -0.00000850
 10:  -0.00000491   0.00000023  -0.00001308
 11:  -0.00000827  -0.00004578   0.00000216
 12:   0.00000195   0.00000728   0.00000829
 13:   0.00000601   0.00000550   0.00000161
 14:   0.00003246   0.00002174   0.00002021
 15:  -0.00000176   0.00001005  -0.00000491
 16:   0.00001048   0.00001592  -0.00000713
 17:  -0.00001242  -0.00003666   0.00000769
 18:   0.00000240   0.00000305  -0.00002071
 19:   0.00000309   0.00001664  -0.00001078
 20:   0.00000450  -0.00000455  -0.00000085
 21:  -0.00002534   0.00001477  -0.00002192
 22:   0.00000372   0.00002396  -0.00000237
 23:  -0.00000206  -0.00000427   0.00000686

-----------------------------------
NORM OF THE MP2 GRADIENT:  0.000131
-----------------------------------

Maximum memory used throughout the entire MP2-calculation: 1139.7 MB

-------------------------   --------------------
FINAL SINGLE POINT ENERGY      -495.551954350462
-------------------------   --------------------

                                *** OPTIMIZATION RUN DONE ***


------------------------------------------------------------------------------
                              ORCA PROPERTY CALCULATIONS
------------------------------------------------------------------------------

GBWName                                 ... 3.gbw
Number of atoms                         ...     24
Number of basis functions               ...    210
Max core memory                         ...   4096 MB

Electric properties:
Dipole moment                           ... YES
Quadrupole moment                       ...  NO
Static polarizability (Dipole/Dipole)   ...  NO
Static polarizability (Dipole/Quad.)    ...  NO
Static polarizability (Quad./Quad.)     ...  NO
Static polarizability (Velocity)        ...  NO
Static hyperpolarizability              ...  NO

Atomic electric properties:
Dipole moment                           ...  NO
Quadrupole moment                       ...  NO
Static polarizability                   ...  NO

Choice of electric origin               ... Center of mass
Position of electric origin             ...   -20.103880    10.978634     1.071494

General magnetic properties:
Magnetizability                         ...  NO

EPR properties:
g-Tensor (aka g-matrix)                 ...  NO
Zero-Field splitting spin-orbit         ...  NO
Zero-field splitting spin-spin          ...  NO
Hyperfine couplings                     ...  NO (   0 nuclei)
Quadrupole couplings                    ...  NO (   0 nuclei)
Contact density                         ...  NO (   0 nuclei)

NMR properties:
Chemical shifts                         ...  NO (   0 nuclei)
Spin-rotation constants                 ...  NO (   0 nuclei)
Spin-spin couplings                     ...  NO (   0 nuclei,    0 pairs)

Choice of magnetic origin               ... GIAO
Position of magnetic origin             ...     0.000000     0.000000     0.000000

Properties with geometric perturbations:
SCF Hessian                             ...  NO
IR spectrum                             ...  NO
VCD spectrum                            ...  NO
X-ray spectroscopy properties:
SCF XES/XAS/RIXS spectra                ...  NO

SCF SOC stabilization energy            ...  NO
Diagonal Born-Oppenheimer correction    ...  NO

-------------
DIPOLE MOMENT
-------------

Method             : SCF
Type of density    : Electron Density
Multiplicity       :   1
Irrep              :   0
Energy             :  -494.0153873063825358 Eh
Basis              : AO
                                X                 Y                 Z
Electronic contribution:     13.837096658      -3.356688381      -0.780495475
Nuclear contribution   :    -12.972964413       3.479221842       0.615011081
                        -----------------------------------------
Total Dipole Moment    :      0.864132245       0.122533461      -0.165484393
                        -----------------------------------------
Magnitude (a.u.)       :      0.888326557
Magnitude (Debye)      :      2.257946665



--------------------
Rotational spectrum 
--------------------
 
Rotational constants in cm-1:             0.113906             0.015813             0.014637 
Rotational constants in MHz :          3414.805453           474.051867           438.795092 

Dipole components along the rotational axes: 
x,y,z [a.u.] :    -0.845196    -0.267981    -0.054348 
x,y,z [Debye]:    -2.148318    -0.681153    -0.138141 

 

-------------
DIPOLE MOMENT
-------------

Method             : MP2
Type of density    : Electron Density
Multiplicity       :   1
Level              : Unrelaxed density
Irrep              :   0
Energy             :     0.0000000000000000 Eh
Basis              : AO
                                X                 Y                 Z
Electronic contribution:     13.846991075      -3.374389011      -0.756089924
Nuclear contribution   :    -12.972964413       3.479221842       0.615011081
                        -----------------------------------------
Total Dipole Moment    :      0.874026662       0.104832830      -0.141078843
                        -----------------------------------------
Magnitude (a.u.)       :      0.891524407
Magnitude (Debye)      :      2.266074954



--------------------
Rotational spectrum 
--------------------
 
Rotational constants in cm-1:             0.113906             0.015813             0.014637 
Rotational constants in MHz :          3414.805453           474.051867           438.795092 

Dipole components along the rotational axes: 
x,y,z [a.u.] :    -0.855262    -0.241924    -0.069399 
x,y,z [Debye]:    -2.173902    -0.614921    -0.176399 

 

-------------
DIPOLE MOMENT
-------------

Method             : MP2
Type of density    : Electron Density
Multiplicity       :   1
Level              : Relaxed density
Irrep              :   0
Energy             :     0.0000000000000000 Eh
Basis              : AO
                                X                 Y                 Z
Electronic contribution:     13.919246630      -3.446077843      -0.671611010
Nuclear contribution   :    -12.972964413       3.479221842       0.615011081
                        -----------------------------------------
Total Dipole Moment    :      0.946282217       0.033143999      -0.056599929
                        -----------------------------------------
Magnitude (a.u.)       :      0.948552640
Magnitude (Debye)      :      2.411029204



--------------------
Rotational spectrum 
--------------------
 
Rotational constants in cm-1:             0.113906             0.015813             0.014637 
Rotational constants in MHz :          3414.805453           474.051867           438.795092 

Dipole components along the rotational axes: 
x,y,z [a.u.] :    -0.929091    -0.146222    -0.123133 
x,y,z [Debye]:    -2.361561    -0.371666    -0.312978 

 

Dipole moment calculation done in   0.0 sec 

Maximum memory used throughout the entire PROP-calculation: 11.4 MB

--------------------------------
SUGGESTED CITATIONS FOR THIS RUN
--------------------------------

Below you find a list of papers that are relevant to this ORCA run
We neither can nor want to force you to cite these papers, but we appreciate if you do
You receive ORCA, which is the product of decades of hard work by many enthusiastic individuals, for free
The only thing we kindly ask in return is that you cite our papers,
We deeply appreciate it, if you show your appreciation for ORCA by not just citing the generic ORCA reference.

Please note that relegating all ORCA citations to the supporting information does *not* help us.
SI sections are not indexed - citations you put there will not count into any citation statistics
But we need these citations in order to attract the funding resources that allow us to do what we are doing

Therefore, if you are a happy ORCA user, please consider citing a few of the papers listed below in the main body of your paper

In addition to the list printed below, the program has created the file 3.bibtex that contains the list in bibtex format
You can import this file easily into all common literature databanks and citation aid programs


List of essential papers. We consider these as the minimum necessary citations

  1. Neese, F.
     Software update: the ORCA program system, version 6.0
     WIRES Comput. Molec. Sci. 2025 15(1), e70019
     doi.org/10.1002/wcms.7019

List of papers to cite with high priority. The work reported in these papers was absolutely
necessary for this run to complete.
Our perspective: the developers of density functionals and basis sets usually get cited in chemistry papers
Good! But without the algorithms to do something with them, the functionals or basis sets would not do anything.
Hence, in our opinion, the algorithm design and method developments papers are equally worthy of getting cited

  1. Neese, F.
     The SHARK Integral Generation and Digestion System
     J. Comp. Chem. 2022 44(3), 381
     doi.org/10.1002/jcc.26942

List of suggested additional citations. These are papers that are important in the 'surrounding' of 
of this run, or papers that preceded the highly important papers. If you like your results we are grateful for a citation.

  1. Neese, F.
     The ORCA program system
     WIRES Comput. Molec. Sci. 2012 2(1), 73-78
     doi.org/10.1002/wcms.81
  2. Neese, F.
     Software update: the ORCA program system, version 4.0
     WIRES Comput. Molec. Sci. 2018 8(1), 1-6
     doi.org/10.1002/wcms.1327
  3. Neese, F.; Wennmohs, F.; Becker, U.; Riplinger, C.
     The ORCA quantum chemistry program package
     J. Chem. Phys. 2020 152(22), 224108
     doi.org/10.1063/5.0004608
  4. Neese, F.
     Software update: The ORCA program system—Version 5.0
     WIRES Comput. Molec. Sci. 2022 12(1), e1606
     doi.org/10.1002/wcms.1606

List of optional additional citations

  1. Neese, F.
     Approximate second-order SCF convergence for spin unrestricted wavefunctions
     Chem. Phys. Lett. 2000 325(1-3), 93-98
     doi.org/10.1016/s0009-2614(00)00662-x

Timings for individual modules:

Sum of individual times          ...     1417.561 sec (=  23.626 min)
Startup calculation              ...        7.014 sec (=   0.117 min)   0.5 %
SCF iterations                   ...      262.014 sec (=   4.367 min)  18.5 %
Property calculations            ...        0.043 sec (=   0.001 min)   0.0 %
MP2 module                       ...     1148.464 sec (=  19.141 min)  81.0 %
Geometry relaxation              ...        0.026 sec (=   0.000 min)   0.0 %
                             ****ORCA TERMINATED NORMALLY****
TOTAL RUN TIME: 0 days 0 hours 23 minutes 37 seconds 881 msec
