
                                 *****************
                                 * O   R   C   A *
                                 *****************

                                            #,                                       
                                            ###                                      
                                            ####                                     
                                            #####                                    
                                            ######                                   
                                           ########,                                 
                                     ,,################,,,,,                         
                               ,,#################################,,                 
                          ,,##########################################,,             
                       ,#########################################, ''#####,          
                    ,#############################################,,   '####,        
                  ,##################################################,,,,####,       
                ,###########''''           ''''###############################       
              ,#####''   ,,,,##########,,,,          '''####'''          '####       
            ,##' ,,,,###########################,,,                        '##       
           ' ,,###''''                  '''############,,,                           
         ,,##''                                '''############,,,,        ,,,,,,###''
      ,#''                                            '''#######################'''  
     '                                                          ''''####''''         
             ,#######,   #######,   ,#######,      ##                                
            ,#'     '#,  ##    ##  ,#'     '#,    #''#        ,####,    ,#,          
            ##       ##  ##   ,#'  ##            #'  '#       #'       ,# #          
            ##       ##  #######   ##           ,######,      #####,      #          
            '#,     ,#'  ##    ##  '#,     ,#' ,#      #,     #,   #      #          
             '#######'   ##     ##  '#######'  #'      '#     '####' #    #          



                #########################################################
                #                        -***-                          #
                #          Department of theory and spectroscopy        #
                #                                                       #
                #                      Frank Neese                      #
                #                                                       #
                #     Directorship, Architecture, Infrastructure        #
                #                    SHARK, DRIVERS                     #
                #        Core code/Algorithms in most modules           #
                #                                                       #
                #        Max Planck Institute fuer Kohlenforschung      #
                #                Kaiser Wilhelm Platz 1                 #
                #                 D-45470 Muelheim/Ruhr                 #
                #                      Germany                          #
                #                                                       #
                #                  All rights reserved                  #
                #                        -***-                          #
                #########################################################


                         Program Version 6.1.0  -  RELEASE   -
                                (GIT: $679e74b$)
                          ($2025-06-10 18:02:51 +0200$)


 With contributions from (in alphabetic order):
[Max-Planck-Institut fuer Kohlenforschung]                               
  Daniel Aravena         : Magnetic Suceptibility                        
  Michael Atanasov       : Ab Initio Ligand Field Theory (pilot matlab implementation)
  Alexander A. Auer      : GIAO ZORA, VPT2 properties, NMR spectrum      
  Ute Becker             : All parallelization in ORCA, NUMFREQ, NUMCALC 
  Giovanni Bistoni       : ED, misc. LED, open-shell LED, HFLD           
  Dmytro Bykov           : pre 5.0 version of the SCF Hessian            
  Marcos Casanova-Páez   : Triplet and SCS-CIS(D). UHF-(DLPNO)-IP/EA/STEOM-CCSD. UHF-CVS-IP/STEOM-CCSD   
  Vijay G. Chilkuri      : MRCI spin determinant printing, contributions to CSF-ICE 
  Pauline Colinet        : FMM embedding                                 
  Dipayan Datta          : RHF DLPNO-CCSD density                        
  Achintya Kumar Dutta   : EOM-CC, STEOM-CC                              
  Nicolas Foglia         : Exact transition moments, OPA infrastructure, MCD improvements    
  Dmitry Ganyushin       : Spin-Orbit,Spin-Spin,Magnetic field MRCI      
  Miquel Garcia-Rates    : C-PCM and meta-GGA Hessian, CCSD/C-PCM, Gaussian charge scheme 
  Tiago L. C. Gouveia    : GS-ROHF, GS-ROCIS                             
  Yang Guo               : DLPNO-NEVPT2, F12-NEVPT2, CIM, IAO-localization        
  Andreas Hansen         : Spin unrestricted coupled pair/coupled cluster methods 
  Ingolf Harden          : AUTO-CI MPn and infrastructure                
  Benjamin Helmich-Paris : MC-RPA, TRAH-(SCF,CASSCF), AVAS, COSX integrals, SCF dyn. polar., MC-PDFT, srDFT 
  Lee Huntington         : MR-EOM, pCC                                   
  Robert Izsak           : Overlap fitted RIJCOSX, COSX-SCS-MP3, EOM     
  Riya Kayal             : Wick's Theorem for AUTO-CI, AUTO-CI UHF-CCSDT 
  Emily Kempfer          : AUTO-CI RHF CISDT and CCSDT, approximate NEVPT4
  Christian Kollmar      : KDIIS, OOCD, Brueckner-CCSD(T), CCSD density, CASPT2, CASPT2-K, improved NEVPT2 
  Axel Koslowski         : Symmetry handling                             
  Simone Kossmann        : meta-GGA functionals, TD-DFT gradient, OOMP2, (MP2 Hessian; deprecated post 5.0) 
  Lucas Lang             : DCDCAS, Hyperfine gauge corrections, ICE-SOC+SSC
  Marvin Lechner         : AUTO-CI (C++ implementation), FIC-MRCC        
  Spencer Leger          : CASSCF response                               
  Dagmar Lenk            : GEPOL surface, SMD, ORCA-2-JSON               
  Dimitrios Liakos       : Extrapolation schemes; Compound Job, Property file
  Dimitrios Manganas     : Further ROCIS development; embedding schemes. LFT, Crystal Embedding 
  Dimitrios Pantazis     : SARC Basis sets                               
  Anastasios Papadopoulos: AUTO-CI, single reference methods and gradients 
  Taras Petrenko         : pre 6.0 DFT Hessian and TD-DFT gradient,  ECA, NRVS 
  Petra Pikulova         : Analytic Raman intensities                    
  Peter Pinski           : DLPNO-MP2, DLPNO-MP2 Gradient                 
  Shashank Vittal Rao    : ES-AILFT, MagRelax                            
  Christoph Reimann      : Effective Core Potentials                     
  Marius Retegan         : Local ZFS, SOC                                
  Christoph Riplinger    : Optimizer, TS searches, QM/MM, DLPNO-CCSD(T), (RO)-DLPNO pert. Triples 
  Michael Roemelt        : Original ROCIS implementation, recursive CI coupling coefficients
  Masaaki Saitow         : Open-shell DLPNO-CCSD energy and density      
  Barbara Sandhoefer     : DKH picture change effects                    
  Yorick L. A. Schmerwitz: GMF and freeze-and-release deltaSCF, NEB S-IDPP initial path                    
  Kantharuban Sivalingam : CASSCF convergence/infrastructure, NEVPT2, NEVPT3, NEVPT4(SD), FIC-MRCI and CEPA variants
  Bernardo de Souza      : ESD, SOC TD-DFT                               
  Georgi L. Stoychev     : AutoAux, RI-MP2 NMR, DLPNO-MP2 response, X2C  
  Van Anh Tran           : RI-MP2 g-tensors                              
  Willem Van den Heuvel  : Paramagnetic NMR                              
  Zikuan Wang            : NOTCH, Electric field optimization            
  Frank Wennmohs         : Technical directorship and infrastructure     
  Hang Xu                : AUTO-CI-Response properties                   
                                                                         
[FACCTs GmbH]                                                            
  Markus Bursch, Nicolas Foglia, Miquel Garcia-Rates, Ingolf Harden, Hagen Neugebauer, Anastasios Papadopoulos, 
  Christoph Riplinger, Bernardo de Souza, Georgi L. Stoychev                                                    
                                                                 
  APM, various basis sets, CI-OPT, improved COSX, DLPNO-Multilevel,           
  DOCKER, DRACO, updates on ESD, Fragmentator, GOAT, IRC, LR-CPCM, L-BFGS, MBIS, meta-GGA TD-DFT gradient, ML-optimized integration grids, 
  MM, NACMEs, nearIR, NEB, NEB-TS, NL-DFT gradient (VV10), 2- and 3-layer-ONIOM, interface openCOSMO-RS, QMMM,   
  Crystal-QMMM, RESP, rigid body optimization, SF, symmetry and pop. for TD-DFT, various functionals, SOLVATOR                                   
                                                                         
[Other institutions]                                                     
  V. Asgeirsson          : NEB                                           
  Christoph Bannwarth    : sTDA-DFT, sTD-DFT, PBEh-3c, B97-3c, D3        
  Giovanni Bistoni       : ETS/NOCV, ADLD/ADEX, COVALED                  
  Martin Brehm           : Molecular dynamics                            
  Ronald Cardenas        : ETS/NOCV                                      
  Martina Colucci        : COVALED                                       
  Sebastian Ehlert       : rSCAN, r2SCAN, r2SCAN-3c, D4, dhf basis sets  
  Marvin Friede          : D4 for Fr, Ra, Ac-Lr                          
  Lars Goerigk           : TD-DFT with DH, B97 family of functionals     
  Stefan Grimme          : VdW corrections, initial TS optimization, DFT functionals, gCP, sTDA/sTD-DF 
  Waldemar Hujo          : DFT-NL                                        
  H. Jonsson             : NEB                                           
  Holger Kruse           : gCP                                           
  Marcel Mueller         : wB97X-3c, vDZP basis set                      
  Hagen Neugebauer       : wr2SCAN, Native XTB                           
  Gianluca Regni         : ADLD/ADEX                                     
  Tobias Risthaus        : pre 6.0 range-separated hybrid DFT and stability analysis
  Lukas Wittmann         : regularized MP2, r2SCAN double-hybrids, wr2SCAN        
                                                                         
We gratefully acknowledge several colleagues who have allowed us to      
interface, adapt or use parts of their codes:                            
  Ed Valeev, F. Pavosevic, A. Kumar             : LibInt (2-el integral package), F12 methods 
  Garnet Chan, S. Sharma, J. Yang, R. Olivares  : DMRG                   
  Ulf Ekstrom                                   : XCFun DFT Library      
  Mihaly Kallay                                 : mrcc  (arbitrary order and MRCC methods)
  Frank Weinhold                                : gennbo (NPA and NBO analysis)           
  Simon Mueller                                 : openCOSMO-RS                            
  Christopher J. Cramer and Donald G. Truhlar   : smd solvation model                     
  S Lehtola, MJT Oliveira, MAL Marques          : LibXC Library                           
  Liviu Ungur et al                             : ANISO software                          


 Your calculation uses the libint2 library for the computation of 2-el integrals
 For citations please refer to: http://libint.valeyev.net

 Your ORCA version has been built with support for libXC version: 7.0.0
 For citations please refer to: https://libxc.gitlab.io

 This ORCA versions uses:
   CBLAS   interface :  Fast vector & matrix operations
   LAPACKE interface :  Fast linear algebra routines
   SCALAPACK package :  Parallel linear algebra routines
   Shared memory     :  Shared parallel matrices
   BLAS/LAPACK       :  OpenBLAS 0.3.29  USE64BITINT DYNAMIC_ARCH NO_AFFINITY Haswell SINGLE_THREADED
        Core in use  :  Haswell
   Copyright (c) 2011-2014, The OpenBLAS Project


  ***********************************
  * Starting time: Sat Aug 30 15:22:02 2025
  * Host name:     chemlab03
  * Process ID:    78192
  * Working dir.:  /home/vivek/mm-project/vivek/xtb-goat/B97-D-opt/d/5
  ***********************************



***************************************
The coordinates will be read from file: /home/vivek/mm-project/vivek/xtb-goat/xtb-goat/d/D_CONF/5.xyz
***************************************


Your calculation utilizes empirical dispersion correction


Warning: RI is on but no J-basis has been assigned. Assigning Def2/J (nothing to worry about!)
================================================================================

----- Orbital basis set information -----
Your calculation utilizes the basis: 6-31G**
   H-He, Li-Ne : W. J. Hehre, R. Ditchfield and J.A. Pople, J. Chem. Phys. 56, 2257 (1972).
                 Note: He and Ne are unpublished basis sets taken from the Gaussian program.
                 Note: Li and B from J. D. Dill and J. A. Pople, J. Chem. Phys. 62, 2921 (1975).
   Na - Ar     : M. M. Francl, W. J. Pietro, W. J. Hehre, J. S. Binkley, M. S. Gordon, 
                 D. J. DeFrees and J. A. Pople, J. Chem. Phys. 77, 3654 (1982).
   K - Zn      : V. A. Rassolov, J. A. Pople, M. A. Ratner, and T. L. Windus, J. Chem. Phys. 109, 1223 (1998).

----- AuxJ basis set information -----
Your calculation utilizes the auxiliary basis: def2/J
   H-Rn: F. Weigend, Phys. Chem. Chem. Phys. 8, 1057 (2006).
   Fr-Lr: K. Eichkorn, F. Weigend, O. Treutler, R. Ahlrichs; Theor. Chem. Acc. 97, 119 (1997).

================================================================================
                                        WARNINGS
                       Please study these warnings very carefully!
================================================================================


WARNING: Geometry Optimization
  ===> : Switching off AutoStart
         For restart on a previous wavefunction, please use MOREAD

INFO   : The exchange functional is Grimme's B97(-D)
         As described in S. Grimme, J. Comput. Chem. 27, 1787 (2006).
         Note that this functional defaults to a pure GGA. 

INFO   : The correlation functional is Grimme's B97(-D)
         As described in S. Grimme, J. Comput. Chem. 27, 1787 (2006).

================================================================================
                                       INPUT FILE
================================================================================
NAME = 5.inp
|  1> ! B97-D 6-31G** opt
|  2> 
|  3> * xyzfile 0 1 /home/vivek/mm-project/vivek/xtb-goat/xtb-goat/d/D_CONF/5.xyz
|  4> 
|  5>                          ****END OF INPUT****
================================================================================

                       *****************************
                       * Geometry Optimization Run *
                       *****************************

Geometry optimization settings:
Update method            Update   .... BFGS
Choice of coordinates    CoordSys .... (2022) Redundant Internals
Initial Hessian          InHess   .... Almloef's Model
Max. no of cycles        MaxIter  .... 50

Convergence Tolerances:
Energy Change            TolE     ....  5.0000e-06 Eh
Max. Gradient            TolMAXG  ....  3.0000e-04 Eh/bohr
RMS Gradient             TolRMSG  ....  1.0000e-04 Eh/bohr
Max. Displacement        TolMAXD  ....  4.0000e-03 bohr
RMS Displacement         TolRMSD  ....  2.0000e-03 bohr
Strict Convergence                .... False

------------------------------------------------------------------------------
                        ORCA OPTIMIZATION COORDINATE SETUP
------------------------------------------------------------------------------

The optimization will be done in redundant internal coordinates (2022)
Making redundant internal coordinates   ...  (2022 redundants) done
Evaluating the initial hessian          ...  (Almloef) done
Evaluating the coordinates              ...  done
Calculating the B-matrix                .... done
Calculating the G-matrix                .... done
The number of degrees of freedom        ....   63

    -----------------------------------------------------------------
                    Redundant Internal Coordinates


    -----------------------------------------------------------------
         Definition                    Initial Value    Approx d2E/dq
    -----------------------------------------------------------------
      1. B(C   1,C   0)                  1.5050         0.409463   
      2. B(O   4,C   0)                  1.3359         0.682582   
      3. B(C   5,C   1)                  1.5298         0.373831   
      4. B(H   6,C   1)                  1.0935         0.355545   
      5. B(H   7,C   1)                  1.0891         0.361282   
      6. B(C   8,C   5)                  1.5304         0.373039   
      7. B(C   8,O   2)                  1.2032         1.111443   
      8. B(O   9,C   0)                  1.2019         1.116848   
      9. B(N  10,C   5)                  1.4544         0.441737   
     10. B(O  11,C   8)                  1.3310         0.695110   
     11. B(O  11,H   3)                  0.9709         0.499605   
     12. B(H  12,N  10)                  1.0157         0.423761   
     13. B(H  13,O   4)                  0.9706         0.500111   
     14. B(H  14,C   5)                  1.0936         0.355417   
     15. B(H  15,N  10)                  1.0140         0.426371   
     16. A(C   1,C   0,O   9)          125.1926         0.444947   
     17. A(C   1,C   0,O   4)          112.0498         0.407409   
     18. A(O   4,C   0,O   9)          122.7540         0.485306   
     19. A(C   5,C   1,H   7)          110.8879         0.324530   
     20. A(C   0,C   1,H   6)          107.3814         0.328564   
     21. A(H   6,C   1,H   7)          108.0468         0.290408   
     22. A(C   5,C   1,H   6)          109.2098         0.323678   
     23. A(C   0,C   1,C   5)          110.8367         0.369151   
     24. A(C   0,C   1,H   7)          110.3642         0.329434   
     25. A(C   0,O   4,H  13)          110.5813         0.373782   
     26. A(C   8,C   5,N  10)          110.9982         0.371522   
     27. A(C   1,C   5,N  10)          109.4696         0.371658   
     28. A(N  10,C   5,H  14)          108.6464         0.330688   
     29. A(C   8,C   5,H  14)          108.5186         0.323546   
     30. A(C   1,C   5,H  14)          110.5561         0.323659   
     31. A(C   1,C   5,C   8)          108.6496         0.363305   
     32. A(C   5,C   8,O  11)          112.2837         0.402051   
     33. A(O   2,C   8,O  11)          123.4760         0.486504   
     34. A(O   2,C   8,C   5)          124.0121         0.437138   
     35. A(H  12,N  10,H  15)          108.0631         0.301535   
     36. A(C   5,N  10,H  15)          110.5022         0.337918   
     37. A(C   5,N  10,H  12)          109.7958         0.337573   
     38. A(H   3,O  11,C   8)          110.7649         0.374892   
     39. D(H   6,C   1,C   0,O   9)    108.0284         0.012419   
     40. D(C   5,C   1,C   0,O   9)    -11.1831         0.012419   
     41. D(H   6,C   1,C   0,O   4)    -71.2851         0.012419   
     42. D(C   5,C   1,C   0,O   4)    169.5034         0.012419   
     43. D(H   7,C   1,C   0,O   4)     46.2600         0.012419   
     44. D(H  13,O   4,C   0,O   9)     -1.0538         0.034727   
     45. D(H  13,O   4,C   0,C   1)    178.2792         0.034727   
     46. D(N  10,C   5,C   1,H   7)    -59.4842         0.011158   
     47. D(N  10,C   5,C   1,H   6)     59.4696         0.011158   
     48. D(N  10,C   5,C   1,C   0)    177.5749         0.011158   
     49. D(C   8,C   5,C   1,H   7)    179.1535         0.011158   
     50. D(C   8,C   5,C   1,H   6)    -61.8927         0.011158   
     51. D(C   8,C   5,C   1,C   0)     56.2126         0.011158   
     52. D(O   2,C   8,C   5,N  10)    -71.4047         0.010409   
     53. D(O   2,C   8,C   5,C   1)     49.0158         0.010409   
     54. D(O  11,C   8,C   5,N  10)    103.2636         0.010409   
     55. D(O  11,C   8,C   5,C   1)   -136.3158         0.010409   
     56. D(O   2,C   8,C   5,H  14)    169.2721         0.010409   
     57. D(H  15,N  10,C   5,C   1)    176.2824         0.016640   
     58. D(H  12,N  10,C   5,H  14)    174.5676         0.016640   
     59. D(H  12,N  10,C   5,C   8)     55.3210         0.016640   
     60. D(H  15,N  10,C   5,C   8)    -63.7843         0.016640   
     61. D(H  12,N  10,C   5,C   1)    -64.6123         0.016640   
     62. D(H   3,O  11,C   8,C   5)    179.1348         0.036135   
     63. D(H   3,O  11,C   8,O   2)     -6.1635         0.036135   
    -----------------------------------------------------------------

Number of atoms                         .... 16
Number of degrees of freedom            .... 63


         *************************************************************
         *                GEOMETRY OPTIMIZATION CYCLE   1            *
         *************************************************************
---------------------------------
CARTESIAN COORDINATES (ANGSTROEM)
---------------------------------
  C     -4.833441    1.461824    1.088916
  C     -3.498196    1.051015    0.529029
  O     -2.369031    3.556286    1.476828
  H     -3.250126    5.304497    0.189438
  O     -5.446902    0.453144    1.714148
  C     -2.938926    2.134461   -0.394925
  H     -2.818217    0.912681    1.374108
  H     -3.583262    0.099938    0.005223
  C     -2.860986    3.449493    0.383992
  O     -5.309124    2.562659    1.008753
  N     -1.625247    1.733202   -0.872896
  O     -3.296479    4.485250   -0.329475
  H     -0.976850    1.680102   -0.092907
  H     -6.291987    0.747948    2.089611
  H     -3.595354    2.279995   -1.257366
  H     -1.265681    2.411829   -1.535019

----------------------------
CARTESIAN COORDINATES (A.U.)
----------------------------
  NO LB      ZA    FRAG     MASS         X           Y           Z
   0 C     6.0000    0    12.011   -9.133880    2.762447    2.057752
   1 C     6.0000    0    12.011   -6.610633    1.986131    0.999720
   2 O     8.0000    0    15.999   -4.476821    6.720407    2.790800
   3 H     1.0000    0     1.008   -6.141848   10.024047    0.357985
   4 O     8.0000    0    15.999  -10.293153    0.856318    3.239270
   5 C     6.0000    0    12.011   -5.553766    4.033546   -0.746300
   6 H     1.0000    0     1.008   -5.325658    1.724718    2.596687
   7 H     1.0000    0     1.008   -6.771383    0.188855    0.009871
   8 C     6.0000    0    12.011   -5.406480    6.518596    0.725640
   9 O     8.0000    0    15.999  -10.032791    4.842724    1.906268
  10 N     7.0000    0    14.007   -3.071272    3.275278   -1.649534
  11 O     8.0000    0    15.999   -6.229443    8.475893   -0.622617
  12 H     1.0000    0     1.008   -1.845979    3.174932   -0.175569
  13 H     1.0000    0     1.008  -11.890131    1.413417    3.948793
  14 H     1.0000    0     1.008   -6.794234    4.308565   -2.376077
  15 H     1.0000    0     1.008   -2.391790    4.557695   -2.900765

--------------------------------
INTERNAL COORDINATES (ANGSTROEM)
--------------------------------
 C      0   0   0     0.000000000000     0.00000000     0.00000000
 C      1   0   0     1.505030277465     0.00000000     0.00000000
 O      2   1   0     2.906840088411    89.31718061     0.00000000
 H      3   2   1     2.343062575178   108.53124466   290.31093926
 O      1   2   3     1.335921122416   112.04979472   222.71121508
 C      2   1   3     1.529813151993   110.83670978   306.79217231
 H      2   1   3     1.093465243417   107.38135106    66.00366256
 H      2   1   3     1.089107918036   110.36424180   183.54883456
 C      3   2   1     1.203209943378    57.89523492   270.47118477
 O      1   2   3     1.201889284625   125.19255124    42.02473907
 N      6   2   1     1.454378655292   109.46958342   177.57492148
 O      4   3   2     0.970868301238    71.45943778   335.65662220
 H     11   6   2     1.015687373918   109.79584505   295.38766202
 H      5   1   2     0.970592899386   110.58133498   178.27918120
 H      6   2   1     1.093563288295   110.55613062   297.22810782
 H     11   6   2     1.014015807156   110.50218816   176.28243870

---------------------------
INTERNAL COORDINATES (A.U.)
---------------------------
 C      0   0   0     0.000000000000     0.00000000     0.00000000
 C      1   0   0     2.844095047668     0.00000000     0.00000000
 O      2   1   0     5.493131682199    89.31718061     0.00000000
 H      3   2   1     4.427746581727   108.53124466   290.31093926
 O      1   2   3     2.524525057886   112.04979472   222.71121508
 C      2   1   3     2.890927893338   110.83670978   306.79217231
 H      2   1   3     2.066349847020   107.38135106    66.00366256
 H      2   1   3     2.058115695372   110.36424180   183.54883456
 C      3   2   1     2.273737274596    57.89523492   270.47118477
 O      1   2   3     2.271241591236   125.19255124    42.02473907
 N      6   2   1     2.748377353523   109.46958342   177.57492148
 O      4   3   2     1.834675201445    71.45943778   335.65662220
 H     11   6   2     1.919370974386   109.79584505   295.38766202
 H      5   1   2     1.834154767369   110.58133498   178.27918120
 H      6   2   1     2.066535124989   110.55613062   297.22810782
 H     11   6   2     1.916212170992   110.50218816   176.28243870

---------------------
BASIS SET INFORMATION
---------------------
There are 4 groups of distinct atoms

 Group   1 Type C   : 10s4p1d contracted to 3s2p1d pattern {631/31/1}
 Group   2 Type O   : 10s4p1d contracted to 3s2p1d pattern {631/31/1}
 Group   3 Type H   : 4s1p contracted to 2s1p pattern {31/1}
 Group   4 Type N   : 10s4p1d contracted to 3s2p1d pattern {631/31/1}

Atom   0C    basis set group =>   1
Atom   1C    basis set group =>   1
Atom   2O    basis set group =>   2
Atom   3H    basis set group =>   3
Atom   4O    basis set group =>   2
Atom   5C    basis set group =>   1
Atom   6H    basis set group =>   3
Atom   7H    basis set group =>   3
Atom   8C    basis set group =>   1
Atom   9O    basis set group =>   2
Atom  10N    basis set group =>   4
Atom  11O    basis set group =>   2
Atom  12H    basis set group =>   3
Atom  13H    basis set group =>   3
Atom  14H    basis set group =>   3
Atom  15H    basis set group =>   3
---------------------------------
AUXILIARY/J BASIS SET INFORMATION
---------------------------------
There are 4 groups of distinct atoms

 Group   1 Type C   : 12s5p4d2f1g contracted to 6s4p3d1f1g pattern {711111/2111/211/2/1}
 Group   2 Type O   : 12s5p4d2f1g contracted to 6s4p3d1f1g pattern {711111/2111/211/2/1}
 Group   3 Type H   : 5s2p1d contracted to 3s1p1d pattern {311/2/1}
 Group   4 Type N   : 12s5p4d2f1g contracted to 6s4p3d1f1g pattern {711111/2111/211/2/1}

Atom   0C    basis set group =>   1
Atom   1C    basis set group =>   1
Atom   2O    basis set group =>   2
Atom   3H    basis set group =>   3
Atom   4O    basis set group =>   2
Atom   5C    basis set group =>   1
Atom   6H    basis set group =>   3
Atom   7H    basis set group =>   3
Atom   8C    basis set group =>   1
Atom   9O    basis set group =>   2
Atom  10N    basis set group =>   4
Atom  11O    basis set group =>   2
Atom  12H    basis set group =>   3
Atom  13H    basis set group =>   3
Atom  14H    basis set group =>   3
Atom  15H    basis set group =>   3
------------------------------------------------------------------------------
                             ORCA STARTUP CALCULATIONS
                           -- RI-GTO INTEGRALS CHOSEN --
------------------------------------------------------------------------------
------------------------------------------------------------------------------
                   ___                                                        
                  /   \      - P O W E R E D   B Y -                         
                 /     \                                                     
                 |  |  |   _    _      __       _____    __    __             
                 |  |  |  | |  | |    /  \     |  _  \  |  |  /  |          
                  \  \/   | |  | |   /    \    | | | |  |  | /  /          
                 / \  \   | |__| |  /  /\  \   | |_| |  |  |/  /          
                |  |  |   |  __  | /  /__\  \  |    /   |      \           
                |  |  |   | |  | | |   __   |  |    \   |  |\   \          
                \     /   | |  | | |  |  |  |  | |\  \  |  | \   \       
                 \___/    |_|  |_| |__|  |__|  |_| \__\ |__|  \__/        
                                                                              
                      - O R C A' S   B I G   F R I E N D -                    
                                      &                                       
                       - I N T E G R A L  F E E D E R -                       
                                                                              
 v1 FN, 2020, v2 2021, v3 2022-2024                                           
------------------------------------------------------------------------------


----------------------
SHARK INTEGRAL PACKAGE
----------------------

Number of atoms                             ...     16
Number of basis functions                   ...    161
Number of shells                            ...     75
Maximum angular momentum                    ...      2
Integral batch strategy                     ... SHARK/LIBINT Hybrid
RI-J (if used) integral strategy            ... SPLIT-RIJ (Revised 2003 algorithm where possible)
Printlevel                                  ...      1
Contraction scheme used                     ... SEGMENTED contraction
Prescreening option                         ... SCHWARTZ
   Thresh                                   ... 2.500e-11
   Tcut                                     ... 2.500e-12
   Tpresel                                  ... 2.500e-12 
Coulomb Range Separation                    ... NOT USED
Exchange Range Separation                   ... NOT USED
Multipole approximations                    ... NOT USED
Finite Nucleus Model                        ... NOT USED
CABS basis                                  ... NOT available
Auxiliary Coulomb fitting basis             ... AVAILABLE
   # of basis functions in Aux-J            ...    518
   # of shells in Aux-J                     ...    170
   Maximum angular momentum in Aux-J        ...      4
Auxiliary J/K fitting basis                 ... NOT available
Auxiliary Correlation fitting basis         ... NOT available
Auxiliary 'external' fitting basis          ... NOT available

Checking pre-screening integrals            ... done (  0.0 sec) Dimension = 75
   => SHARK Basis and OBASIS are compatible. Storing Pre-screening
Shell pair information
Shell pair cut-off parameter TPreSel        ...   2.5e-12
Total number of shell pairs                 ...      2850
Shell pairs after pre-screening             ...      2608
Total number of primitive shell pairs       ...     14745
Primitive shell pairs kept                  ...      8965
          la=0 lb=0:    773 shell pairs
          la=1 lb=0:    935 shell pairs
          la=1 lb=1:    306 shell pairs
          la=2 lb=0:    340 shell pairs
          la=2 lb=1:    210 shell pairs
          la=2 lb=2:     44 shell pairs

Checking whether 4 symmetric matrices of dimension 161 fit in memory
:Max Core in MB      =   4096.00
 MB in use           =      7.00
 MB left             =   4089.00
 MB needed           =      0.40
 Data fit in memory  = YES
Calculating RI/J V-Matrix + Cholesky decomp.... done (  0.0 sec)
Calculating Nuclear repulsion               ... done (  0.0 sec) ENN=    478.230155749485 Eh

Diagonalization of the overlap matrix:
Smallest eigenvalue                        ... 2.587e-03
Time for diagonalization                   ...    0.001 sec
Threshold for overlap eigenvalues          ... 1.000e-07
Number of eigenvalues below threshold      ... 0
Time for construction of square roots      ...    0.000 sec
Total time needed                          ...    0.002 sec

-------------------
DFT GRID GENERATION
-------------------

General Integration Accuracy     IntAcc      ... 4.388
Radial Grid Type                 RadialGrid  ... OptM3 with GC (2021)
Angular Grid (max. ang.)         AngularGrid ... 4 (Lebedev-302)
Angular grid pruning method      GridPruning ... 4 (adaptive)
Weight generation scheme         WeightScheme... mBecke (2022)
Basis function cutoff            BFCut       ... 1.0000e-11
Integration weight cutoff        WCut        ... 1.0000e-14
Partially contracted basis set               ... off
Rotationally invariant grid construction     ... off
Angular grids for H and He will be reduced by one unit

Total number of grid points                  ...    76965
Total number of batches                      ...     1211
Average number of points per batch           ...       63
Average number of grid points per atom       ...     4810
Grids setup in   0.3 sec
Initializing property integral containers    ... done (  0.0 sec)

SHARK setup successfully completed in   0.4 seconds

Maximum memory used throughout the entire STARTUP-calculation: 32.4 MB
-------------------------------------------------------------------------------
                                 ORCA GUESS
                   Start orbitals & Density for SCF / CASSCF
-------------------------------------------------------------------------------

------------
SCF SETTINGS
------------
Hamiltonian:
 Density Functional     Method          .... DFT(GTOs)
 Exchange Functional    Exchange        .... B97(D)
 Correlation Functional Correlation     .... B97(D)
 Gradients option       PostSCFGGA      .... off
 RI-approximation to the Coulomb term is turned on
   Number of AuxJ basis functions       .... 518


General Settings:
 Integral files         IntName         .... 5
 Hartree-Fock type      HFTyp           .... RHF
 Total Charge           Charge          ....    0
 Multiplicity           Mult            ....    1
 Number of Electrons    NEL             ....   70
 Basis Dimension        Dim             ....  161
 Nuclear Repulsion      ENuc            ....    478.2301557495 Eh

Convergence Acceleration:
 AO-DIIS                CNVDIIS         .... on
   Start iteration      DIISMaxIt       ....    12
   Startup error        DIISStart       ....  0.200000
   # of expansion vecs  DIISMaxEq       ....     5
   Bias factor          DIISBfac        ....   1.050
   Max. coefficient     DIISMaxC        ....  10.000
 MO-DIIS                CNVKDIIS        .... off
 Trust-Rad. Augm. Hess. CNVTRAH         .... auto
   Auto Start mean grad. ratio tolernc. ....  1.125000
   Auto Start start iteration           ....    50
   Auto Start num. interpolation iter.  ....    10
   Max. Number of Micro iterations      ....    24
   Max. Number of Macro iterations      .... Maxiter - #DIIS iter
   Number of Davidson start vectors     ....     2
   Converg. threshold    (grad. norm)   ....   1.000e-05
   Grad. Scal. Fac. for Micro threshold ....   0.100
   Minimum threshold for Micro iter.    ....   1.000e-02
   NR start threshold (gradient norm)   ....   1.000e-04
   Initial trust radius                 ....   0.400
   Minimum AH scaling param. (alpha)    ....   1.000
   Maximum AH scaling param. (alpha)    .... 1000.000
   Quad. conv. algorithm                .... NR
   White noise on init. David. guess    .... on
   Maximum white noise                  ....   0.010
   Pseudo random numbers                .... off
   Inactive MOs                         .... canonical
   Orbital update algorithm             .... Taylor
   Preconditioner                       .... Diag
   Full preconditioner red. dimension   ....   250
 SOSCF                 CNVSOSCF           .... on
   Start iteration     SOSCFMaxIt         ....   150
   Startup grad/error  SOSCFStart         ....  0.003300
   Hessian update      SOSCFHessUp        .... L-BFGS
   Autom. constraints  SOSCFAutoConstrain .... off
 Level Shifting         CNVShift        .... on
   Level shift para.    LevelShift      ....    0.2500
   Turn off err/grad.   ShiftErr        ....    0.0010
 Zerner damping         CNVZerner       .... off
 Static damping         CNVDamp         .... on
   Fraction old density DampFac         ....    0.7000
   Max. Damping (<1)    DampMax         ....    0.9800
   Min. Damping (>=0)   DampMin         ....    0.0000
   Turn off err/grad.   DampErr         ....    0.1000

SCF Procedure:
 Maximum # iterations   MaxIter         ....   125
 SCF integral mode      SCFMode         .... Direct
   Integral package                     .... SHARK and LIBINT hybrid scheme
 Reset frequency        DirectResetFreq ....    20
 Integral Threshold     Thresh          ....  2.500e-11 Eh
 Primitive CutOff       TCut            ....  2.500e-12 Eh

Convergence Tolerance:
 Convergence Check Mode ConvCheckMode   .... Total+1el-Energy
 Convergence forced     ConvForced      .... 0
 Energy Change          TolE            ....  1.000e-08 Eh
 1-El. energy change                    ....  1.000e-05 Eh
 Orbital Gradient       TolG            ....  1.000e-05
 Orbital Rotation angle TolX            ....  1.000e-05
 DIIS Error             TolErr          ....  5.000e-07

------------------------------
INITIAL GUESS: MODEL POTENTIAL
------------------------------
Loading Hartree-Fock densities                     ... done
Calculating cut-offs                               ... done
Initializing the effective Hamiltonian             ... done
Setting up the integral package (SHARK)            ... done
Starting the Coulomb interaction                   ... done (   0.0 sec)
Making the grid                                    ... done (   0.1 sec)
Mapping shells                                     ... done
Starting the XC term evaluation                    ... done (   0.1 sec)
  promolecular density results
     # of electrons  =     69.997215867
     EX              =    -61.072755942
     EC              =     -3.176031757
     EX+EC           =    -64.248787698
Transforming the Hamiltonian                       ... done (   0.0 sec)
Diagonalizing the Hamiltonian                      ... done (   0.0 sec)
Back transforming the eigenvectors                 ... done (   0.0 sec)
Now organizing SCF variables                       ... done
                      ------------------
                      INITIAL GUESS DONE (   0.2 sec)
                      ------------------
             **** ENERGY FILE WAS UPDATED (5.en.tmp) ****
Finished Guess after   0.2 sec
Maximum memory used throughout the entire GUESS-calculation: 11.7 MB

-------------------------------------------------------------------------------------------
                                      ORCA LEAN-SCF
                              memory conserving SCF solver
-------------------------------------------------------------------------------------------

----------------------------------------D-I-I-S--------------------------------------------
Iteration    Energy (Eh)           Delta-E    RMSDP     MaxDP     DIISErr   Damp  Time(sec)
-------------------------------------------------------------------------------------------
               ***  Starting incremental Fock matrix formation  ***
    1    -511.6135785016539899     0.00e+00  4.49e-03  1.04e-01  2.61e-01  0.700   0.4
    2    -511.7989970739159276    -1.85e-01  2.65e-03  5.53e-02  9.65e-02  0.700   0.4
                               ***Turning on AO-DIIS***
    3    -511.8514570504972312    -5.25e-02  9.35e-04  1.48e-02  2.94e-02  0.700   0.4
    4    -511.8878104274946850    -3.64e-02  1.22e-03  1.85e-02  1.63e-02  0.000   0.4
    5    -511.9737381753465684    -8.59e-02  4.47e-04  7.57e-03  1.13e-02  0.000   0.4
                              *** Initializing SOSCF ***
---------------------------------------S-O-S-C-F--------------------------------------
Iteration    Energy (Eh)           Delta-E    RMSDP     MaxDP     MaxGrad    Time(sec)
--------------------------------------------------------------------------------------
    6    -511.9745900663648968    -8.52e-04  1.54e-04  2.41e-03  3.12e-03     0.4
               *** Restarting incremental Fock matrix formation ***
    7    -511.9746548067457184    -6.47e-05  1.37e-04  2.91e-03  6.88e-04     0.4
    8    -511.9746335728220288     2.12e-05  7.47e-05  2.28e-03  1.88e-03     0.4
    9    -511.9746643089394524    -3.07e-05  4.93e-05  8.56e-04  2.63e-04     0.3
   10    -511.9746621095700334     2.20e-06  2.80e-05  4.85e-04  2.82e-04     0.3
   11    -511.9746659002371985    -3.79e-06  1.08e-05  2.27e-04  3.68e-05     0.3
   12    -511.9746657820182349     1.18e-07  6.28e-06  1.55e-04  5.63e-05     0.3
   13    -511.9746659856471638    -2.04e-07  2.54e-06  7.93e-05  1.74e-05     0.3
   14    -511.9746659750152844     1.06e-08  1.78e-06  6.21e-05  4.64e-05     0.3
   15    -511.9746659892172715    -1.42e-08  6.35e-07  1.32e-05  2.57e-06     0.3
   16    -511.9746659853869346     3.83e-09  3.78e-07  9.21e-06  4.00e-06     0.3
                 **** Energy Check signals convergence ****

               *****************************************************
               *                     SUCCESS                       *
               *           SCF CONVERGED AFTER  16 CYCLES          *
               *****************************************************

             **** ENERGY FILE WAS UPDATED (5.en.tmp) ****

----------------
TOTAL SCF ENERGY
----------------

Total Energy       :       -511.97466598980014 Eh          -13931.53893 eV

Components:
Nuclear Repulsion  :        478.23015574948528 Eh           13013.30412 eV
Electronic Energy  :       -990.20482173928542 Eh          -26944.84305 eV
One Electron Energy:      -1649.88495564709888 Eh          -44895.65209 eV
Two Electron Energy:        659.68013390781346 Eh           17950.80905 eV

Virial components:
Potential Energy   :      -1021.40259507524479 Eh          -27793.77762 eV
Kinetic Energy     :        509.42792908544465 Eh           13862.23869 eV
Virial Ratio       :          2.00499920942483

DFT components:
N(Alpha)           :       35.000036327379 electrons
N(Beta)            :       35.000036327379 electrons
N(Total)           :       70.000072654759 electrons
E(X)               :      -62.262330290038 Eh       
E(C)               :       -3.163345878306 Eh       
E(XC)              :      -65.425676168344 Eh       

---------------
SCF CONVERGENCE
---------------

  Last Energy change         ...   -3.8303e-09  Tolerance :   1.0000e-08
  Last MAX-Density change    ...    9.2058e-06  Tolerance :   1.0000e-07
  Last RMS-Density change    ...    3.7836e-07  Tolerance :   5.0000e-09
  Last DIIS Error            ...    3.1177e-03  Tolerance :   5.0000e-07
  Last Orbital Gradient      ...    3.9967e-06  Tolerance :   1.0000e-05
  Last Orbital Rotation      ...    5.1242e-06  Tolerance :   1.0000e-05


----------------
ORBITAL ENERGIES
----------------

  NO   OCC          E(Eh)            E(eV) 
   0   2.0000     -18.816153      -512.0135 
   1   2.0000     -18.806846      -511.7603 
   2   2.0000     -18.757946      -510.4297 
   3   2.0000     -18.744528      -510.0645 
   4   2.0000     -13.999529      -380.9465 
   5   2.0000     -10.037896      -273.1450 
   6   2.0000     -10.022668      -272.7307 
   7   2.0000      -9.952099      -270.8104 
   8   2.0000      -9.924418      -270.0571 
   9   2.0000      -1.025376       -27.9019 
  10   2.0000      -1.014139       -27.5961 
  11   2.0000      -0.937024       -25.4977 
  12   2.0000      -0.924752       -25.1638 
  13   2.0000      -0.824763       -22.4430 
  14   2.0000      -0.708888       -19.2898 
  15   2.0000      -0.630181       -17.1481 
  16   2.0000      -0.573633       -15.6093 
  17   2.0000      -0.522803       -14.2262 
  18   2.0000      -0.468813       -12.7570 
  19   2.0000      -0.460189       -12.5224 
  20   2.0000      -0.426707       -11.6113 
  21   2.0000      -0.420817       -11.4510 
  22   2.0000      -0.410587       -11.1726 
  23   2.0000      -0.404870       -11.0171 
  24   2.0000      -0.393455       -10.7065 
  25   2.0000      -0.361071        -9.8253 
  26   2.0000      -0.346986        -9.4420 
  27   2.0000      -0.333164        -9.0659 
  28   2.0000      -0.327266        -8.9054 
  29   2.0000      -0.319240        -8.6869 
  30   2.0000      -0.278415        -7.5761 
  31   2.0000      -0.263620        -7.1735 
  32   2.0000      -0.232278        -6.3206 
  33   2.0000      -0.228718        -6.2237 
  34   2.0000      -0.194287        -5.2868 
  35   0.0000      -0.018893        -0.5141 
  36   0.0000      -0.008220        -0.2237 
  37   0.0000       0.051842         1.4107 
  38   0.0000       0.058725         1.5980 
  39   0.0000       0.076516         2.0821 
  40   0.0000       0.104482         2.8431 
  41   0.0000       0.106611         2.9010 
  42   0.0000       0.147169         4.0047 
  43   0.0000       0.164430         4.4744 
  44   0.0000       0.180514         4.9120 
  45   0.0000       0.197901         5.3852 
*Only the first 10 virtual orbitals were printed.

                    ********************************
                    * MULLIKEN POPULATION ANALYSIS *
                    ********************************

-----------------------
MULLIKEN ATOMIC CHARGES
-----------------------
   0 C :    0.526518
   1 C :   -0.267332
   2 O :   -0.436295
   3 H :    0.316138
   4 O :   -0.460459
   5 C :   -0.031686
   6 H :    0.157791
   7 H :    0.152836
   8 C :    0.527571
   9 O :   -0.410640
  10 N :   -0.566932
  11 O :   -0.456266
  12 H :    0.247763
  13 H :    0.319958
  14 H :    0.132298
  15 H :    0.248739
Sum of atomic charges:   -0.0000000

--------------------------------
MULLIKEN REDUCED ORBITAL CHARGES
--------------------------------
  0 C s       :     2.970609  s :     2.970609
      pz      :     0.787761  p :     2.375707
      px      :     0.869232
      py      :     0.718714
      dz2     :     0.012062  d :     0.127166
      dxz     :     0.009903
      dyz     :     0.032042
      dx2y2   :     0.033760
      dxy     :     0.039399

  1 C s       :     3.244816  s :     3.244816
      pz      :     1.016752  p :     2.989149
      px      :     0.960161
      py      :     1.012235
      dz2     :     0.004711  d :     0.033367
      dxz     :     0.008635
      dyz     :     0.007240
      dx2y2   :     0.008391
      dxy     :     0.004390

  2 O s       :     3.858951  s :     3.858951
      pz      :     1.363015  p :     4.549336
      px      :     1.428800
      py      :     1.757521
      dz2     :     0.009901  d :     0.028008
      dxz     :     0.008757
      dyz     :     0.006159
      dx2y2   :     0.001794
      dxy     :     0.001397

  3 H s       :     0.645938  s :     0.645938
      pz      :     0.011682  p :     0.037924
      px      :     0.009092
      py      :     0.017150

  4 O s       :     3.829669  s :     3.829669
      pz      :     1.619624  p :     4.607920
      px      :     1.386085
      py      :     1.602211
      dz2     :     0.002894  d :     0.022871
      dxz     :     0.002135
      dyz     :     0.005841
      dx2y2   :     0.005858
      dxy     :     0.006143

  5 C s       :     3.206142  s :     3.206142
      pz      :     0.983627  p :     2.768444
      px      :     0.868497
      py      :     0.916320
      dz2     :     0.006644  d :     0.057100
      dxz     :     0.013392
      dyz     :     0.012414
      dx2y2   :     0.013689
      dxy     :     0.010961

  6 H s       :     0.830164  s :     0.830164
      pz      :     0.005122  p :     0.012045
      px      :     0.004270
      py      :     0.002654

  7 H s       :     0.835492  s :     0.835492
      pz      :     0.003491  p :     0.011672
      px      :     0.002424
      py      :     0.005758

  8 C s       :     2.980315  s :     2.980315
      pz      :     0.770595  p :     2.366190
      px      :     0.774697
      py      :     0.820897
      dz2     :     0.026821  d :     0.125925
      dxz     :     0.020952
      dyz     :     0.047086
      dx2y2   :     0.014564
      dxy     :     0.016503

  9 O s       :     3.863461  s :     3.863461
      pz      :     1.507466  p :     4.518865
      px      :     1.626034
      py      :     1.385365
      dz2     :     0.002589  d :     0.028314
      dxz     :     0.001735
      dyz     :     0.008181
      dx2y2   :     0.007962
      dxy     :     0.007847

 10 N s       :     3.603148  s :     3.603148
      pz      :     1.258583  p :     3.935271
      px      :     1.075439
      py      :     1.601249
      dz2     :     0.002332  d :     0.028513
      dxz     :     0.010054
      dyz     :     0.005341
      dx2y2   :     0.004762
      dxy     :     0.006024

 11 O s       :     3.825185  s :     3.825185
      pz      :     1.634855  p :     4.608008
      px      :     1.739630
      py      :     1.233523
      dz2     :     0.004027  d :     0.023073
      dxz     :     0.003811
      dyz     :     0.009287
      dx2y2   :     0.003616
      dxy     :     0.002332

 12 H s       :     0.728418  s :     0.728418
      pz      :     0.009024  p :     0.023819
      px      :     0.007299
      py      :     0.007496

 13 H s       :     0.642102  s :     0.642102
      pz      :     0.010808  p :     0.037941
      px      :     0.018438
      py      :     0.008695

 14 H s       :     0.856867  s :     0.856867
      pz      :     0.004833  p :     0.010836
      px      :     0.003562
      py      :     0.002441

 15 H s       :     0.727341  s :     0.727341
      pz      :     0.009168  p :     0.023920
      px      :     0.005276
      py      :     0.009476



                     *******************************
                     * LOEWDIN POPULATION ANALYSIS *
                     *******************************

----------------------
LOEWDIN ATOMIC CHARGES
----------------------
   0 C :    0.124671
   1 C :   -0.144000
   2 O :   -0.235478
   3 H :    0.181975
   4 O :   -0.135049
   5 C :   -0.038698
   6 H :    0.102202
   7 H :    0.097843
   8 C :    0.101812
   9 O :   -0.209881
  10 N :   -0.240021
  11 O :   -0.130573
  12 H :    0.128539
  13 H :    0.183713
  14 H :    0.083188
  15 H :    0.129756

-------------------------------
LOEWDIN REDUCED ORBITAL CHARGES
-------------------------------
  0 C s       :     2.842059  s :     2.842059
      pz      :     0.822037  p :     2.732147
      px      :     0.949503
      py      :     0.960607
      dz2     :     0.027711  d :     0.301123
      dxz     :     0.020842
      dyz     :     0.074813
      dx2y2   :     0.083273
      dxy     :     0.094484

  1 C s       :     2.907573  s :     2.907573
      pz      :     1.064524  p :     3.159832
      px      :     1.036824
      py      :     1.058484
      dz2     :     0.009250  d :     0.076595
      dxz     :     0.019643
      dyz     :     0.017416
      dx2y2   :     0.019585
      dxy     :     0.010702

  2 O s       :     3.553014  s :     3.553014
      pz      :     1.454785  p :     4.624470
      px      :     1.432906
      py      :     1.736779
      dz2     :     0.021755  d :     0.057994
      dxz     :     0.018083
      dyz     :     0.012587
      dx2y2   :     0.002845
      dxy     :     0.002724

  3 H s       :     0.702610  s :     0.702610
      pz      :     0.036654  p :     0.115415
      px      :     0.025583
      py      :     0.053178

  4 O s       :     3.469208  s :     3.469208
      pz      :     1.604270  p :     4.615349
      px      :     1.392680
      py      :     1.618399
      dz2     :     0.005361  d :     0.050492
      dxz     :     0.007712
      dyz     :     0.011417
      dx2y2   :     0.012970
      dxy     :     0.013032

  5 C s       :     2.882481  s :     2.882481
      pz      :     1.042706  p :     3.027168
      px      :     0.966662
      py      :     1.017799
      dz2     :     0.013063  d :     0.129048
      dxz     :     0.028657
      dyz     :     0.031507
      dx2y2   :     0.032033
      dxy     :     0.023789

  6 H s       :     0.855975  s :     0.855975
      pz      :     0.019099  p :     0.041824
      px      :     0.015089
      py      :     0.007635

  7 H s       :     0.860504  s :     0.860504
      pz      :     0.011656  p :     0.041653
      px      :     0.007346
      py      :     0.022651

  8 C s       :     2.855632  s :     2.855632
      pz      :     0.972938  p :     2.741898
      px      :     0.823282
      py      :     0.945678
      dz2     :     0.063759  d :     0.300657
      dxz     :     0.050206
      dyz     :     0.117254
      dx2y2   :     0.031739
      dxy     :     0.037699

  9 O s       :     3.553271  s :     3.553271
      pz      :     1.493341  p :     4.598248
      px      :     1.626943
      py      :     1.477964
      dz2     :     0.007205  d :     0.058362
      dxz     :     0.002463
      dyz     :     0.012598
      dx2y2   :     0.017490
      dxy     :     0.018606

 10 N s       :     3.199410  s :     3.199410
      pz      :     1.269370  p :     3.982836
      px      :     1.131866
      py      :     1.581600
      dz2     :     0.005106  d :     0.057775
      dxz     :     0.021971
      dyz     :     0.008942
      dx2y2   :     0.010168
      dxy     :     0.011588

 11 O s       :     3.467053  s :     3.467053
      pz      :     1.636602  p :     4.611747
      px      :     1.710570
      py      :     1.264575
      dz2     :     0.006687  d :     0.051774
      dxz     :     0.005407
      dyz     :     0.021337
      dx2y2   :     0.011732
      dxy     :     0.006611

 12 H s       :     0.792184  s :     0.792184
      pz      :     0.032514  p :     0.079277
      px      :     0.024956
      py      :     0.021807

 13 H s       :     0.700753  s :     0.700753
      pz      :     0.031277  p :     0.115534
      px      :     0.057981
      py      :     0.026276

 14 H s       :     0.876899  s :     0.876899
      pz      :     0.019450  p :     0.039913
      px      :     0.013435
      py      :     0.007027

 15 H s       :     0.791118  s :     0.791118
      pz      :     0.029190  p :     0.079126
      px      :     0.015418
      py      :     0.034517



                      *****************************
                      * MAYER POPULATION ANALYSIS *
                      *****************************

  NA   - Mulliken gross atomic population
  ZA   - Total nuclear charge
  QA   - Mulliken gross atomic charge
  VA   - Mayer's total valence
  BVA  - Mayer's bonded valence
  FA   - Mayer's free valence

  ATOM       NA         ZA         QA         VA         BVA        FA
  0 C      5.4735     6.0000     0.5265     3.9749     3.9749    -0.0000
  1 C      6.2673     6.0000    -0.2673     3.8012     3.8012    -0.0000
  2 O      8.4363     8.0000    -0.4363     2.0879     2.0879    -0.0000
  3 H      0.6839     1.0000     0.3161     0.9184     0.9184     0.0000
  4 O      8.4605     8.0000    -0.4605     2.0452     2.0452     0.0000
  5 C      6.0317     6.0000    -0.0317     3.8559     3.8559    -0.0000
  6 H      0.8422     1.0000     0.1578     0.9580     0.9580    -0.0000
  7 H      0.8472     1.0000     0.1528     0.9531     0.9531    -0.0000
  8 C      5.4724     6.0000     0.5276     3.9530     3.9530     0.0000
  9 O      8.4106     8.0000    -0.4106     2.1180     2.1180    -0.0000
 10 N      7.5669     7.0000    -0.5669     2.8985     2.8985    -0.0000
 11 O      8.4563     8.0000    -0.4563     2.0546     2.0546     0.0000
 12 H      0.7522     1.0000     0.2478     0.9254     0.9254    -0.0000
 13 H      0.6800     1.0000     0.3200     0.9158     0.9158    -0.0000
 14 H      0.8677     1.0000     0.1323     0.9507     0.9507    -0.0000
 15 H      0.7513     1.0000     0.2487     0.9163     0.9163    -0.0000

  Mayer bond orders larger than 0.100000
B(  0-C ,  1-C ) :   0.9481 B(  0-C ,  4-O ) :   1.0962 B(  0-C ,  9-O ) :   1.8957 
B(  1-C ,  5-C ) :   0.9723 B(  1-C ,  6-H ) :   0.9160 B(  1-C ,  7-H ) :   0.9288 
B(  2-O ,  8-C ) :   1.8903 B(  3-H , 11-O ) :   0.8542 B(  4-O , 13-H ) :   0.8520 
B(  5-C ,  8-C ) :   0.8902 B(  5-C , 10-N ) :   1.0250 B(  5-C , 14-H ) :   0.9271 
B(  8-C , 11-O ) :   1.0965 B( 10-N , 12-H ) :   0.8979 B( 10-N , 15-H ) :   0.9054 


-------
TIMINGS
-------

Total SCF time: 0 days 0 hours 0 min 6 sec 

Total time                  ....       6.075 sec
Sum of individual times     ....       5.722 sec  ( 94.2%)

SCF preparation             ....       0.026 sec  (  0.4%)
Fock matrix formation       ....       5.648 sec  ( 93.0%)
  Startup                   ....       0.001 sec  (  0.0% of F)
  Split-RI-J                ....       1.879 sec  ( 33.3% of F)
  XC integration            ....       4.056 sec  ( 71.8% of F)
    Basis function eval.    ....       1.440 sec  ( 35.5% of XC)
    Density eval.           ....       0.856 sec  ( 21.1% of XC)
    XC-Functional eval.     ....       0.789 sec  ( 19.4% of XC)
    XC-Potential eval.      ....       0.859 sec  ( 21.2% of XC)
Diagonalization             ....       0.000 sec  (  0.0%)
Density matrix formation    ....       0.005 sec  (  0.1%)
Total Energy calculation    ....       0.001 sec  (  0.0%)
Population analysis         ....       0.002 sec  (  0.0%)
Orbital Transformation      ....       0.004 sec  (  0.1%)
Orbital Orthonormalization  ....       0.000 sec  (  0.0%)
DIIS solution               ....       0.018 sec  (  0.3%)
SOSCF solution              ....       0.017 sec  (  0.3%)
Finished LeanSCF after   6.1 sec

Maximum memory used throughout the entire LEANSCF-calculation: 17.4 MB



-------------------------------------------------------------------------------
                          DFT DISPERSION CORRECTION                            
-------------------------------------------------------------------------------
Active option DFTDOPT                   ...         2   
Final C6-coefficient scaling factor     ...     1.250
Final VDW-radii scaling factor          ...     1.100
Damping factor alpha                    ...    20.000
-------------------------   ----------------
Dispersion correction           -0.019184000
-------------------------   ----------------


-------------------------   --------------------
FINAL SINGLE POINT ENERGY      -511.993849990162
-------------------------   --------------------

------------------------------------------------------------------------------
                         ORCA SCF GRADIENT CALCULATION
------------------------------------------------------------------------------

Nuc. rep. gradient        (SHARK) ... done (  0.0 sec)
HCore & Overlap gradient  (SHARK) ... done (  0.1 sec)
Split-RIJ-J gradient      (SHARK) ... done (  0.5 sec)
XC gradient                       ... done (  1.8 sec)
Dispersion correction             ... done (  0.0 sec)

-------------------
DISPERSION GRADIENT
-------------------

   1   C   :    0.000464385   -0.000495889    0.000019823
   2   C   :   -0.000358460    0.000607717   -0.000296084
   3   O   :    0.000080785    0.001357041    0.000023119
   4   H   :    0.000197209   -0.000045898    0.000280539
   5   O   :   -0.000537147    0.000057506    0.000190101
   6   C   :   -0.000111409   -0.000378893    0.000985622
   7   H   :   -0.000575463   -0.000965527   -0.000149609
   8   H   :    0.000028233    0.000121897    0.000610449
   9   C   :   -0.001326122   -0.000563963   -0.000135720
  10   O   :    0.000001998   -0.000707589    0.000224899
  11   N   :    0.000057813    0.000165961   -0.000562682
  12   O   :    0.000118549    0.000490939   -0.000060666
  13   H   :    0.000819592   -0.000000321   -0.000767164
  14   H   :    0.000022083    0.000364218   -0.000130904
  15   H   :    0.000338355    0.000321910   -0.000045458
  16   H   :    0.000779599   -0.000329110   -0.000186265

Difference to translation invariance:
           :   -0.0000000000   -0.0000000000    0.0000000000

Difference to rotation invariance:
           :    0.0000000000    0.0000000000   -0.0000000000

Norm of the Dispersion gradient    ...    0.0034321041
RMS gradient                       ...    0.0004953816
MAX gradient                       ...    0.0013570410

------------------
CARTESIAN GRADIENT
------------------

   1   C   :   -0.006304126    0.010827783    0.000567818
   2   C   :   -0.000268182   -0.001300361    0.002621045
   3   O   :   -0.014729279   -0.000043615   -0.030746368
   4   H   :   -0.003665258    0.000417355   -0.005903664
   5   O   :    0.001942822    0.027562578   -0.009132165
   6   C   :    0.001782568   -0.002317175   -0.001055586
   7   H   :   -0.003838849    0.000864795   -0.003520175
   8   H   :   -0.000905557    0.005244819    0.002694169
   9   C   :    0.002363628    0.006306497    0.009756126
  10   O   :    0.015035363   -0.031520719    0.003217207
  11   N   :   -0.002897436    0.009975919    0.005857807
  12   O   :    0.011880329   -0.015054559    0.024195289
  13   H   :   -0.002514464   -0.002062734   -0.003318557
  14   H   :    0.001539496   -0.006555172    0.001061501
  15   H   :    0.002450889    0.001167575    0.002124766
  16   H   :   -0.001871944   -0.003512987    0.001580786

Difference to translation invariance:
           :    0.0000000000    0.0000000000   -0.0000000000

Difference to rotation invariance:
           :    0.0004717692   -0.0000940252   -0.0001556228

Norm of the Cartesian gradient     ...    0.0697201562
RMS gradient                       ...    0.0100632377
MAX gradient                       ...    0.0315207192

-------
TIMINGS
-------

Total SCF gradient time     ....        2.362 sec

Densities                   ....       0.000 sec  (  0.0%)
One electron gradient       ....       0.080 sec  (  3.4%)
RI-J Coulomb gradient       ....       0.464 sec  ( 19.7%)
XC gradient                 ....       1.817 sec  ( 76.9%)

Maximum memory used throughout the entire SCFGRAD-calculation: 22.5 MB
------------------------------------------------------------------------------
                         ORCA GEOMETRY RELAXATION STEP
------------------------------------------------------------------------------

Reading the OPT-File                    .... done
Getting information on internals        .... done
Copying old internal coords+grads       .... done
Making the new internal coordinates     .... (2022 redundants) done
Validating the new internal coordinates .... (2022 redundants) done
Calculating the B-matrix                .... done
Calculating the G,G- and P matrices     .... done
Transforming gradient to internals      .... done
Projecting the internal gradient        .... done
Number of atoms                         ....  16
Number of internal coordinates          ....  63
Current Energy                          ....  -511.993849990 Eh
Current gradient norm                   ....     0.069720156 Eh/bohr
Maximum allowed component of the step   ....  0.300
Current trust radius                    ....  0.300
Evaluating the initial hessian          ....  (Almloef) done
Projecting the Hessian                  .... done
Forming the augmented Hessian           .... done
Diagonalizing the augmented Hessian     .... done
Last element of RFO vector              ....  0.957109092
Lowest eigenvalues of augmented Hessian:
 -0.008764026  0.010418384  0.012133637  0.012672069  0.016655913
Length of the computed step             ....  0.302711342
Warning: the length of the step is outside the trust region - taking restricted step instead
The input lambda is                     ....     0.009409
   iter:   5  x=   -0.000911  g=   88.662142 f(x)=     0.317630
   iter:  10  x=   -0.008987  g=    7.198361 f(x)=     0.000004
The output lambda is                    ....    -0.008987 (12 iterations)
The final length of the internal step   ....  0.300000000
Converting the step to Cartesian space:
 Initial RMS(Int)=    0.0377964473
Transforming coordinates:
 Iter   0:  RMS(Cart)=    0.1320113200 RMS(Int)=    1.3515086019
 Iter   5:  RMS(Cart)=    0.0000003854 RMS(Int)=    0.0000002691
done
Storing new coordinates                 .... done

                                .--------------------.
          ----------------------|Geometry convergence|-------------------------
          Item                value                   Tolerance       Converged
          ---------------------------------------------------------------------
          RMS gradient        0.0086385621            0.0001000000      NO
          MAX gradient        0.0350360780            0.0003000000      NO
          RMS step            0.0377964473            0.0020000000      NO
          MAX step            0.1122134752            0.0040000000      NO
          -------------------------------------------------------------------------
          ........................................................
          Max(Bonds)      0.0179      Max(Angles)    2.53
          Max(Dihed)        6.43      Max(Improp)    0.00
          ---------------------------------------------------------------------

The optimization has not yet converged - more geometry cycles are needed


    ---------------------------------------------------------------------------
                         Redundant Internal Coordinates
                            (Angstroem and degrees)

        Definition                    Value    dE/dq     Step     New-Value
    ----------------------------------------------------------------------------
     1. B(C   1,C   0)                1.5050 -0.012343  0.0156    1.5206   
     2. B(O   4,C   0)                1.3359 -0.021237  0.0163    1.3522   
     3. B(C   5,C   1)                1.5298 -0.007754  0.0107    1.5405   
     4. B(H   6,C   1)                1.0935 -0.005210  0.0076    1.1010   
     5. B(H   7,C   1)                1.0891 -0.005809  0.0083    1.0974   
     6. B(C   8,C   5)                1.5304 -0.008801  0.0122    1.5426   
     7. B(C   8,O   2)                1.2032 -0.033960  0.0160    1.2192   
     8. B(O   9,C   0)                1.2019 -0.035036  0.0165    1.2184   
     9. B(N  10,C   5)                1.4544 -0.009145  0.0107    1.4651   
    10. B(O  11,C   8)                1.3310 -0.023865  0.0179    1.3489   
    11. B(O  11,H   3)                0.9709 -0.002989  0.0031    0.9740   
    12. B(H  12,N  10)                1.0157 -0.004042  0.0049    1.0206   
    13. B(H  13,O   4)                0.9706 -0.002920  0.0030    0.9736   
    14. B(H  14,C   5)                1.0936 -0.002992  0.0043    1.0979   
    15. B(H  15,N  10)                1.0140 -0.004050  0.0049    1.0189   
    16. A(C   1,C   0,O   9)          125.19 -0.004178    0.57    125.76   
    17. A(C   1,C   0,O   4)          112.05  0.006814   -0.89    111.16   
    18. A(O   4,C   0,O   9)          122.75 -0.002642    0.34    123.10   
    19. A(C   5,C   1,H   7)          110.89  0.004170   -0.88    110.01   
    20. A(C   0,C   1,H   6)          107.38  0.001414    0.30    107.68   
    21. A(H   6,C   1,H   7)          108.05 -0.000924   -0.57    107.47   
    22. A(C   5,C   1,H   6)          109.21  0.004420   -0.50    108.71   
    23. A(C   0,C   1,C   5)          110.84 -0.014210    2.53    113.36   
    24. A(C   0,C   1,H   7)          110.36  0.005394   -0.92    109.44   
    25. A(C   0,O   4,H  13)          110.58  0.011296   -1.69    108.89   
    26. A(C   8,C   5,N  10)          111.00  0.003024   -0.64    110.36   
    27. A(C   1,C   5,N  10)          109.47  0.003491   -0.71    108.76   
    28. A(N  10,C   5,H  14)          108.65 -0.000790    0.05    108.69   
    29. A(C   8,C   5,H  14)          108.52 -0.001343    0.31    108.83   
    30. A(C   1,C   5,H  14)          110.56  0.002516   -0.47    110.08   
    31. A(C   1,C   5,C   8)          108.65 -0.006864    1.46    110.10   
    32. A(C   5,C   8,O  11)          112.28  0.001358   -0.27    112.02   
    33. A(O   2,C   8,O  11)          123.48 -0.004156    0.41    123.89   
    34. A(O   2,C   8,C   5)          124.01  0.002934   -0.44    123.57   
    35. A(H  12,N  10,H  15)          108.06  0.000856   -0.56    107.50   
    36. A(C   5,N  10,H  15)          110.50  0.000797   -0.31    110.19   
    37. A(C   5,N  10,H  12)          109.80  0.001979   -0.51    109.28   
    38. A(H   3,O  11,C   8)          110.76  0.011304   -1.69    109.08   
    39. D(H   6,C   1,C   0,O   9)    108.03 -0.002121    3.09    111.12   
    40. D(C   5,C   1,C   0,O   9)    -11.18 -0.000226    2.07     -9.11   
    41. D(H   6,C   1,C   0,O   4)    -71.29 -0.001585    1.22    -70.06   
    42. D(C   5,C   1,C   0,O   4)    169.50  0.000310    0.20    169.71   
    43. D(H   7,C   1,C   0,O   4)     46.26  0.001079    0.21     46.47   
    44. D(H  13,O   4,C   0,O   9)     -1.05  0.000254   -0.89     -1.94   
    45. D(H  13,O   4,C   0,C   1)    178.28 -0.000282    0.93    179.21   
    46. D(N  10,C   5,C   1,H   7)    -59.48 -0.002671    6.10    -53.39   
    47. D(N  10,C   5,C   1,H   6)     59.47  0.001511    4.54     64.01   
    48. D(N  10,C   5,C   1,C   0)    177.57 -0.002528    6.11    183.69   
    49. D(C   8,C   5,C   1,H   7)    179.15 -0.004250    6.41    185.57   
    50. D(C   8,C   5,C   1,H   6)    -61.89 -0.000068    4.86    -57.04   
    51. D(C   8,C   5,C   1,C   0)     56.21 -0.004107    6.43     62.64   
    52. D(O   2,C   8,C   5,N  10)    -71.40 -0.000930    0.56    -70.85   
    53. D(O   2,C   8,C   5,C   1)     49.02  0.000835    0.22     49.24   
    54. D(O  11,C   8,C   5,N  10)    103.26  0.000416   -2.89    100.37   
    55. D(O  11,C   8,C   5,C   1)   -136.32  0.002181   -3.22   -139.54   
    56. D(O   2,C   8,C   5,H  14)    169.27 -0.000930    0.69    169.96   
    57. D(H  15,N  10,C   5,C   1)    176.28  0.001280   -0.45    175.83   
    58. D(H  12,N  10,C   5,H  14)    174.57 -0.000620   -0.69    173.88   
    59. D(H  12,N  10,C   5,C   8)     55.32 -0.000293   -0.72     54.60   
    60. D(H  15,N  10,C   5,C   8)    -63.78 -0.003087    0.50    -63.29   
    61. D(H  12,N  10,C   5,C   1)    -64.61  0.004075   -1.67    -66.28   
    62. D(H   3,O  11,C   8,C   5)    179.13 -0.002055    3.22    182.36   
    63. D(H   3,O  11,C   8,O   2)     -6.16 -0.000279   -0.26     -6.42   
    ----------------------------------------------------------------------------

Geometry step timings:
Preparation and reading OPT file:      0.000 s ( 1.128 %)
Internal coordinates            :      0.000 s ( 1.128 %)
B/P matrices and projection     :      0.000 s (29.793 %)
Hessian update/contruction      :      0.000 s (11.278 %)
Making the step                 :      0.000 s (39.380 %)
Converting the step to Cartesian:      0.000 s ( 3.289 %)
Storing new data                :      0.000 s ( 1.222 %)
Checking convergence            :      0.000 s ( 1.316 %)
Final printing                  :      0.000 s (11.466 %)
Total time                      :      0.001 s

Time for energy+gradient        :      9.091 s
Time for complete geometry iter :      9.105 s

         *************************************************************
         *                GEOMETRY OPTIMIZATION CYCLE   2            *
         *************************************************************
---------------------------------
CARTESIAN COORDINATES (ANGSTROEM)
---------------------------------
  C     -4.910714    1.403119    1.097628
  C     -3.519483    1.087369    0.571205
  O     -2.259581    3.608238    1.466746
  H     -3.039284    5.380197    0.133169
  O     -5.445976    0.335881    1.732344
  C     -2.963066    2.170549   -0.372384
  H     -2.846949    0.995530    1.438113
  H     -3.533575    0.115914    0.060924
  C     -2.811674    3.506147    0.384461
  O     -5.500389    2.460516    0.961281
  N     -1.665172    1.726142   -0.886717
  O     -3.186908    4.559457   -0.370048
  H     -0.994841    1.683473   -0.118263
  H     -6.328195    0.577392    2.065981
  H     -3.645248    2.318842   -1.219757
  H     -1.308755    2.395555   -1.567224

----------------------------
CARTESIAN COORDINATES (A.U.)
----------------------------
  NO LB      ZA    FRAG     MASS         X           Y           Z
   0 C     6.0000    0    12.011   -9.279904    2.651511    2.074217
   1 C     6.0000    0    12.011   -6.650858    2.054830    1.079420
   2 O     8.0000    0    15.999   -4.269989    6.818582    2.771748
   3 H     1.0000    0     1.008   -5.743414   10.167100    0.251653
   4 O     8.0000    0    15.999  -10.291404    0.634723    3.273656
   5 C     6.0000    0    12.011   -5.599383    4.101743   -0.703704
   6 H     1.0000    0     1.008   -5.379955    1.881279    2.717639
   7 H     1.0000    0     1.008   -6.677489    0.219047    0.115130
   8 C     6.0000    0    12.011   -5.313294    6.625658    0.726526
   9 O     8.0000    0    15.999  -10.394229    4.649701    1.816557
  10 N     7.0000    0    14.007   -3.146718    3.261936   -1.675652
  11 O     8.0000    0    15.999   -6.022384    8.616126   -0.699289
  12 H     1.0000    0     1.008   -1.879976    3.181302   -0.223484
  13 H     1.0000    0     1.008  -11.958555    1.091113    3.904139
  14 H     1.0000    0     1.008   -6.888520    4.381976   -2.305006
  15 H     1.0000    0     1.008   -2.473189    4.526943   -2.961625

--------------------------------
INTERNAL COORDINATES (ANGSTROEM)
--------------------------------
 C      0   0   0     0.000000000000     0.00000000     0.00000000
 C      1   0   0     1.520639558617     0.00000000     0.00000000
 O      2   1   0     2.957046695390    96.19726015     0.00000000
 H      3   2   1     2.350787761063   109.23643976   288.58420992
 O      1   2   3     1.352171556107   111.14808085   224.58073493
 C      2   1   3     1.540531385116   113.35902693   305.11566737
 H      2   1   3     1.101028995491   107.67319974    65.36630564
 H      2   1   3     1.097410267229   109.45299298   181.89139722
 C      3   2   1     1.219249366298    57.78212646   272.18327999
 O      1   2   3     1.218357306494   125.75159016    45.76490685
 N      6   2   1     1.465115810521   108.76634601   183.68791344
 O      4   3   2     0.973978518707    73.03357230   339.03290860
 H     11   6   2     1.020630251016   109.28003746   293.72347510
 H      5   1   2     0.973628004354   108.89042245   179.20463492
 H      6   2   1     1.097908650170   110.07720553   302.66962170
 H     11   6   2     1.018938871431   110.18459261   175.82762528

---------------------------
INTERNAL COORDINATES (A.U.)
---------------------------
 C      0   0   0     0.000000000000     0.00000000     0.00000000
 C      1   0   0     2.873592314193     0.00000000     0.00000000
 O      2   1   0     5.588008419503    96.19726015     0.00000000
 H      3   2   1     4.442345067383   109.23643976   288.58420992
 O      1   2   3     2.555233927121   111.14808085   224.58073493
 C      2   1   3     2.911182418580   113.35902693   305.11566737
 H      2   1   3     2.080643266984   107.67319974    65.36630564
 H      2   1   3     2.073804861617   109.45299298   181.89139722
 C      3   2   1     2.304047391260    57.78212646   272.18327999
 O      1   2   3     2.302361642536   125.75159016    45.76490685
 N      6   2   1     2.768667636363   108.76634601   183.68791344
 O      4   3   2     1.840552660678    73.03357230   339.03290860
 H     11   6   2     1.928711658415   109.28003746   293.72347510
 H      5   1   2     1.839890284545   108.89042245   179.20463492
 H      6   2   1     2.074746668885   110.07720553   302.66962170
 H     11   6   2     1.925515414211   110.18459261   175.82762528

------------------------------------------------------------------------------
                   ___                                                        
                  /   \      - P O W E R E D   B Y -                         
                 /     \                                                     
                 |  |  |   _    _      __       _____    __    __             
                 |  |  |  | |  | |    /  \     |  _  \  |  |  /  |          
                  \  \/   | |  | |   /    \    | | | |  |  | /  /          
                 / \  \   | |__| |  /  /\  \   | |_| |  |  |/  /          
                |  |  |   |  __  | /  /__\  \  |    /   |      \           
                |  |  |   | |  | | |   __   |  |    \   |  |\   \          
                \     /   | |  | | |  |  |  |  | |\  \  |  | \   \       
                 \___/    |_|  |_| |__|  |__|  |_| \__\ |__|  \__/        
                                                                              
                      - O R C A' S   B I G   F R I E N D -                    
                                      &                                       
                       - I N T E G R A L  F E E D E R -                       
                                                                              
 v1 FN, 2020, v2 2021, v3 2022-2024                                           
------------------------------------------------------------------------------


----------------------
SHARK INTEGRAL PACKAGE
----------------------

Number of atoms                             ...     16
Number of basis functions                   ...    161
Number of shells                            ...     75
Maximum angular momentum                    ...      2
Integral batch strategy                     ... SHARK/LIBINT Hybrid
RI-J (if used) integral strategy            ... SPLIT-RIJ (Revised 2003 algorithm where possible)
Printlevel                                  ...      1
Contraction scheme used                     ... SEGMENTED contraction
Prescreening option                         ... SCHWARTZ
   Thresh                                   ... 2.500e-11
   Tcut                                     ... 2.500e-12
   Tpresel                                  ... 2.500e-12 
Coulomb Range Separation                    ... NOT USED
Exchange Range Separation                   ... NOT USED
Multipole approximations                    ... NOT USED
Finite Nucleus Model                        ... NOT USED
CABS basis                                  ... NOT available
Auxiliary Coulomb fitting basis             ... AVAILABLE
   # of basis functions in Aux-J            ...    518
   # of shells in Aux-J                     ...    170
   Maximum angular momentum in Aux-J        ...      4
Auxiliary J/K fitting basis                 ... NOT available
Auxiliary Correlation fitting basis         ... NOT available
Auxiliary 'external' fitting basis          ... NOT available

Checking pre-screening integrals            ... done (  0.0 sec) Dimension = 75
   => SHARK Basis and OBASIS are compatible. Storing Pre-screening
Shell pair information
Shell pair cut-off parameter TPreSel        ...   2.5e-12
Total number of shell pairs                 ...      2850
Shell pairs after pre-screening             ...      2589
Total number of primitive shell pairs       ...     14745
Primitive shell pairs kept                  ...      8832
          la=0 lb=0:    770 shell pairs
          la=1 lb=0:    931 shell pairs
          la=1 lb=1:    304 shell pairs
          la=2 lb=0:    334 shell pairs
          la=2 lb=1:    206 shell pairs
          la=2 lb=2:     44 shell pairs

[...]
      pz      :     1.021282  p :     2.979369
      px      :     0.949064
      py      :     1.009022
      dz2     :     0.004989  d :     0.032738
      dxz     :     0.008059
      dyz     :     0.007046
      dx2y2   :     0.008990
      dxy     :     0.003653

  2 O s       :     3.875338  s :     3.875338
      pz      :     1.349598  p :     4.531791
      px      :     1.420386
      py      :     1.761807
      dz2     :     0.009799  d :     0.027317
      dxz     :     0.009421
      dyz     :     0.006698
      dx2y2   :     0.000807
      dxy     :     0.000592

  3 H s       :     0.643279  s :     0.643279
      pz      :     0.011944  p :     0.037433
      px      :     0.009582
      py      :     0.015906

  4 O s       :     3.845776  s :     3.845776
      pz      :     1.594013  p :     4.596073
      px      :     1.394961
      py      :     1.607098
      dz2     :     0.004164  d :     0.023347
      dxz     :     0.001848
      dyz     :     0.006023
      dx2y2   :     0.006669
      dxy     :     0.004643

  5 C s       :     3.219367  s :     3.219367
      pz      :     0.984453  p :     2.759341
      px      :     0.876135
      py      :     0.898752
      dz2     :     0.006044  d :     0.055169
      dxz     :     0.013265
      dyz     :     0.012600
      dx2y2   :     0.013266
      dxy     :     0.009994

  6 H s       :     0.831432  s :     0.831432
      pz      :     0.005334  p :     0.011790
      px      :     0.003910
      py      :     0.002545

  7 H s       :     0.831223  s :     0.831223
      pz      :     0.003472  p :     0.011564
      px      :     0.002394
      py      :     0.005699

  8 C s       :     2.999844  s :     2.999844
      pz      :     0.746250  p :     2.357105
      px      :     0.797638
      py      :     0.813217
      dz2     :     0.026661  d :     0.117863
      dxz     :     0.021244
      dyz     :     0.049549
      dx2y2   :     0.009620
      dxy     :     0.010789

  9 O s       :     3.876315  s :     3.876315
      pz      :     1.524264  p :     4.517743
      px      :     1.585839
      py      :     1.407639
      dz2     :     0.003300  d :     0.027444
      dxz     :     0.003654
      dyz     :     0.005730
      dx2y2   :     0.007843
      dxy     :     0.006918

 10 N s       :     3.631072  s :     3.631072
      pz      :     1.250116  p :     3.904080
      px      :     1.077949
      py      :     1.576015
      dz2     :     0.002073  d :     0.028984
      dxz     :     0.010153
      dyz     :     0.005849
      dx2y2   :     0.005234
      dxy     :     0.005675

 11 O s       :     3.844862  s :     3.844862
      pz      :     1.601828  p :     4.598959
      px      :     1.761374
      py      :     1.235757
      dz2     :     0.004321  d :     0.023333
      dxz     :     0.004056
      dyz     :     0.010280
      dx2y2   :     0.002538
      dxy     :     0.002139

 12 H s       :     0.730711  s :     0.730711
      pz      :     0.008570  p :     0.023461
      px      :     0.007652
      py      :     0.007239

 13 H s       :     0.641521  s :     0.641521
      pz      :     0.009295  p :     0.037479
      px      :     0.019488
      py      :     0.008697

 14 H s       :     0.845114  s :     0.845114
      pz      :     0.004486  p :     0.010847
      px      :     0.003986
      py      :     0.002376

 15 H s       :     0.724774  s :     0.724774
      pz      :     0.008897  p :     0.023502
      px      :     0.005036
      py      :     0.009569



                     *******************************
                     * LOEWDIN POPULATION ANALYSIS *
                     *******************************

----------------------
LOEWDIN ATOMIC CHARGES
----------------------
   0 C :    0.147288
   1 C :   -0.148143
   2 O :   -0.235489
   3 H :    0.184278
   4 O :   -0.154211
   5 C :   -0.036969
   6 H :    0.101326
   7 H :    0.102674
   8 C :    0.126931
   9 O :   -0.225688
  10 N :   -0.243373
  11 O :   -0.155308
  12 H :    0.129761
  13 H :    0.185033
  14 H :    0.089328
  15 H :    0.132564

-------------------------------
LOEWDIN REDUCED ORBITAL CHARGES
-------------------------------
  0 C s       :     2.857177  s :     2.857177
      pz      :     0.828811  p :     2.714758
      px      :     0.978289
      py      :     0.907658
      dz2     :     0.037550  d :     0.280777
      dxz     :     0.029607
      dyz     :     0.067737
      dx2y2   :     0.079829
      dxy     :     0.066053

  1 C s       :     2.913659  s :     2.913659
      pz      :     1.069548  p :     3.159746
      px      :     1.032174
      py      :     1.058024
      dz2     :     0.010082  d :     0.074738
      dxz     :     0.018003
      dyz     :     0.016652
      dx2y2   :     0.021425
      dxy     :     0.008576

  2 O s       :     3.568976  s :     3.568976
      pz      :     1.451537  p :     4.610776
      px      :     1.414919
      py      :     1.744321
      dz2     :     0.024700  d :     0.055737
      dxz     :     0.015698
      dyz     :     0.013050
      dx2y2   :     0.001183
      dxy     :     0.001107

  3 H s       :     0.701933  s :     0.701933
      pz      :     0.037132  p :     0.113789
      px      :     0.027352
      py      :     0.049305

  4 O s       :     3.495862  s :     3.495862
      pz      :     1.590110  p :     4.610007
      px      :     1.400571
      py      :     1.619327
      dz2     :     0.007127  d :     0.048343
      dxz     :     0.006013
      dyz     :     0.013128
      dx2y2   :     0.013315
      dxy     :     0.008760

  5 C s       :     2.890429  s :     2.890429
      pz      :     1.042208  p :     3.023079
      px      :     0.969138
      py      :     1.011733
      dz2     :     0.011431  d :     0.123461
      dxz     :     0.028474
      dyz     :     0.031714
      dx2y2   :     0.030378
      dxy     :     0.021463

  6 H s       :     0.857522  s :     0.857522
      pz      :     0.019986  p :     0.041153
      px      :     0.014032
      py      :     0.007135

  7 H s       :     0.856794  s :     0.856794
      pz      :     0.011256  p :     0.040532
      px      :     0.007040
      py      :     0.022235

  8 C s       :     2.870312  s :     2.870312
      pz      :     0.979756  p :     2.724835
      px      :     0.807226
      py      :     0.937853
      dz2     :     0.065175  d :     0.277922
      dxz     :     0.046397
      dyz     :     0.123169
      dx2y2   :     0.020785
      dxy     :     0.022396

  9 O s       :     3.569084  s :     3.569084
      pz      :     1.517277  p :     4.600972
      px      :     1.611559
      py      :     1.472136
      dz2     :     0.007206  d :     0.055632
      dxz     :     0.005898
      dyz     :     0.010529
      dx2y2   :     0.013409
      dxy     :     0.018591

 10 N s       :     3.226234  s :     3.226234
      pz      :     1.267409  p :     3.960610
      px      :     1.132663
      py      :     1.560538
      dz2     :     0.004219  d :     0.056529
      dxz     :     0.021736
      dyz     :     0.009744
      dx2y2   :     0.010490
      dxy     :     0.010340

 11 O s       :     3.496255  s :     3.496255
      pz      :     1.615169  p :     4.610266
      px      :     1.729431
      py      :     1.265666
      dz2     :     0.006676  d :     0.048787
      dxz     :     0.004711
      dyz     :     0.023021
      dx2y2   :     0.009449
      dxy     :     0.004929

 12 H s       :     0.792979  s :     0.792979
      pz      :     0.030244  p :     0.077260
      px      :     0.026334
      py      :     0.020683

 13 H s       :     0.701096  s :     0.701096
      pz      :     0.026210  p :     0.113871
      px      :     0.062452
      py      :     0.025210

 14 H s       :     0.870709  s :     0.870709
      pz      :     0.018164  p :     0.039963
      px      :     0.014965
      py      :     0.006834

 15 H s       :     0.789991  s :     0.789991
      pz      :     0.028271  p :     0.077445
      px      :     0.014311
      py      :     0.034864



                      *****************************
                      * MAYER POPULATION ANALYSIS *
                      *****************************

  NA   - Mulliken gross atomic population
  ZA   - Total nuclear charge
  QA   - Mulliken gross atomic charge
  VA   - Mayer's total valence
  BVA  - Mayer's bonded valence
  FA   - Mayer's free valence

  ATOM       NA         ZA         QA         VA         BVA        FA
  0 C      5.4714     6.0000     0.5286     3.9541     3.9541     0.0000
  1 C      6.2633     6.0000    -0.2633     3.7937     3.7937     0.0000
  2 O      8.4344     8.0000    -0.4344     2.0886     2.0886    -0.0000
  3 H      0.6807     1.0000     0.3193     0.9168     0.9168     0.0000
  4 O      8.4652     8.0000    -0.4652     2.0382     2.0382     0.0000
  5 C      6.0339     6.0000    -0.0339     3.8366     3.8366    -0.0000
  6 H      0.8432     1.0000     0.1568     0.9597     0.9597    -0.0000
  7 H      0.8428     1.0000     0.1572     0.9522     0.9522     0.0000
  8 C      5.4748     6.0000     0.5252     3.9116     3.9116     0.0000
  9 O      8.4215     8.0000    -0.4215     2.1040     2.1040     0.0000
 10 N      7.5641     7.0000    -0.5641     2.8942     2.8942    -0.0000
 11 O      8.4672     8.0000    -0.4672     2.0425     2.0425    -0.0000
 12 H      0.7542     1.0000     0.2458     0.9211     0.9211     0.0000
 13 H      0.6790     1.0000     0.3210     0.9155     0.9155     0.0000
 14 H      0.8560     1.0000     0.1440     0.9517     0.9517    -0.0000
 15 H      0.7483     1.0000     0.2517     0.9164     0.9164     0.0000

  Mayer bond orders larger than 0.100000
B(  0-C ,  1-C ) :   0.9484 B(  0-C ,  4-O ) :   1.0819 B(  0-C ,  9-O ) :   1.8921 
B(  1-C ,  5-C ) :   0.9728 B(  1-C ,  6-H ) :   0.9166 B(  1-C ,  7-H ) :   0.9236 
B(  2-O ,  8-C ) :   1.8757 B(  3-H , 11-O ) :   0.8532 B(  4-O , 13-H ) :   0.8523 
B(  5-C ,  8-C ) :   0.8967 B(  5-C , 10-N ) :   1.0068 B(  5-C , 14-H ) :   0.9225 
B(  8-C , 11-O ) :   1.0762 B( 10-N , 12-H ) :   0.8999 B( 10-N , 15-H ) :   0.9012 


-------
TIMINGS
-------

Total SCF time: 0 days 0 hours 0 min 2 sec 

Total time                  ....       2.425 sec
Sum of individual times     ....       2.080 sec  ( 85.8%)

SCF preparation             ....       0.033 sec  (  1.4%)
Fock matrix formation       ....       2.020 sec  ( 83.3%)
  Startup                   ....       0.000 sec  (  0.0% of F)
  Split-RI-J                ....       0.713 sec  ( 35.3% of F)
  XC integration            ....       1.601 sec  ( 79.2% of F)
    XC Preparation          ....       0.000 sec  (  0.0% of XC)
    Basis function eval.    ....       0.586 sec  ( 36.6% of XC)
    Density eval.           ....       0.343 sec  ( 21.4% of XC)
    XC-Functional eval.     ....       0.329 sec  ( 20.5% of XC)
    XC-Potential eval.      ....       0.302 sec  ( 18.9% of XC)
Diagonalization             ....       0.000 sec  (  0.0%)
Density matrix formation    ....       0.002 sec  (  0.1%)
Total Energy calculation    ....       0.000 sec  (  0.0%)
Population analysis         ....       0.012 sec  (  0.5%)
Orbital Transformation      ....       0.002 sec  (  0.1%)
Orbital Orthonormalization  ....       0.000 sec  (  0.0%)
DIIS solution               ....       0.002 sec  (  0.1%)
SOSCF solution              ....       0.008 sec  (  0.3%)
Finished LeanSCF after   2.4 sec

Maximum memory used throughout the entire LEANSCF-calculation: 18.0 MB



-------------------------------------------------------------------------------
                          DFT DISPERSION CORRECTION                            
-------------------------------------------------------------------------------
Active option DFTDOPT                   ...         2   
Final C6-coefficient scaling factor     ...     1.250
Final VDW-radii scaling factor          ...     1.100
Damping factor alpha                    ...    20.000
-------------------------   ----------------
Dispersion correction           -0.018982148
-------------------------   ----------------


-------------------------   --------------------
FINAL SINGLE POINT ENERGY      -511.999807981577
-------------------------   --------------------

                                *** OPTIMIZATION RUN DONE ***


------------------------------------------------------------------------------
                              ORCA PROPERTY CALCULATIONS
------------------------------------------------------------------------------

GBWName                                 ... 5.gbw
Number of atoms                         ...     16
Number of basis functions               ...    161
Max core memory                         ...   4096 MB

Electric properties:
Dipole moment                           ... YES
Quadrupole moment                       ...  NO
Static polarizability (Dipole/Dipole)   ...  NO
Static polarizability (Dipole/Quad.)    ...  NO
Static polarizability (Quad./Quad.)     ...  NO
Static polarizability (Velocity)        ...  NO
Static hyperpolarizability              ...  NO

Atomic electric properties:
Dipole moment                           ...  NO
Quadrupole moment                       ...  NO
Static polarizability                   ...  NO

Choice of electric origin               ... Center of mass
Position of electric origin             ...    -6.823605     4.389404     0.974036

General magnetic properties:
Magnetizability                         ...  NO

EPR properties:
g-Tensor (aka g-matrix)                 ...  NO
Zero-Field splitting spin-orbit         ...  NO
Zero-field splitting spin-spin          ...  NO
Hyperfine couplings                     ...  NO (   0 nuclei)
Quadrupole couplings                    ...  NO (   0 nuclei)
Contact density                         ...  NO (   0 nuclei)

NMR properties:
Chemical shifts                         ...  NO (   0 nuclei)
Spin-rotation constants                 ...  NO (   0 nuclei)
Spin-spin couplings                     ...  NO (   0 nuclei,    0 pairs)

Choice of magnetic origin               ... GIAO
Position of magnetic origin             ...     0.000000     0.000000     0.000000

Properties with geometric perturbations:
SCF Hessian                             ...  NO
IR spectrum                             ...  NO
VCD spectrum                            ...  NO
X-ray spectroscopy properties:
SCF XES/XAS/RIXS spectra                ...  NO

SCF SOC stabilization energy            ...  NO
Diagonal Born-Oppenheimer correction    ...  NO

-------------
DIPOLE MOMENT
-------------

Method             : SCF
Type of density    : Electron Density
Multiplicity       :   1
Irrep              :   0
Energy             :  -511.9808258331002548 Eh
Basis              : AO
                                X                 Y                 Z
Electronic contribution:     -3.241564415       2.466805486       2.411753460
Nuclear contribution   :      3.521142847      -2.456855529      -2.579041759
                        -----------------------------------------
Total Dipole Moment    :      0.279578432       0.009949958      -0.167288299
                        -----------------------------------------
Magnitude (a.u.)       :      0.325957783
Magnitude (Debye)      :      0.828518842



--------------------
Rotational spectrum 
--------------------
 
Rotational constants in cm-1:             0.084241             0.036740             0.031288 
Rotational constants in MHz :          2525.479825          1101.435411           937.992458 

Dipole components along the rotational axes: 
x,y,z [a.u.] :    -0.261603     0.194454    -0.000101 
x,y,z [Debye]:    -0.664941     0.494263    -0.000257 

 

Dipole moment calculation done in   0.0 sec 

Maximum memory used throughout the entire PROP-calculation: 10.3 MB

--------------------------------
SUGGESTED CITATIONS FOR THIS RUN
--------------------------------

Below you find a list of papers that are relevant to this ORCA run
We neither can nor want to force you to cite these papers, but we appreciate if you do
You receive ORCA, which is the product of decades of hard work by many enthusiastic individuals, for free
The only thing we kindly ask in return is that you cite our papers,
We deeply appreciate it, if you show your appreciation for ORCA by not just citing the generic ORCA reference.

Please note that relegating all ORCA citations to the supporting information does *not* help us.
SI sections are not indexed - citations you put there will not count into any citation statistics
But we need these citations in order to attract the funding resources that allow us to do what we are doing

Therefore, if you are a happy ORCA user, please consider citing a few of the papers listed below in the main body of your paper

In addition to the list printed below, the program has created the file 5.bibtex that contains the list in bibtex format
You can import this file easily into all common literature databanks and citation aid programs


List of essential papers. We consider these as the minimum necessary citations

  1. Neese, F.
     Software update: the ORCA program system, version 6.0
     WIRES Comput. Molec. Sci. 2025 15(1), e70019
     doi.org/10.1002/wcms.7019

List of papers to cite with high priority. The work reported in these papers was absolutely
necessary for this run to complete.
Our perspective: the developers of density functionals and basis sets usually get cited in chemistry papers
Good! But without the algorithms to do something with them, the functionals or basis sets would not do anything.
Hence, in our opinion, the algorithm design and method developments papers are equally worthy of getting cited

  1. Neese, F.
     An improvement of the resolution of the identity approximation for the formation of the Coulomb matrix
     J. Comp. Chem. 2003 24(14), 1740-1747
     doi.org/10.1002/jcc.10318
  2. Grimme, S.
     Semiempirical GGA-type density functional constructed with a long-range dispersion correction
     J.Comput.Chem. 2006 27(15), 1787-1799
     doi.org/10.1002/jcc.20495
  3. Neese, F.
     The SHARK Integral Generation and Digestion System
     J. Comp. Chem. 2022 44(3), 381
     doi.org/10.1002/jcc.26942

List of suggested additional citations. These are papers that are important in the 'surrounding' of 
of this run, or papers that preceded the highly important papers. If you like your results we are grateful for a citation.

  1. Neese, F.
     The ORCA program system
     WIRES Comput. Molec. Sci. 2012 2(1), 73-78
     doi.org/10.1002/wcms.81
  2. Neese, F.
     Software update: the ORCA program system, version 4.0
     WIRES Comput. Molec. Sci. 2018 8(1), 1-6
     doi.org/10.1002/wcms.1327
  3. Neese, F.; Wennmohs, F.; Becker, U.; Riplinger, C.
     The ORCA quantum chemistry program package
     J. Chem. Phys. 2020 152(22), 224108
     doi.org/10.1063/5.0004608
  4. Neese, F.
     Software update: The ORCA program system—Version 5.0
     WIRES Comput. Molec. Sci. 2022 12(1), e1606
     doi.org/10.1002/wcms.1606

List of optional additional citations

  1. Neese, F.
     Approximate second-order SCF convergence for spin unrestricted wavefunctions
     Chem. Phys. Lett. 2000 325(1-3), 93-98
     doi.org/10.1016/s0009-2614(00)00662-x

Timings for individual modules:

Sum of individual times          ...      101.281 sec (=   1.688 min)
Startup calculation              ...        5.742 sec (=   0.096 min)   5.7 %
SCF iterations                   ...       60.053 sec (=   1.001 min)  59.3 %
Property calculations            ...        0.036 sec (=   0.001 min)   0.0 %
SCF Gradient evaluation          ...       35.431 sec (=   0.591 min)  35.0 %
Geometry relaxation              ...        0.018 sec (=   0.000 min)   0.0 %
                             ****ORCA TERMINATED NORMALLY****
TOTAL RUN TIME: 0 days 0 hours 1 minutes 41 seconds 649 msec
