
                                 *****************
                                 * O   R   C   A *
                                 *****************

                                            #,                                       
                                            ###                                      
                                            ####                                     
                                            #####                                    
                                            ######                                   
                                           ########,                                 
                                     ,,################,,,,,                         
                               ,,#################################,,                 
                          ,,##########################################,,             
                       ,#########################################, ''#####,          
                    ,#############################################,,   '####,        
                  ,##################################################,,,,####,       
                ,###########''''           ''''###############################       
              ,#####''   ,,,,##########,,,,          '''####'''          '####       
            ,##' ,,,,###########################,,,                        '##       
           ' ,,###''''                  '''############,,,                           
         ,,##''                                '''############,,,,        ,,,,,,###''
      ,#''                                            '''#######################'''  
     '                                                          ''''####''''         
             ,#######,   #######,   ,#######,      ##                                
            ,#'     '#,  ##    ##  ,#'     '#,    #''#        ,####,    ,#,          
            ##       ##  ##   ,#'  ##            #'  '#       #'       ,# #          
            ##       ##  #######   ##           ,######,      #####,      #          
            '#,     ,#'  ##    ##  '#,     ,#' ,#      #,     #,   #      #          
             '#######'   ##     ##  '#######'  #'      '#     '####' #    #          



                #########################################################
                #                        -***-                          #
                #          Department of theory and spectroscopy        #
                #                                                       #
                #                      Frank Neese                      #
                #                                                       #
                #     Directorship, Architecture, Infrastructure        #
                #                    SHARK, DRIVERS                     #
                #        Core code/Algorithms in most modules           #
                #                                                       #
                #        Max Planck Institute fuer Kohlenforschung      #
                #                Kaiser Wilhelm Platz 1                 #
                #                 D-45470 Muelheim/Ruhr                 #
                #                      Germany                          #
                #                                                       #
                #                  All rights reserved                  #
                #                        -***-                          #
                #########################################################


                         Program Version 6.1.0  -  RELEASE   -
                                (GIT: $679e74b$)
                          ($2025-06-10 18:02:51 +0200$)


 With contributions from (in alphabetic order):
[Max-Planck-Institut fuer Kohlenforschung]                               
  Daniel Aravena         : Magnetic Suceptibility                        
  Michael Atanasov       : Ab Initio Ligand Field Theory (pilot matlab implementation)
  Alexander A. Auer      : GIAO ZORA, VPT2 properties, NMR spectrum      
  Ute Becker             : All parallelization in ORCA, NUMFREQ, NUMCALC 
  Giovanni Bistoni       : ED, misc. LED, open-shell LED, HFLD           
  Dmytro Bykov           : pre 5.0 version of the SCF Hessian            
  Marcos Casanova-Páez   : Triplet and SCS-CIS(D). UHF-(DLPNO)-IP/EA/STEOM-CCSD. UHF-CVS-IP/STEOM-CCSD   
  Vijay G. Chilkuri      : MRCI spin determinant printing, contributions to CSF-ICE 
  Pauline Colinet        : FMM embedding                                 
  Dipayan Datta          : RHF DLPNO-CCSD density                        
  Achintya Kumar Dutta   : EOM-CC, STEOM-CC                              
  Nicolas Foglia         : Exact transition moments, OPA infrastructure, MCD improvements    
  Dmitry Ganyushin       : Spin-Orbit,Spin-Spin,Magnetic field MRCI      
  Miquel Garcia-Rates    : C-PCM and meta-GGA Hessian, CCSD/C-PCM, Gaussian charge scheme 
  Tiago L. C. Gouveia    : GS-ROHF, GS-ROCIS                             
  Yang Guo               : DLPNO-NEVPT2, F12-NEVPT2, CIM, IAO-localization        
  Andreas Hansen         : Spin unrestricted coupled pair/coupled cluster methods 
  Ingolf Harden          : AUTO-CI MPn and infrastructure                
  Benjamin Helmich-Paris : MC-RPA, TRAH-(SCF,CASSCF), AVAS, COSX integrals, SCF dyn. polar., MC-PDFT, srDFT 
  Lee Huntington         : MR-EOM, pCC                                   
  Robert Izsak           : Overlap fitted RIJCOSX, COSX-SCS-MP3, EOM     
  Riya Kayal             : Wick's Theorem for AUTO-CI, AUTO-CI UHF-CCSDT 
  Emily Kempfer          : AUTO-CI RHF CISDT and CCSDT, approximate NEVPT4
  Christian Kollmar      : KDIIS, OOCD, Brueckner-CCSD(T), CCSD density, CASPT2, CASPT2-K, improved NEVPT2 
  Axel Koslowski         : Symmetry handling                             
  Simone Kossmann        : meta-GGA functionals, TD-DFT gradient, OOMP2, (MP2 Hessian; deprecated post 5.0) 
  Lucas Lang             : DCDCAS, Hyperfine gauge corrections, ICE-SOC+SSC
  Marvin Lechner         : AUTO-CI (C++ implementation), FIC-MRCC        
  Spencer Leger          : CASSCF response                               
  Dagmar Lenk            : GEPOL surface, SMD, ORCA-2-JSON               
  Dimitrios Liakos       : Extrapolation schemes; Compound Job, Property file
  Dimitrios Manganas     : Further ROCIS development; embedding schemes. LFT, Crystal Embedding 
  Dimitrios Pantazis     : SARC Basis sets                               
  Anastasios Papadopoulos: AUTO-CI, single reference methods and gradients 
  Taras Petrenko         : pre 6.0 DFT Hessian and TD-DFT gradient,  ECA, NRVS 
  Petra Pikulova         : Analytic Raman intensities                    
  Peter Pinski           : DLPNO-MP2, DLPNO-MP2 Gradient                 
  Shashank Vittal Rao    : ES-AILFT, MagRelax                            
  Christoph Reimann      : Effective Core Potentials                     
  Marius Retegan         : Local ZFS, SOC                                
  Christoph Riplinger    : Optimizer, TS searches, QM/MM, DLPNO-CCSD(T), (RO)-DLPNO pert. Triples 
  Michael Roemelt        : Original ROCIS implementation, recursive CI coupling coefficients
  Masaaki Saitow         : Open-shell DLPNO-CCSD energy and density      
  Barbara Sandhoefer     : DKH picture change effects                    
  Yorick L. A. Schmerwitz: GMF and freeze-and-release deltaSCF, NEB S-IDPP initial path                    
  Kantharuban Sivalingam : CASSCF convergence/infrastructure, NEVPT2, NEVPT3, NEVPT4(SD), FIC-MRCI and CEPA variants
  Bernardo de Souza      : ESD, SOC TD-DFT                               
  Georgi L. Stoychev     : AutoAux, RI-MP2 NMR, DLPNO-MP2 response, X2C  
  Van Anh Tran           : RI-MP2 g-tensors                              
  Willem Van den Heuvel  : Paramagnetic NMR                              
  Zikuan Wang            : NOTCH, Electric field optimization            
  Frank Wennmohs         : Technical directorship and infrastructure     
  Hang Xu                : AUTO-CI-Response properties                   
                                                                         
[FACCTs GmbH]                                                            
  Markus Bursch, Nicolas Foglia, Miquel Garcia-Rates, Ingolf Harden, Hagen Neugebauer, Anastasios Papadopoulos, 
  Christoph Riplinger, Bernardo de Souza, Georgi L. Stoychev                                                    
                                                                 
  APM, various basis sets, CI-OPT, improved COSX, DLPNO-Multilevel,           
  DOCKER, DRACO, updates on ESD, Fragmentator, GOAT, IRC, LR-CPCM, L-BFGS, MBIS, meta-GGA TD-DFT gradient, ML-optimized integration grids, 
  MM, NACMEs, nearIR, NEB, NEB-TS, NL-DFT gradient (VV10), 2- and 3-layer-ONIOM, interface openCOSMO-RS, QMMM,   
  Crystal-QMMM, RESP, rigid body optimization, SF, symmetry and pop. for TD-DFT, various functionals, SOLVATOR                                   
                                                                         
[Other institutions]                                                     
  V. Asgeirsson          : NEB                                           
  Christoph Bannwarth    : sTDA-DFT, sTD-DFT, PBEh-3c, B97-3c, D3        
  Giovanni Bistoni       : ETS/NOCV, ADLD/ADEX, COVALED                  
  Martin Brehm           : Molecular dynamics                            
  Ronald Cardenas        : ETS/NOCV                                      
  Martina Colucci        : COVALED                                       
  Sebastian Ehlert       : rSCAN, r2SCAN, r2SCAN-3c, D4, dhf basis sets  
  Marvin Friede          : D4 for Fr, Ra, Ac-Lr                          
  Lars Goerigk           : TD-DFT with DH, B97 family of functionals     
  Stefan Grimme          : VdW corrections, initial TS optimization, DFT functionals, gCP, sTDA/sTD-DF 
  Waldemar Hujo          : DFT-NL                                        
  H. Jonsson             : NEB                                           
  Holger Kruse           : gCP                                           
  Marcel Mueller         : wB97X-3c, vDZP basis set                      
  Hagen Neugebauer       : wr2SCAN, Native XTB                           
  Gianluca Regni         : ADLD/ADEX                                     
  Tobias Risthaus        : pre 6.0 range-separated hybrid DFT and stability analysis
  Lukas Wittmann         : regularized MP2, r2SCAN double-hybrids, wr2SCAN        
                                                                         
We gratefully acknowledge several colleagues who have allowed us to      
interface, adapt or use parts of their codes:                            
  Ed Valeev, F. Pavosevic, A. Kumar             : LibInt (2-el integral package), F12 methods 
  Garnet Chan, S. Sharma, J. Yang, R. Olivares  : DMRG                   
  Ulf Ekstrom                                   : XCFun DFT Library      
  Mihaly Kallay                                 : mrcc  (arbitrary order and MRCC methods)
  Frank Weinhold                                : gennbo (NPA and NBO analysis)           
  Simon Mueller                                 : openCOSMO-RS                            
  Christopher J. Cramer and Donald G. Truhlar   : smd solvation model                     
  S Lehtola, MJT Oliveira, MAL Marques          : LibXC Library                           
  Liviu Ungur et al                             : ANISO software                          


 Your calculation uses the libint2 library for the computation of 2-el integrals
 For citations please refer to: http://libint.valeyev.net

 Your ORCA version has been built with support for libXC version: 7.0.0
 For citations please refer to: https://libxc.gitlab.io

 This ORCA versions uses:
   CBLAS   interface :  Fast vector & matrix operations
   LAPACKE interface :  Fast linear algebra routines
   SCALAPACK package :  Parallel linear algebra routines
   Shared memory     :  Shared parallel matrices
   BLAS/LAPACK       :  OpenBLAS 0.3.29  USE64BITINT DYNAMIC_ARCH NO_AFFINITY Haswell SINGLE_THREADED
        Core in use  :  Haswell
   Copyright (c) 2011-2014, The OpenBLAS Project


  ***********************************
  * Starting time: Mon Sep  1 16:36:48 2025
  * Host name:     chemlab03
  * Process ID:    109850
  * Working dir.:  /home/vivek/mm-project/vivek/xtb-goat/MP2-opt/g/2
  ***********************************



***************************************
The coordinates will be read from file: /home/vivek/mm-project/vivek/xtb-goat/xtb-goat/g/G_CONF/2.xyz
***************************************


================================================================================

----- Orbital basis set information -----
Your calculation utilizes the basis: 6-31G**
   H-He, Li-Ne : W. J. Hehre, R. Ditchfield and J.A. Pople, J. Chem. Phys. 56, 2257 (1972).
                 Note: He and Ne are unpublished basis sets taken from the Gaussian program.
                 Note: Li and B from J. D. Dill and J. A. Pople, J. Chem. Phys. 62, 2921 (1975).
   Na - Ar     : M. M. Francl, W. J. Pietro, W. J. Hehre, J. S. Binkley, M. S. Gordon, 
                 D. J. DeFrees and J. A. Pople, J. Chem. Phys. 77, 3654 (1982).
   K - Zn      : V. A. Rassolov, J. A. Pople, M. A. Ratner, and T. L. Windus, J. Chem. Phys. 109, 1223 (1998).

================================================================================
                                        WARNINGS
                       Please study these warnings very carefully!
================================================================================

WARNING: Old DensityContainer found on disk!
         Will remove this file - 
         If you want to keep old densities, please start your calculation with a different basename. 


WARNING: The frozen-core approximation for MP2-gradient calculations is turned on by default.

WARNING: Geometry Optimization
  ===> : Switching off AutoStart
         For restart on a previous wavefunction, please use MOREAD

WARNING: Post HF methods need fully converged wavefunctions
  ===> : Setting SCFConvForced true
         You can overwrite this default with %scf ConvForced false 


================================================================================
                                       INPUT FILE
================================================================================
NAME = 2.inp
|  1> ! MP2 6-31G** opt
|  2> 
|  3> * xyzfile 0 1 /home/vivek/mm-project/vivek/xtb-goat/xtb-goat/g/G_CONF/2.xyz
|  4> 
|  5>                          ****END OF INPUT****
================================================================================

                       *****************************
                       * Geometry Optimization Run *
                       *****************************

Geometry optimization settings:
Update method            Update   .... BFGS
Choice of coordinates    CoordSys .... (2022) Redundant Internals
Initial Hessian          InHess   .... Almloef's Model
Max. no of cycles        MaxIter  .... 50

Convergence Tolerances:
Energy Change            TolE     ....  5.0000e-06 Eh
Max. Gradient            TolMAXG  ....  3.0000e-04 Eh/bohr
RMS Gradient             TolRMSG  ....  1.0000e-04 Eh/bohr
Max. Displacement        TolMAXD  ....  4.0000e-03 bohr
RMS Displacement         TolRMSD  ....  2.0000e-03 bohr
Strict Convergence                .... False

------------------------------------------------------------------------------
                        ORCA OPTIMIZATION COORDINATE SETUP
------------------------------------------------------------------------------

The optimization will be done in redundant internal coordinates (2022)
Making redundant internal coordinates   ...  (2022 redundants) done
Evaluating the initial hessian          ...  (Almloef) done
Evaluating the coordinates              ...  done
Calculating the B-matrix                .... done
Calculating the G-matrix                .... done
The number of degrees of freedom        ....   34

    -----------------------------------------------------------------
                    Redundant Internal Coordinates


    -----------------------------------------------------------------
         Definition                    Initial Value    Approx d2E/dq
    -----------------------------------------------------------------
      1. B(C   1,C   0)                  1.5211         0.385978   
      2. B(N   4,H   2)                  1.0148         0.425127   
      3. B(N   4,C   0)                  1.4541         0.442181   
      4. B(N   4,H   3)                  1.0147         0.425254   
      5. B(O   5,C   1)                  1.3408         0.670377   
      6. B(H   6,C   0)                  1.0921         0.357301   
      7. B(H   7,C   0)                  1.0915         0.358157   
      8. B(H   8,O   5)                  0.9705         0.500270   
      9. B(O   9,C   1)                  1.2014         1.118979   
     10. A(N   4,C   0,H   7)          108.7559         0.331164   
     11. A(C   1,C   0,H   7)          108.9452         0.325775   
     12. A(C   1,C   0,N   4)          111.6237         0.373775   
     13. A(H   6,C   0,H   7)          109.8887         0.290237   
     14. A(C   1,C   0,H   6)          109.2779         0.325647   
     15. A(N   4,C   0,H   6)          108.3350         0.331033   
     16. A(C   0,C   1,O   9)          125.8047         0.440372   
     17. A(C   0,C   1,O   5)          111.4949         0.401900   
     18. A(O   5,C   1,O   9)          122.5815         0.483861   
     19. A(C   0,N   4,H   3)          110.2382         0.337827   
     20. A(C   0,N   4,H   2)          110.3299         0.337810   
     21. A(H   2,N   4,H   3)          108.2703         0.301564   
     22. A(C   1,O   5,H   8)          110.6752         0.372642   
     23. D(O   5,C   1,C   0,N   4)    -74.0857         0.011096   
     24. D(O   9,C   1,C   0,N   4)    102.0129         0.011096   
     25. D(O   9,C   1,C   0,H   6)   -138.1764         0.011096   
     26. D(O   5,C   1,C   0,H   6)     45.7250         0.011096   
     27. D(O   5,C   1,C   0,H   7)    165.7979         0.011096   
     28. D(H   2,N   4,C   0,H   6)   -179.7920         0.016674   
     29. D(H   2,N   4,C   0,C   1)    -59.4270         0.016674   
     30. D(H   3,N   4,C   0,H   6)    -60.2589         0.016674   
     31. D(H   3,N   4,C   0,C   1)     60.1060         0.016674   
     32. D(H   2,N   4,C   0,H   7)     60.8005         0.016674   
     33. D(H   8,O   5,C   1,O   9)      0.6634         0.033388   
     34. D(H   8,O   5,C   1,C   0)    176.9085         0.033388   
    -----------------------------------------------------------------

Number of atoms                         .... 10
Number of degrees of freedom            .... 34


         *************************************************************
         *                GEOMETRY OPTIMIZATION CYCLE   1            *
         *************************************************************
---------------------------------
CARTESIAN COORDINATES (ANGSTROEM)
---------------------------------
  C     -5.169397   -1.391819   -0.276917
  C     -5.038082   -2.504742    0.751641
  H     -6.069155   -0.049418    0.971285
  H     -4.432142    0.096926    0.908423
  N     -5.263230   -0.085884    0.355657
  O     -3.813171   -2.528154    1.296505
  H     -4.291910   -1.396365   -0.927095
  H     -6.070858   -1.560731   -0.868651
  H     -3.757230   -3.210200    1.984666
  O     -5.919114   -3.239298    1.108713

----------------------------
CARTESIAN COORDINATES (A.U.)
----------------------------
  NO LB      ZA    FRAG     MASS         X           Y           Z
   0 C     6.0000    0    12.011   -9.768744   -2.630156   -0.523297
   1 C     6.0000    0    12.011   -9.520594   -4.733277    1.420396
   2 H     1.0000    0     1.008  -11.469041   -0.093387    1.835463
   3 H     1.0000    0     1.008   -8.375535    0.183164    1.716670
   4 N     7.0000    0    14.007   -9.946064   -0.162297    0.672095
   5 O     8.0000    0    15.999   -7.205848   -4.777518    2.450039
   6 H     1.0000    0     1.008   -8.110535   -2.638748   -1.751955
   7 H     1.0000    0     1.008  -11.472258   -2.949354   -1.641513
   8 H     1.0000    0     1.008   -7.100135   -6.066399    3.750475
   9 O     8.0000    0    15.999  -11.185505   -6.121386    2.095164

--------------------------------
INTERNAL COORDINATES (ANGSTROEM)
--------------------------------
 C      0   0   0     0.000000000000     0.00000000     0.00000000
 C      1   0   0     1.521109305235     0.00000000     0.00000000
 H      1   2   0     2.041963037423    96.06718912     0.00000000
 H      3   1   2     1.644743031156    66.20709281    93.00270378
 N      4   3   1     1.014729791057    35.86649902    38.85742923
 O      2   1   3     1.340832541747   111.49485798   262.11743696
 H      1   2   3     1.092123825934   109.27789589   143.60757919
 H      1   2   3     1.091472911767   108.94517310   263.68051091
 H      6   2   1     0.970506303402   110.67517839   176.90853282
 O      2   1   3     1.201370414786   125.80465026    78.21599275

---------------------------
INTERNAL COORDINATES (A.U.)
---------------------------
 C      0   0   0     0.000000000000     0.00000000     0.00000000
 C      1   0   0     2.874480006654     0.00000000     0.00000000
 H      1   2   0     3.858750916319    96.06718912     0.00000000
 H      3   1   2     3.108113889561    66.20709281    93.00270378
 N      4   3   1     1.917561405029    35.86649902    38.85742923
 O      2   1   3     2.533806295352   111.49485798   262.11743696
 H      1   2   3     2.063814935345   109.27789589   143.60757919
 H      1   2   3     2.062584885833   108.94517310   263.68051091
 H      6   2   1     1.833991124674   110.67517839   176.90853282
 O      2   1   3     2.270261069340   125.80465026    78.21599275

---------------------
BASIS SET INFORMATION
---------------------
There are 4 groups of distinct atoms

 Group   1 Type C   : 10s4p1d contracted to 3s2p1d pattern {631/31/1}
 Group   2 Type H   : 4s1p contracted to 2s1p pattern {31/1}
 Group   3 Type N   : 10s4p1d contracted to 3s2p1d pattern {631/31/1}
 Group   4 Type O   : 10s4p1d contracted to 3s2p1d pattern {631/31/1}

Atom   0C    basis set group =>   1
Atom   1C    basis set group =>   1
Atom   2H    basis set group =>   2
Atom   3H    basis set group =>   2
Atom   4N    basis set group =>   3
Atom   5O    basis set group =>   4
Atom   6H    basis set group =>   2
Atom   7H    basis set group =>   2
Atom   8H    basis set group =>   2
Atom   9O    basis set group =>   4
------------------------------------------------------------------------------
                             ORCA STARTUP CALCULATIONS
------------------------------------------------------------------------------
------------------------------------------------------------------------------
                   ___                                                        
                  /   \      - P O W E R E D   B Y -                         
                 /     \                                                     
                 |  |  |   _    _      __       _____    __    __             
                 |  |  |  | |  | |    /  \     |  _  \  |  |  /  |          
                  \  \/   | |  | |   /    \    | | | |  |  | /  /          
                 / \  \   | |__| |  /  /\  \   | |_| |  |  |/  /          
                |  |  |   |  __  | /  /__\  \  |    /   |      \           
                |  |  |   | |  | | |   __   |  |    \   |  |\   \          
                \     /   | |  | | |  |  |  |  | |\  \  |  | \   \       
                 \___/    |_|  |_| |__|  |__|  |_| \__\ |__|  \__/        
                                                                              
                      - O R C A' S   B I G   F R I E N D -                    
                                      &                                       
                       - I N T E G R A L  F E E D E R -                       
                                                                              
 v1 FN, 2020, v2 2021, v3 2022-2024                                           
------------------------------------------------------------------------------


----------------------
SHARK INTEGRAL PACKAGE
----------------------

Number of atoms                             ...     10
Number of basis functions                   ...     95
Number of shells                            ...     45
Maximum angular momentum                    ...      2
Integral batch strategy                     ... SHARK/LIBINT Hybrid
RI-J (if used) integral strategy            ... SPLIT-RIJ (Revised 2003 algorithm where possible)
Printlevel                                  ...      1
Contraction scheme used                     ... SEGMENTED contraction
Prescreening option                         ... SCHWARTZ
   Thresh                                   ... 2.500e-11
   Tcut                                     ... 2.500e-12
   Tpresel                                  ... 2.500e-12 
Coulomb Range Separation                    ... NOT USED
Exchange Range Separation                   ... NOT USED
Multipole approximations                    ... NOT USED
Finite Nucleus Model                        ... NOT USED
CABS basis                                  ... NOT available
Auxiliary Coulomb fitting basis             ... NOT available
Auxiliary J/K fitting basis                 ... NOT available
Auxiliary Correlation fitting basis         ... NOT available
Auxiliary 'external' fitting basis          ... NOT available

Checking pre-screening integrals            ... done (  0.0 sec) Dimension = 45
   => SHARK Basis and OBASIS are compatible. Storing Pre-screening
Shell pair information
Shell pair cut-off parameter TPreSel        ...   2.5e-12
Total number of shell pairs                 ...      1035
Shell pairs after pre-screening             ...      1014
Total number of primitive shell pairs       ...      5170
Primitive shell pairs kept                  ...      3765
          la=0 lb=0:    314 shell pairs
          la=1 lb=0:    367 shell pairs
          la=1 lb=1:    118 shell pairs
          la=2 lb=0:    125 shell pairs
          la=2 lb=1:     75 shell pairs
          la=2 lb=2:     15 shell pairs

Checking whether 4 symmetric matrices of dimension 95 fit in memory
:Max Core in MB      =   4096.00
 MB in use           =      2.64
 MB left             =   4093.36
 MB needed           =      0.14
 Data fit in memory  = YES
Calculating Nuclear repulsion               ... done (  0.0 sec) ENN=    180.274094865167 Eh

Diagonalization of the overlap matrix:
Smallest eigenvalue                        ... 5.375e-03
Time for diagonalization                   ...    0.001 sec
Threshold for overlap eigenvalues          ... 1.000e-07
Number of eigenvalues below threshold      ... 0
Time for construction of square roots      ...    0.000 sec
Total time needed                          ...    0.001 sec

-------------------
DFT GRID GENERATION
-------------------

General Integration Accuracy     IntAcc      ... 4.388
Radial Grid Type                 RadialGrid  ... OptM3 with GC (2021)
Angular Grid (max. ang.)         AngularGrid ... 4 (Lebedev-302)
Angular grid pruning method      GridPruning ... 4 (adaptive)
Weight generation scheme         WeightScheme... mBecke (2022)
Basis function cutoff            BFCut       ... 1.0000e-11
Integration weight cutoff        WCut        ... 1.0000e-14
Partially contracted basis set               ... off
Rotationally invariant grid construction     ... off
Angular grids for H and He will be reduced by one unit

Total number of grid points                  ...    46626
Total number of batches                      ...      734
Average number of points per batch           ...       63
Average number of grid points per atom       ...     4663
Grids setup in   0.1 sec
Initializing property integral containers    ... done (  0.0 sec)

SHARK setup successfully completed in   0.2 seconds

Maximum memory used throughout the entire STARTUP-calculation: 17.8 MB
-------------------------------------------------------------------------------
                                 ORCA GUESS
                   Start orbitals & Density for SCF / CASSCF
-------------------------------------------------------------------------------

------------
SCF SETTINGS
------------
Hamiltonian:
 Ab initio Hamiltonian  Method          .... Hartree-Fock(GTOs)


General Settings:
 Integral files         IntName         .... 2
 Hartree-Fock type      HFTyp           .... RHF
 Total Charge           Charge          ....    0
 Multiplicity           Mult            ....    1
 Number of Electrons    NEL             ....   40
 Basis Dimension        Dim             ....   95
 Nuclear Repulsion      ENuc            ....    180.2740948652 Eh

Convergence Acceleration:
 AO-DIIS                CNVDIIS         .... on
   Start iteration      DIISMaxIt       ....    12
   Startup error        DIISStart       ....  0.200000
   # of expansion vecs  DIISMaxEq       ....     5
   Bias factor          DIISBfac        ....   1.050
   Max. coefficient     DIISMaxC        ....  10.000
 MO-DIIS                CNVKDIIS        .... off
 Trust-Rad. Augm. Hess. CNVTRAH         .... auto
   Auto Start mean grad. ratio tolernc. ....  1.125000
   Auto Start start iteration           ....    50
   Auto Start num. interpolation iter.  ....    10
   Max. Number of Micro iterations      ....    24
   Max. Number of Macro iterations      .... Maxiter - #DIIS iter
   Number of Davidson start vectors     ....     2
   Converg. threshold    (grad. norm)   ....   1.000e-05
   Grad. Scal. Fac. for Micro threshold ....   0.100
   Minimum threshold for Micro iter.    ....   1.000e-02
   NR start threshold (gradient norm)   ....   1.000e-04
   Initial trust radius                 ....   0.400
   Minimum AH scaling param. (alpha)    ....   1.000
   Maximum AH scaling param. (alpha)    .... 1000.000
   Quad. conv. algorithm                .... NR
   White noise on init. David. guess    .... on
   Maximum white noise                  ....   0.010
   Pseudo random numbers                .... off
   Inactive MOs                         .... canonical
   Orbital update algorithm             .... Taylor
   Preconditioner                       .... Diag
   Full preconditioner red. dimension   ....   250
 SOSCF                 CNVSOSCF           .... on
   Start iteration     SOSCFMaxIt         ....   150
   Startup grad/error  SOSCFStart         ....  0.003300
   Hessian update      SOSCFHessUp        .... L-BFGS
   Autom. constraints  SOSCFAutoConstrain .... off
 Level Shifting         CNVShift        .... on
   Level shift para.    LevelShift      ....    0.2500
   Turn off err/grad.   ShiftErr        ....    0.0010
 Zerner damping         CNVZerner       .... off
 Static damping         CNVDamp         .... on
   Fraction old density DampFac         ....    0.7000
   Max. Damping (<1)    DampMax         ....    0.9800
   Min. Damping (>=0)   DampMin         ....    0.0000
   Turn off err/grad.   DampErr         ....    0.1000

SCF Procedure:
 Maximum # iterations   MaxIter         ....   125
 SCF integral mode      SCFMode         .... Direct
   Integral package                     .... SHARK and LIBINT hybrid scheme
 Reset frequency        DirectResetFreq ....    20
 Integral Threshold     Thresh          ....  2.500e-11 Eh
 Primitive CutOff       TCut            ....  2.500e-12 Eh

Convergence Tolerance:
 Convergence Check Mode ConvCheckMode   .... Total+1el-Energy
 Convergence forced     ConvForced      .... 1
 Energy Change          TolE            ....  1.000e-08 Eh
 1-El. energy change                    ....  1.000e-05 Eh
 Orbital Gradient       TolG            ....  1.000e-05
 Orbital Rotation angle TolX            ....  1.000e-05
 DIIS Error             TolErr          ....  5.000e-07

------------------------------
INITIAL GUESS: MODEL POTENTIAL
------------------------------
Loading Hartree-Fock densities                     ... done
Calculating cut-offs                               ... done
Initializing the effective Hamiltonian             ... done
Setting up the integral package (SHARK)            ... done
Starting the Coulomb interaction                   ... done (   0.0 sec)
Making the grid                                    ... done (   0.0 sec)
Mapping shells                                     ... done
Starting the XC term evaluation                    ... done (   0.0 sec)
Transforming the Hamiltonian                       ... done (   0.0 sec)
Diagonalizing the Hamiltonian                      ... done (   0.0 sec)
Back transforming the eigenvectors                 ... done (   0.0 sec)
Now organizing SCF variables                       ... done
                      ------------------
                      INITIAL GUESS DONE (   0.1 sec)
                      ------------------
             **** ENERGY FILE WAS UPDATED (2.en.tmp) ****
Finished Guess after   0.1 sec
Maximum memory used throughout the entire GUESS-calculation: 6.2 MB

-------------------------------------------------------------------------------------------
                                      ORCA LEAN-SCF
                              memory conserving SCF solver
-------------------------------------------------------------------------------------------

----------------------------------------D-I-I-S--------------------------------------------
Iteration    Energy (Eh)           Delta-E    RMSDP     MaxDP     DIISErr   Damp  Time(sec)
-------------------------------------------------------------------------------------------
               ***  Starting incremental Fock matrix formation  ***
    1    -282.6028263571423622     0.00e+00  3.62e-03  6.29e-02  2.60e-01  0.700   0.2
    2    -282.6900878691035359    -8.73e-02  2.63e-03  4.51e-02  1.62e-01  0.700   0.2
                               ***Turning on AO-DIIS***
    3    -282.7398222203024716    -4.97e-02  1.36e-03  2.17e-02  9.23e-02  0.700   0.2
    4    -282.7709597725488493    -3.11e-02  3.05e-03  4.61e-02  6.23e-02  0.000   0.2
    5    -282.8401748982571462    -6.92e-02  3.96e-04  4.45e-03  4.53e-03  0.000   0.2
                              *** Initializing SOSCF ***
---------------------------------------S-O-S-C-F--------------------------------------
Iteration    Energy (Eh)           Delta-E    RMSDP     MaxDP     MaxGrad    Time(sec)
--------------------------------------------------------------------------------------
    6    -282.8405063317715076    -3.31e-04  2.00e-04  1.95e-03  2.04e-03     0.2
               *** Restarting incremental Fock matrix formation ***
    7    -282.8405860393630746    -7.97e-05  1.26e-04  1.39e-03  1.63e-03     0.2
    8    -282.8406120054123676    -2.60e-05  1.49e-04  1.68e-03  5.45e-04     0.2
    9    -282.8406212044712902    -9.20e-06  2.76e-05  3.25e-04  3.16e-04     0.2
   10    -282.8406221468659396    -9.42e-07  8.32e-06  9.43e-05  7.25e-05     0.2
   11    -282.8406222241435444    -7.73e-08  4.14e-06  5.72e-05  1.91e-05     0.2
   12    -282.8406222358788682    -1.17e-08  8.50e-07  1.54e-05  8.11e-06     0.2
   13    -282.8406222367960936    -9.17e-10  1.99e-07  3.29e-06  1.11e-06     0.2
                 **** Energy Check signals convergence ****

               *****************************************************
               *                     SUCCESS                       *
               *           SCF CONVERGED AFTER  13 CYCLES          *
               *****************************************************

             **** ENERGY FILE WAS UPDATED (2.en.tmp) ****

----------------
TOTAL SCF ENERGY
----------------

Total Energy       :       -282.84062223688500 Eh           -7696.48461 eV

Components:
Nuclear Repulsion  :        180.27409486516743 Eh            4905.50751 eV
Electronic Energy  :       -463.11471710205245 Eh          -12601.99213 eV
One Electron Energy:       -744.20842838799638 Eh          -20250.94087 eV
Two Electron Energy:        281.09371128594393 Eh            7648.94875 eV

Virial components:
Potential Energy   :       -565.24618623636195 Eh          -15381.13069 eV
Kinetic Energy     :        282.40556399947695 Eh            7684.64608 eV
Virial Ratio       :          2.00154054414243

---------------
SCF CONVERGENCE
---------------

  Last Energy change         ...    9.1723e-10  Tolerance :   1.0000e-08
  Last MAX-Density change    ...    3.2868e-06  Tolerance :   1.0000e-07
  Last RMS-Density change    ...    1.9907e-07  Tolerance :   5.0000e-09
  Last DIIS Error            ...    2.0426e-03  Tolerance :   5.0000e-07
  Last Orbital Gradient      ...    1.1057e-06  Tolerance :   1.0000e-05
  Last Orbital Rotation      ...    1.6059e-06  Tolerance :   1.0000e-05


----------------
ORBITAL ENERGIES
----------------

  NO   OCC          E(Eh)            E(eV) 
   0   2.0000     -20.620112      -561.1018 
   1   2.0000     -20.556351      -559.3668 
   2   2.0000     -15.561453      -423.4487 
   3   2.0000     -11.385647      -309.8192 
   4   2.0000     -11.273829      -306.7765 
   5   2.0000      -1.470419       -40.0121 
   6   2.0000      -1.364041       -37.1174 
   7   2.0000      -1.199054       -32.6279 
   8   2.0000      -0.968549       -26.3555 
   9   2.0000      -0.829814       -22.5804 
  10   2.0000      -0.711591       -19.3634 
  11   2.0000      -0.693559       -18.8727 
  12   2.0000      -0.672593       -18.3022 
  13   2.0000      -0.643153       -17.5011 
  14   2.0000      -0.590099       -16.0574 
  15   2.0000      -0.572789       -15.5864 
  16   2.0000      -0.543155       -14.7800 
  17   2.0000      -0.482867       -13.1395 
  18   2.0000      -0.473059       -12.8726 
  19   2.0000      -0.398369       -10.8402 
  20   0.0000       0.176292         4.7971 
  21   0.0000       0.214650         5.8409 
  22   0.0000       0.249933         6.8010 
  23   0.0000       0.282379         7.6839 
  24   0.0000       0.288074         7.8389 
  25   0.0000       0.328014         8.9257 
  26   0.0000       0.398919        10.8551 
  27   0.0000       0.432978        11.7819 
  28   0.0000       0.500117        13.6089 
  29   0.0000       0.532205        14.4820 
  30   0.0000       0.754092        20.5199 
*Only the first 10 virtual orbitals were printed.

                    ********************************
                    * MULLIKEN POPULATION ANALYSIS *
                    ********************************

-----------------------
MULLIKEN ATOMIC CHARGES
-----------------------
   0 C :   -0.090389
   1 C :    0.753908
   2 H :    0.278447
   3 H :    0.281907
   4 N :   -0.699096
   5 O :   -0.637836
   6 H :    0.152503
   7 H :    0.163784
   8 H :    0.372506
   9 O :   -0.575734
Sum of atomic charges:   -0.0000000

--------------------------------
MULLIKEN REDUCED ORBITAL CHARGES
--------------------------------
  0 C s       :     3.223366  s :     3.223366
      pz      :     0.911059  p :     2.803631
      px      :     1.119791
      py      :     0.772781
      dz2     :     0.005083  d :     0.063393
      dxz     :     0.013605
      dyz     :     0.020617
      dx2y2   :     0.019360
      dxy     :     0.004728

  1 C s       :     2.965273  s :     2.965273
      pz      :     0.741779  p :     2.134411
      px      :     0.625704
      py      :     0.766928
      dz2     :     0.016920  d :     0.146408
      dxz     :     0.034557
      dyz     :     0.020023
      dx2y2   :     0.046204
      dxy     :     0.028705

  2 H s       :     0.695379  s :     0.695379
      pz      :     0.008989  p :     0.026174
      px      :     0.011930
      py      :     0.005254

  3 H s       :     0.691904  s :     0.691904
      pz      :     0.008253  p :     0.026189
      px      :     0.012012
      py      :     0.005925

  4 N s       :     3.610850  s :     3.610850
      pz      :     1.458870  p :     4.053484
      px      :     1.193371
      py      :     1.401244
      dz2     :     0.002492  d :     0.034762
      dxz     :     0.015578
      dyz     :     0.003540
      dx2y2   :     0.011129
      dxy     :     0.002024

  5 O s       :     3.830707  s :     3.830707
      pz      :     1.571270  p :     4.782070
      px      :     1.535817
      py      :     1.674984
      dz2     :     0.002344  d :     0.025059
      dxz     :     0.004694
      dyz     :     0.005743
      dx2y2   :     0.009058
      dxy     :     0.003220

  6 H s       :     0.835118  s :     0.835118
      pz      :     0.004409  p :     0.012379
      px      :     0.006687
      py      :     0.001283

  7 H s       :     0.823941  s :     0.823941
      pz      :     0.003855  p :     0.012275
      px      :     0.007085
      py      :     0.001335

  8 H s       :     0.585972  s :     0.585972
      pz      :     0.017762  p :     0.041522
      px      :     0.006309
      py      :     0.017451

  9 O s       :     3.870586  s :     3.870586
      pz      :     1.619256  p :     4.672297
      px      :     1.560881
      py      :     1.492160
      dz2     :     0.004226  d :     0.032852
      dxz     :     0.007275
      dyz     :     0.003387
      dx2y2   :     0.008974
      dxy     :     0.008990



                     *******************************
                     * LOEWDIN POPULATION ANALYSIS *
                     *******************************

----------------------
LOEWDIN ATOMIC CHARGES
----------------------
   0 C :   -0.052350
   1 C :    0.222620
   2 H :    0.132436
   3 H :    0.133117
   4 N :   -0.281669
   5 O :   -0.218574
   6 H :    0.081851
   7 H :    0.084965
   8 H :    0.200432
   9 O :   -0.302829

-------------------------------
LOEWDIN REDUCED ORBITAL CHARGES
-------------------------------
  0 C s       :     2.887647  s :     2.887647
      pz      :     1.011547  p :     3.042547
      px      :     1.097462
      py      :     0.933537
      dz2     :     0.010253  d :     0.122157
      dxz     :     0.023322
      dyz     :     0.042477
      dx2y2   :     0.037133
      dxy     :     0.008971

  1 C s       :     2.850601  s :     2.850601
      pz      :     0.840768  p :     2.611211
      px      :     0.887843
      py      :     0.882600
      dz2     :     0.036928  d :     0.315568
      dxz     :     0.072546
      dyz     :     0.040476
      dx2y2   :     0.102411
      dxy     :     0.063207

  2 H s       :     0.785833  s :     0.785833
      pz      :     0.029252  p :     0.081731
      px      :     0.034886
      py      :     0.017592

  3 H s       :     0.784912  s :     0.784912
      pz      :     0.026849  p :     0.081970
      px      :     0.035747
      py      :     0.019374

  4 N s       :     3.191769  s :     3.191769
      pz      :     1.440078  p :     4.028948
      px      :     1.180719
      py      :     1.408152
      dz2     :     0.003819  d :     0.060952
      dxz     :     0.023535
      dyz     :     0.007769
      dx2y2   :     0.019810
      dxy     :     0.006019

  5 O s       :     3.460316  s :     3.460316
      pz      :     1.538607  p :     4.710597
      px      :     1.539043
      py      :     1.632947
      dz2     :     0.004777  d :     0.047661
      dxz     :     0.011048
      dyz     :     0.010324
      dx2y2   :     0.015267
      dxy     :     0.006246

  6 H s       :     0.878548  s :     0.878548
      pz      :     0.014465  p :     0.039600
      px      :     0.020164
      py      :     0.004971

  7 H s       :     0.875600  s :     0.875600
      pz      :     0.012890  p :     0.039435
      px      :     0.021585
      py      :     0.004960

  8 H s       :     0.679072  s :     0.679072
      pz      :     0.050048  p :     0.120496
      px      :     0.020220
      py      :     0.050228

  9 O s       :     3.548770  s :     3.548770
      pz      :     1.599338  p :     4.696472
      px      :     1.587836
      py      :     1.509298
      dz2     :     0.007199  d :     0.057586
      dxz     :     0.011059
      dyz     :     0.007061
      dx2y2   :     0.012958
      dxy     :     0.019309



                      *****************************
                      * MAYER POPULATION ANALYSIS *
                      *****************************

  NA   - Mulliken gross atomic population
  ZA   - Total nuclear charge
  QA   - Mulliken gross atomic charge
  VA   - Mayer's total valence
  BVA  - Mayer's bonded valence
  FA   - Mayer's free valence

  ATOM       NA         ZA         QA         VA         BVA        FA
  0 C      6.0904     6.0000    -0.0904     3.7506     3.7506    -0.0000
  1 C      5.2461     6.0000     0.7539     3.7027     3.7027    -0.0000
  2 H      0.7216     1.0000     0.2784     0.9005     0.9005     0.0000
  3 H      0.7181     1.0000     0.2819     0.9007     0.9007     0.0000
  4 N      7.6991     7.0000    -0.6991     2.7583     2.7583    -0.0000
  5 O      8.6378     8.0000    -0.6378     1.8235     1.8235    -0.0000
  6 H      0.8475     1.0000     0.1525     0.9426     0.9426     0.0000
  7 H      0.8362     1.0000     0.1638     0.9424     0.9424     0.0000
  8 H      0.6275     1.0000     0.3725     0.8716     0.8716    -0.0000
  9 O      8.5757     8.0000    -0.5757     1.9038     1.9038    -0.0000

  Mayer bond orders larger than 0.100000
B(  0-C ,  1-C ) :   0.9097 B(  0-C ,  4-N ) :   0.9534 B(  0-C ,  6-H ) :   0.9586 
B(  0-C ,  7-H ) :   0.9662 B(  1-C ,  5-O ) :   0.9747 B(  1-C ,  9-O ) :   1.8394 
B(  2-H ,  4-N ) :   0.9049 B(  3-H ,  4-N ) :   0.9021 B(  5-O ,  8-H ) :   0.8405 


-------
TIMINGS
-------

Total SCF time: 0 days 0 hours 0 min 3 sec 

Total time                  ....       3.002 sec
Sum of individual times     ....       2.837 sec  ( 94.5%)

SCF preparation             ....       0.013 sec  (  0.4%)
Fock matrix formation       ....       2.808 sec  ( 93.5%)
  Startup                   ....       0.000 sec  (  0.0% of F)
  Coulomb+Exchange Fock     ....       2.964 sec  (105.6% of F)
Diagonalization             ....       0.000 sec  (  0.0%)
Density matrix formation    ....       0.002 sec  (  0.1%)
Total Energy calculation    ....       0.000 sec  (  0.0%)
Population analysis         ....       0.001 sec  (  0.0%)
Orbital Transformation      ....       0.002 sec  (  0.1%)
Orbital Orthonormalization  ....       0.000 sec  (  0.0%)
DIIS solution               ....       0.007 sec  (  0.2%)
SOSCF solution              ....       0.004 sec  (  0.1%)
Finished LeanSCF after   3.0 sec

Maximum memory used throughout the entire LEANSCF-calculation: 9.3 MB

------------------------------------------------------------------------------
                                ORCA  MP2 
------------------------------------------------------------------------------

Freezing NCore=10 chemical core electrons
MP2 will be done in the AO integral direct mode
The Q1-step will be done using symmetric double matrices
Dimension of the basis                    ...   95
Memory devoted for MP2                    ... 4096 MB   
Memory needed for all in one shot         ...   51 MB
Number of MOs that can be treated together... 1238      
MP2 density construction                  ... relaxed
The MP2 gradient is requested => amplitudes will be stored on disk
Total number of MOs              ...   15
Number of MOs treated per batch  ...   15 
Number of batches necessary      ...    1 
OPERATORS   0/  0 PASS   0
-----------------------------------------------
 MP2 CORRELATION ENERGY   :     -0.789760392 Eh
-----------------------------------------------


---------------------
MP2 DENSITY FORMATION
---------------------

Completing the external part of the density      ... done
Storing the unrelaxed density                    ... done

Calculating G(D)                                 ... done
Completing the Lagrangian                        ... done
Solving the Z-vector equations                   ... 
-------------------
SHARK CP-SCF DRIVER
-------------------

Dimension of the orbital basis          ...     95
Dimension of the CPSCF-problem          ...   1500
Number of operators                     ...      1
Max. number of iterations               ...    128
Convergence Tolerance                   ... 1.0e-04
Number of perturbations                 ...      1
Perturbation type                       ... REAL

----------------------------
POPLE LINEAR EQUATION SOLVER
----------------------------

  ITERATION   0:   ||err||_max =   1.1025e-01 (   0.3 sec)
  ITERATION   1:   ||err||_max =   2.8468e-02 (   0.3 sec)
  ITERATION   2:   ||err||_max =   1.2354e-02 (   0.3 sec)
  ITERATION   3:   ||err||_max =   3.1289e-03 (   0.3 sec)
  ITERATION   4:   ||err||_max =   1.1579e-03 (   0.3 sec)
  ITERATION   5:   ||err||_max =   3.5116e-04 (   0.3 sec)
  ITERATION   6:   ||err||_max =   1.3748e-04 (   0.3 sec)
  ITERATION   7:   ||err||_max =   5.0867e-05 (   0.3 sec)
                                                 ... done
Finalizing the relaxed density                   ... done
Transforming P to the AO basis                   ... done
Storing the relaxed density                      ... done

------------------------------------
ENERGY WEIGHTED DENSITY FINALIZATION
------------------------------------

Gathering the parts of the W-matrix              ...                                                      done
Forming the Z-density                            ... done
Transforming Z to the AO basis                   ... done
Calculating G(Z)                                 ... done
Finalizing the W-matrix                          ...                                                      done
Transforming W to the AO basis and storing       ... done

                *********************************************
                * UNRELAXED MP2 DENSITY POPULATION ANALYSIS *
                *********************************************

------------------------------------------------------------------------------
                           ORCA POPULATION ANALYSIS
------------------------------------------------------------------------------
Input electron density              ... 2.pmp2ur
BaseName (.gbw .S,...)              ... 2

                    ********************************
                    * MULLIKEN POPULATION ANALYSIS *
                    ********************************

-----------------------
MULLIKEN ATOMIC CHARGES
-----------------------
   0 C :   -0.095700
   1 C :    0.721378
   2 H :    0.277270
   3 H :    0.280601
   4 N :   -0.692228
   5 O :   -0.624675
   6 H :    0.153195
   7 H :    0.164488
   8 H :    0.369359
   9 O :   -0.553687
Sum of atomic charges:    0.0000000

--------------------------------
MULLIKEN REDUCED ORBITAL CHARGES
--------------------------------
  0 C s       :     3.220647  s :     3.220647
      pz      :     0.909297  p :     2.796839
      px      :     1.114937
      py      :     0.772605
      dz2     :     0.008513  d :     0.078213
      dxz     :     0.016554
      dyz     :     0.022980
      dx2y2   :     0.022077
      dxy     :     0.008090
  1 C s       :     2.966784  s :     2.966784
      pz      :     0.749892  p :     2.155054
      px      :     0.632194
      py      :     0.772969
      dz2     :     0.019361  d :     0.156784
      dxz     :     0.036408
      dyz     :     0.022082
      dx2y2   :     0.048092
      dxy     :     0.030841
  2 H s       :     0.694558  s :     0.694558
      pz      :     0.009694  p :     0.028172
      px      :     0.012353
      py      :     0.006125
  3 H s       :     0.691222  s :     0.691222
      pz      :     0.008989  p :     0.028177
      px      :     0.012423
      py      :     0.006765
  4 N s       :     3.606263  s :     3.606263
      pz      :     1.449695  p :     4.029609
      px      :     1.188057
      py      :     1.391856
      dz2     :     0.007076  d :     0.056357
      dxz     :     0.019607
      dyz     :     0.008069
      dx2y2   :     0.015127
      dxy     :     0.006478
  5 O s       :     3.826569  s :     3.826569
      pz      :     1.560876  p :     4.750126
      px      :     1.525477
      py      :     1.663774
      dz2     :     0.007037  d :     0.047980
      dxz     :     0.009266
      dyz     :     0.010324
      dx2y2   :     0.013437
      dxy     :     0.007916
  6 H s       :     0.831779  s :     0.831779
      pz      :     0.005281  p :     0.015026
      px      :     0.007418
      py      :     0.002328
  7 H s       :     0.820619  s :     0.820619
      pz      :     0.004744  p :     0.014893
      px      :     0.007782
      py      :     0.002367
  8 H s       :     0.587970  s :     0.587970
      pz      :     0.018005  p :     0.042671
      px      :     0.006922
      py      :     0.017744
  9 O s       :     3.866170  s :     3.866170
      pz      :     1.604603  p :     4.633264
      px      :     1.549558
      py      :     1.479103
      dz2     :     0.008547  d :     0.054253
      dxz     :     0.011543
      dyz     :     0.007739
      dx2y2   :     0.013409
      dxy     :     0.013015


                     *******************************
                     * LOEWDIN POPULATION ANALYSIS *
                     *******************************

----------------------
LOEWDIN ATOMIC CHARGES
----------------------
   0 C :   -0.055341
   1 C :    0.198733
   2 H :    0.131826
   3 H :    0.132444
   4 N :   -0.277855
   5 O :   -0.210205
   6 H :    0.081983
   7 H :    0.085191
   8 H :    0.198125
   9 O :   -0.284902

-------------------------------
LOEWDIN REDUCED ORBITAL CHARGES
-------------------------------
  0 C s       :     2.887531  s :     2.887531
      pz      :     1.007208  p :     3.028875
      px      :     1.091478
      py      :     0.930189
      dz2     :     0.013751  d :     0.138935
      dxz     :     0.026897
      dyz     :     0.045284
      dx2y2   :     0.040555
      dxy     :     0.012448
  1 C s       :     2.851383  s :     2.851383
      pz      :     0.846486  p :     2.623106
      px      :     0.890094
      py      :     0.886526
      dz2     :     0.039534  d :     0.326778
      dxz     :     0.074393
      dyz     :     0.043053
      dx2y2   :     0.103857
      dxy     :     0.065942
  2 H s       :     0.782812  s :     0.782812
      pz      :     0.030571  p :     0.085362
      px      :     0.036262
      py      :     0.018529
  3 H s       :     0.781978  s :     0.781978
      pz      :     0.028095  p :     0.085579
      px      :     0.037178
      py      :     0.020307
  4 N s       :     3.189821  s :     3.189821
      pz      :     1.430571  p :     4.003774
      px      :     1.174742
      py      :     1.398461
      dz2     :     0.008404  d :     0.084260
      dxz     :     0.028296
      dyz     :     0.012692
      dx2y2   :     0.024442
      dxy     :     0.010427
  5 O s       :     3.458371  s :     3.458371
      pz      :     1.528444  p :     4.679823
      px      :     1.529323
      py      :     1.622057
      dz2     :     0.009485  d :     0.072011
      dxz     :     0.015971
      dyz     :     0.015354
      dx2y2   :     0.020267
      dxy     :     0.010934
  6 H s       :     0.873943  s :     0.873943
      pz      :     0.015970  p :     0.044074
      px      :     0.021838
      py      :     0.006265
  7 H s       :     0.870967  s :     0.870967
      pz      :     0.014333  p :     0.043842
      px      :     0.023260
      py      :     0.006249
  8 H s       :     0.678934  s :     0.678934
      pz      :     0.050874  p :     0.122941
      px      :     0.020944
      py      :     0.051124
  9 O s       :     3.545748  s :     3.545748
      pz      :     1.585147  p :     4.657657
      px      :     1.576242
      py      :     1.496268
      dz2     :     0.011851  d :     0.081497
      dxz     :     0.015812
      dyz     :     0.011651
      dx2y2   :     0.017720
      dxy     :     0.024463


                      *****************************
                      * MAYER POPULATION ANALYSIS *
                      *****************************

  NA   - Mulliken gross atomic population
  ZA   - Total nuclear charge
  QA   - Mulliken gross atomic charge
  VA   - Mayer's total valence
  BVA  - Mayer's bonded valence
  FA   - Mayer's free valence

  ATOM       NA         ZA         QA         VA         BVA        FA
  0 C      6.0957     6.0000    -0.0957     3.8294     3.5764     0.2530
  1 C      5.2786     6.0000     0.7214     3.7672     3.4792     0.2880
  2 H      0.7227     1.0000     0.2773     0.9075     0.8627     0.0448
  3 H      0.7194     1.0000     0.2806     0.9078     0.8631     0.0446
  4 N      7.6922     7.0000    -0.6922     2.9523     2.6280     0.3243
  5 O      8.6247     8.0000    -0.6247     2.0821     1.7270     0.3551
  6 H      0.8468     1.0000     0.1532     0.9509     0.9053     0.0456
  7 H      0.8355     1.0000     0.1645     0.9505     0.9059     0.0446
  8 H      0.6306     1.0000     0.3694     0.8784     0.8346     0.0438
  9 O      8.5537     8.0000    -0.5537     2.1666     1.7707     0.3959

  Mayer bond orders larger than 0.100000
B(  0-C ,  1-C ) :   0.8632 B(  0-C ,  4-N ) :   0.9001 B(  0-C ,  6-H ) :   0.9230 
B(  0-C ,  7-H ) :   0.9310 B(  1-C ,  5-O ) :   0.9219 B(  1-C ,  9-O ) :   1.7193 
B(  2-H ,  4-N ) :   0.8684 B(  3-H ,  4-N ) :   0.8659 B(  5-O ,  8-H ) :   0.8058 



                *******************************************
                * RELAXED MP2 DENSITY POPULATION ANALYSIS *
                *******************************************

------------------------------------------------------------------------------
                           ORCA POPULATION ANALYSIS
------------------------------------------------------------------------------
Input electron density              ... 2.pmp2re
BaseName (.gbw .S,...)              ... 2

                    ********************************
                    * MULLIKEN POPULATION ANALYSIS *
                    ********************************

-----------------------
MULLIKEN ATOMIC CHARGES
-----------------------
   0 C :   -0.120487
   1 C :    0.543012
   2 H :    0.261465
   3 H :    0.264631
   4 N :   -0.627769
   5 O :   -0.529164
   6 H :    0.142319
   7 H :    0.150296
   8 H :    0.343721
   9 O :   -0.428025
Sum of atomic charges:    0.0000000

--------------------------------
MULLIKEN REDUCED ORBITAL CHARGES
--------------------------------
  0 C s       :     3.205992  s :     3.205992
      pz      :     0.931617  p :     2.842451
      px      :     1.104686
      py      :     0.806147
      dz2     :     0.008816  d :     0.072044
      dxz     :     0.015134
      dyz     :     0.019816
      dx2y2   :     0.020094
      dxy     :     0.008184
  1 C s       :     2.985879  s :     2.985879
      pz      :     0.817652  p :     2.323816
      px      :     0.684425
      py      :     0.821739
      dz2     :     0.018503  d :     0.147292
      dxz     :     0.033934
      dyz     :     0.020241
      dx2y2   :     0.045276
      dxy     :     0.029338
  2 H s       :     0.711523  s :     0.711523
      pz      :     0.009330  p :     0.027012
      px      :     0.011238
      py      :     0.006444
  3 H s       :     0.708381  s :     0.708381
      pz      :     0.008767  p :     0.026988
      px      :     0.011255
      py      :     0.006966
  4 N s       :     3.586505  s :     3.586505
      pz      :     1.429283  p :     3.987866
      px      :     1.173750
      py      :     1.384833
      dz2     :     0.007111  d :     0.053398
      dxz     :     0.018359
      dyz     :     0.007827
      dx2y2   :     0.013457
      dxy     :     0.006644
  5 O s       :     3.810132  s :     3.810132
      pz      :     1.528819  p :     4.672536
      px      :     1.513934
      py      :     1.629783
      dz2     :     0.007015  d :     0.046496
      dxz     :     0.008908
      dyz     :     0.010072
      dx2y2   :     0.012218
      dxy     :     0.008283
  6 H s       :     0.843533  s :     0.843533
      pz      :     0.004969  p :     0.014148
      px      :     0.006672
      py      :     0.002507
  7 H s       :     0.835749  s :     0.835749
      pz      :     0.004525  p :     0.013955
      px      :     0.006919
      py      :     0.002511
  8 H s       :     0.615419  s :     0.615419
      pz      :     0.016817  p :     0.040860
      px      :     0.007396
      py      :     0.016647
  9 O s       :     3.841982  s :     3.841982
      pz      :     1.558972  p :     4.534636
      px      :     1.530940
      py      :     1.444723
      dz2     :     0.008133  d :     0.051407
      dxz     :     0.010649
      dyz     :     0.007795
      dx2y2   :     0.012951
      dxy     :     0.011879


                     *******************************
                     * LOEWDIN POPULATION ANALYSIS *
                     *******************************

----------------------
LOEWDIN ATOMIC CHARGES
----------------------
   0 C :   -0.079386
   1 C :    0.119464
   2 H :    0.130001
   3 H :    0.130595
   4 N :   -0.265023
   5 O :   -0.176101
   6 H :    0.082587
   7 H :    0.085012
   8 H :    0.188314
   9 O :   -0.215464

-------------------------------
LOEWDIN REDUCED ORBITAL CHARGES
-------------------------------
  0 C s       :     2.891068  s :     2.891068
      pz      :     1.018718  p :     3.055865
      px      :     1.094750
      py      :     0.942397
      dz2     :     0.014237  d :     0.132453
      dxz     :     0.025563
      dyz     :     0.041496
      dx2y2   :     0.038624
      dxy     :     0.012534
  1 C s       :     2.854729  s :     2.854729
      pz      :     0.888833  p :     2.705797
      px      :     0.902294
      py      :     0.914669
      dz2     :     0.038692  d :     0.320010
      dxz     :     0.072498
      dyz     :     0.041465
      dx2y2   :     0.101910
      dxy     :     0.065445
  2 H s       :     0.785983  s :     0.785983
      pz      :     0.030280  p :     0.084016
      px      :     0.034973
      py      :     0.018764
  3 H s       :     0.785213  s :     0.785213
      pz      :     0.027869  p :     0.084192
      px      :     0.035973
      py      :     0.020350
  4 N s       :     3.189948  s :     3.189948
      pz      :     1.424262  p :     3.993017
      px      :     1.175046
      py      :     1.393709
      dz2     :     0.008580  d :     0.082057
      dxz     :     0.027422
      dyz     :     0.012437
      dx2y2   :     0.023108
      dxy     :     0.010511
  5 O s       :     3.463642  s :     3.463642
      pz      :     1.509918  p :     4.639675
      px      :     1.528575
      py      :     1.601182
      dz2     :     0.009807  d :     0.072784
      dxz     :     0.016063
      dyz     :     0.015534
      dx2y2   :     0.019875
      dxy     :     0.011504
  6 H s       :     0.873687  s :     0.873687
      pz      :     0.015802  p :     0.043726
      px      :     0.021268
      py      :     0.006657
  7 H s       :     0.871676  s :     0.871676
      pz      :     0.014222  p :     0.043312
      px      :     0.022492
      py      :     0.006598
  8 H s       :     0.690879  s :     0.690879
      pz      :     0.049513  p :     0.120807
      px      :     0.021427
      py      :     0.049867
  9 O s       :     3.547729  s :     3.547729
      pz      :     1.551338  p :     4.586682
      px      :     1.564960
      py      :     1.470384
      dz2     :     0.011768  d :     0.081054
      dxz     :     0.015630
      dyz     :     0.011934
      dx2y2   :     0.018126
      dxy     :     0.023597


                      *****************************
                      * MAYER POPULATION ANALYSIS *
                      *****************************

  NA   - Mulliken gross atomic population
  ZA   - Total nuclear charge
  QA   - Mulliken gross atomic charge
  VA   - Mayer's total valence
  BVA  - Mayer's bonded valence
  FA   - Mayer's free valence

  ATOM       NA         ZA         QA         VA         BVA        FA
  0 C      6.1205     6.0000    -0.1205     3.8803     3.6297     0.2505
  1 C      5.4570     6.0000     0.5430     3.9752     3.7048     0.2705
  2 H      0.7385     1.0000     0.2615     0.9156     0.8707     0.0449
  3 H      0.7354     1.0000     0.2646     0.9175     0.8728     0.0447
  4 N      7.6278     7.0000    -0.6278     3.0216     2.7018     0.3198
  5 O      8.5292     8.0000    -0.5292     2.1934     1.8463     0.3471
  6 H      0.8577     1.0000     0.1423     0.9548     0.9092     0.0455
  7 H      0.8497     1.0000     0.1503     0.9558     0.9111     0.0447
  8 H      0.6563     1.0000     0.3437     0.8998     0.8571     0.0427
  9 O      8.4280     8.0000    -0.4280     2.3211     1.9398     0.3813

  Mayer bond orders larger than 0.100000
B(  0-C ,  1-C ) :   0.8730 B(  0-C ,  4-N ) :   0.9381 B(  0-C ,  6-H ) :   0.9159 
B(  0-C ,  7-H ) :   0.9255 B(  1-C ,  5-O ) :   0.9965 B(  1-C ,  9-O ) :   1.8365 
B(  2-H ,  4-N ) :   0.8733 B(  3-H ,  4-N ) :   0.8705 B(  5-O ,  8-H ) :   0.8128 



----------------------------------
MP2 DERIVATIVE INTEGRAL GENERATION
----------------------------------

Input SCF Electron Density              ... 2.scfp
Input Correlated Electron Density       ... 2.pmp2re
Input Energy Weighted Density           ... 2.wmp2.tmp
Input Wavefunction Amplitudes           ... 2.mp2tsaa.tmp

Nuclear repulsion gradient              ... done (  0.0 sec)
HCore & Overlap gradient  (SHARK)       ... done (  0.0 sec)
Analytic two-electron gradient terms    ... 
  Batch handling in the gradient evaluation:
  General contraction                   ... not used
  Memory available                      ... 4091.3 MB
  Memory per occupied orbital in Q2     ...    1.0 MB
  Memory per occupied orbital in Q3     ...    0.0 MB
  Total memory requirement per |i>      ...    1.1 MB
  Number of orbitals treated per batch  ...     15
  Number of batches to be done          ...      1
done (  1.6 sec)

---------------------------------------
MP2 TOTAL ENERGY:     -283.630382629 Eh
---------------------------------------

The final MP2 gradient
  0:  -0.00321324   0.00279087  -0.00269089
  1:  -0.00484728  -0.01202824   0.01396428
  2:  -0.00197941   0.00049673  -0.00028355
  3:   0.00210627   0.00103601  -0.00045792
  4:   0.00010249  -0.00819913  -0.00006491
  5:  -0.02624127  -0.00797693  -0.00302700
  6:   0.00250106   0.00073405   0.00055107
  7:  -0.00305991   0.00229775  -0.00142892
  8:   0.00729255   0.00043182   0.00186548
  9:   0.02733875   0.02041707  -0.00842764

-----------------------------------
NORM OF THE MP2 GRADIENT:  0.050429
-----------------------------------

Maximum memory used throughout the entire MP2-calculation: 63.1 MB

-------------------------   --------------------
FINAL SINGLE POINT ENERGY      -283.630382629108
-------------------------   --------------------

------------------------------------------------------------------------------
                         ORCA GEOMETRY RELAXATION STEP
------------------------------------------------------------------------------

Reading the OPT-File                    .... done
Getting information on internals        .... done
Copying old internal coords+grads       .... done
Making the new internal coordinates     .... (2022 redundants) done
Validating the new internal coordinates .... (2022 redundants) done
Calculating the B-matrix                .... done
Calculating the G,G- and P matrices     .... done
Transforming gradient to internals      .... done
Projecting the internal gradient        .... done
Number of atoms                         ....  10
Number of internal coordinates          ....  34
Current Energy                          ....  -283.630382629 Eh
Current gradient norm                   ....     0.050428696 Eh/bohr
Maximum allowed component of the step   ....  0.300
Current trust radius                    ....  0.300
Evaluating the initial hessian          ....  (Almloef) done
Projecting the Hessian                  .... done
Forming the augmented Hessian           .... done
Diagonalizing the augmented Hessian     .... done
Last element of RFO vector              ....  0.996698625
Lowest eigenvalues of augmented Hessian:
 -0.002655665  0.011105385  0.016675352  0.017611069  0.033400707
Length of the computed step             ....  0.081459138
The final length of the internal step   ....  0.081459138
Converting the step to Cartesian space:
 Initial RMS(Int)=    0.0139701270
Transforming coordinates:
 Iter   0:  RMS(Cart)=    0.0152721331 RMS(Int)=    0.0139480418
done
Storing new coordinates                 .... done

                                .--------------------.
          ----------------------|Geometry convergence|-------------------------
          Item                value                   Tolerance       Converged
          ---------------------------------------------------------------------
          RMS gradient        0.0075147242            0.0001000000      NO
          MAX gradient        0.0350375388            0.0003000000      NO
          RMS step            0.0139701270            0.0020000000      NO
          MAX step            0.0360622149            0.0040000000      NO
          -------------------------------------------------------------------------
          ........................................................
          Max(Bonds)      0.0165      Max(Angles)    2.07
          Max(Dihed)        1.54      Max(Improp)    0.00
          ---------------------------------------------------------------------

The optimization has not yet converged - more geometry cycles are needed


    ---------------------------------------------------------------------------
                         Redundant Internal Coordinates
                            (Angstroem and degrees)

        Definition                    Value    dE/dq     Step     New-Value
    ----------------------------------------------------------------------------
     1. B(C   1,C   0)                1.5211  0.002647 -0.0036    1.5175   
     2. B(N   4,H   2)                1.0148  0.001418 -0.0018    1.0131   
     3. B(N   4,C   0)                1.4541 -0.006353  0.0076    1.4617   
     4. B(N   4,H   3)                1.0147  0.001662 -0.0021    1.0127   
     5. B(O   5,C   1)                1.3408 -0.017651  0.0139    1.3547   
     6. B(H   6,C   0)                1.0921  0.001678 -0.0025    1.0897   
     7. B(H   7,C   0)                1.0915  0.002946 -0.0043    1.0872   
     8. B(H   8,O   5)                0.9705  0.001440 -0.0015    0.9690   
     9. B(O   9,C   1)                1.2014 -0.035038  0.0165    1.2179   
    10. A(N   4,C   0,H   7)          108.76 -0.001655    0.33    109.09   
    11. A(C   1,C   0,H   7)          108.95  0.003938   -0.82    108.13   
    12. A(C   1,C   0,N   4)          111.62 -0.004161    0.83    112.45   
    13. A(H   6,C   0,H   7)          109.89  0.000652   -0.54    109.35   
    14. A(C   1,C   0,H   6)          109.28  0.000739    0.01    109.29   
    15. A(N   4,C   0,H   6)          108.34  0.000485    0.17    108.51   
    16. A(C   0,C   1,O   9)          125.80 -0.000014    0.03    125.84   
    17. A(C   0,C   1,O   5)          111.49  0.006324   -0.86    110.64   
    18. A(O   5,C   1,O   9)          122.58 -0.006244    0.77    123.35   
    19. A(C   0,N   4,H   3)          110.24  0.000571   -0.27    109.96   
    20. A(C   0,N   4,H   2)          110.33  0.000443   -0.25    110.08   
    21. A(H   2,N   4,H   3)          108.27  0.001036   -0.58    107.69   
    22. A(C   1,O   5,H   8)          110.68  0.013534   -2.07    108.61   
    23. D(O   5,C   1,C   0,N   4)    -74.09 -0.000308    0.79    -73.29   
    24. D(O   9,C   1,C   0,N   4)    102.01  0.000558   -0.08    101.93   
    25. D(O   9,C   1,C   0,H   6)   -138.18 -0.000974    0.66   -137.52   
    26. D(O   5,C   1,C   0,H   6)     45.73 -0.001840    1.54     47.26   
    27. D(O   5,C   1,C   0,H   7)    165.80  0.001771    0.40    166.20   
    28. D(H   2,N   4,C   0,H   6)   -179.79 -0.000134   -0.15   -179.94   
    29. D(H   2,N   4,C   0,C   1)    -59.43 -0.001466    0.49    -58.93   
    30. D(H   3,N   4,C   0,H   6)    -60.26  0.001795   -1.20    -61.46   
    31. D(H   3,N   4,C   0,C   1)     60.11  0.000463   -0.56     59.54   
    32. D(H   2,N   4,C   0,H   7)     60.80 -0.000251    0.21     61.02   
    33. D(H   8,O   5,C   1,O   9)      0.66 -0.000064   -0.33      0.33   
    34. D(H   8,O   5,C   1,C   0)    176.91  0.001031   -1.21    175.70   
    ----------------------------------------------------------------------------

Geometry step timings:
Preparation and reading OPT file:      0.000 s ( 2.366 %)
Internal coordinates            :      0.000 s ( 1.935 %)
B/P matrices and projection     :      0.000 s (29.892 %)
Hessian update/contruction      :      0.000 s (10.538 %)
Making the step                 :      0.000 s (28.602 %)
Converting the step to Cartesian:      0.000 s ( 4.946 %)
Storing new data                :      0.000 s ( 2.366 %)
Checking convergence            :      0.000 s ( 2.581 %)
Final printing                  :      0.000 s (16.774 %)
Total time                      :      0.000 s

Time for energy+gradient        :      8.704 s
Time for complete geometry iter :      8.719 s

         *************************************************************
         *                GEOMETRY OPTIMIZATION CYCLE   2            *
         *************************************************************
---------------------------------
CARTESIAN COORDINATES (ANGSTROEM)
---------------------------------
  C     -5.167349   -1.392935   -0.272602
  C     -5.037641   -2.512691    0.743344
  H     -6.060736   -0.042563    0.975475
  H     -4.432526    0.099217    0.913225
  N     -5.259736   -0.076672    0.356184
  O     -3.799704   -2.517083    1.293555
  H     -4.298865   -1.401618   -0.930638
  H     -6.065335   -1.570634   -0.859069
  H     -3.770509   -3.196557    1.983778
  O     -5.931887   -3.258148    1.100976

----------------------------
CARTESIAN COORDINATES (A.U.)
----------------------------
  NO LB      ZA    FRAG     MASS         X           Y           Z
   0 C     6.0000    0    12.011   -9.764875   -2.632266   -0.515142
   1 C     6.0000    0    12.011   -9.519762   -4.748297    1.404717
   2 H     1.0000    0     1.008  -11.453132   -0.080433    1.843380
   3 H     1.0000    0     1.008   -8.376260    0.187492    1.725745
   4 N     7.0000    0    14.007   -9.939461   -0.144889    0.673090
   5 O     8.0000    0    15.999   -7.180399   -4.756598    2.444465
   6 H     1.0000    0     1.008   -8.123678   -2.648674   -1.758650
   7 H     1.0000    0     1.008  -11.461821   -2.968068   -1.623406
   8 H     1.0000    0     1.008   -7.125229   -6.040618    3.748796
   9 O     8.0000    0    15.999  -11.209641   -6.157007    2.080544

--------------------------------
INTERNAL COORDINATES (ANGSTROEM)
--------------------------------
 C      0   0   0     0.000000000000     0.00000000     0.00000000
 C      1   0   0     1.517505221870     0.00000000     0.00000000
 H      1   2   0     2.044343149000    96.66356284     0.00000000
 H      3   1   2     1.635556726822    66.35817322    93.20617493
 N      4   3   1     1.012674015075    36.16616091    39.46981248
 O      2   1   3     1.354710628521   110.63467596   263.04034543
 H      1   2   3     1.089656491621   109.28647823   144.22065234
 H      1   2   3     1.087151723973   108.12832412   263.15848197
 H      6   2   1     0.968991557877   108.60896568   175.70032893
 O      2   1   3     1.217900812483   125.83716878    78.26439794

---------------------------
INTERNAL COORDINATES (A.U.)
---------------------------
 C      0   0   0     0.000000000000     0.00000000     0.00000000
 C      1   0   0     2.867669276131     0.00000000     0.00000000
 H      1   2   0     3.863248675368    96.66356284     0.00000000
 H      3   1   2     3.090754290187    66.35817322    93.20617493
 N      4   3   1     1.913676551430    36.16616091    39.46981248
 O      2   1   3     2.560032078616   110.63467596   263.04034543
 H      1   2   3     2.059152349214   109.28647823   144.22065234
 H      1   2   3     2.054419024330   108.12832412   263.15848197
 H      6   2   1     1.831128670469   108.60896568   175.70032893
 O      2   1   3     2.301498993873   125.83716878    78.26439794

------------------------------------------------------------------------------
                   ___                                                        
                  /   \      - P O W E R E D   B Y -                         
                 /     \                                                     
                 |  |  |   _    _      __       _____    __    __             
                 |  |  |  | |  | |    /  \     |  _  \  |  |  /  |          
                  \  \/   | |  | |   /    \    | | | |  |  | /  /          
                 / \  \   | |__| |  /  /\  \   | |_| |  |  |/  /          
                |  |  |   |  __  | /  /__\  \  |    /   |      \           
                |  |  |   | |  | | |   __   |  |    \   |  |\   \          
                \     /   | |  | | |  |  |  |  | |\  \  |  | \   \       
                 \___/    |_|  |_| |__|  |__|  |_| \__\ |__|  \__/        
                                                                              
                      - O R C A' S   B I G   F R I E N D -                    
                                      &                                       
                       - I N T E G R A L  F E E D E R -                       
                                                                              
 v1 FN, 2020, v2 2021, v3 2022-2024                                           
------------------------------------------------------------------------------


----------------------
SHARK INTEGRAL PACKAGE
----------------------

Number of atoms                             ...     10
Number of basis functions                   ...     95
Number of shells                            ...     45
Maximum angular momentum                    ...      2
Integral batch strategy                     ... SHARK/LIBINT Hybrid
RI-J (if used) integral strategy            ... SPLIT-RIJ (Revised 2003 algorithm where possible)
Printlevel                                  ...      1
Contraction scheme used                     ... SEGMENTED contraction
Prescreening option                         ... SCHWARTZ
   Thresh                                   ... 2.500e-11
   Tcut                                     ... 2.500e-12
   Tpresel                                  ... 2.500e-12 
Coulomb Range Separation                    ... NOT USED
Exchange Range Separation                   ... NOT USED
Multipole approximations                    ... NOT USED
Finite Nucleus Model                        ... NOT USED
CABS basis                                  ... NOT available
Auxiliary Coulomb fitting basis             ... NOT available
Auxiliary J/K fitting basis                 ... NOT available
Auxiliary Correlation fitting basis         ... NOT available
Auxiliary 'external' fitting basis          ... NOT available

Checking pre-screening integrals            ... done (  0.0 sec) Dimension = 45
   => SHARK Basis and OBASIS are compatible. Storing Pre-screening
[...]
  4 N      7.6748     7.0000    -0.6748     2.9607     2.6400     0.3207
  5 O      8.6310     8.0000    -0.6310     2.0966     1.7350     0.3615
  6 H      0.8280     1.0000     0.1720     0.9484     0.9031     0.0453
  7 H      0.8280     1.0000     0.1720     0.9484     0.9031     0.0453
  8 H      0.6301     1.0000     0.3699     0.8794     0.8346     0.0448
  9 O      8.5642     8.0000    -0.5642     2.1473     1.7439     0.4034

  Mayer bond orders larger than 0.100000
B(  0-C ,  1-C ) :   0.8679 B(  0-C ,  4-N ) :   0.9144 B(  0-C ,  6-H ) :   0.9227 
B(  0-C ,  7-H ) :   0.9227 B(  1-C ,  5-O ) :   0.9156 B(  1-C ,  9-O ) :   1.6854 
B(  2-H ,  4-N ) :   0.8708 B(  3-H ,  4-N ) :   0.8709 B(  5-O ,  8-H ) :   0.8052 



                *******************************************
                * RELAXED MP2 DENSITY POPULATION ANALYSIS *
                *******************************************

------------------------------------------------------------------------------
                           ORCA POPULATION ANALYSIS
------------------------------------------------------------------------------
Input electron density              ... 2.pmp2re
BaseName (.gbw .S,...)              ... 2

                    ********************************
                    * MULLIKEN POPULATION ANALYSIS *
                    ********************************

-----------------------
MULLIKEN ATOMIC CHARGES
-----------------------
   0 C :   -0.160014
   1 C :    0.556917
   2 H :    0.260720
   3 H :    0.260664
   4 N :   -0.614990
   5 O :   -0.532323
   6 H :    0.159900
   7 H :    0.159926
   8 H :    0.343437
   9 O :   -0.434237
Sum of atomic charges:   -0.0000000

--------------------------------
MULLIKEN REDUCED ORBITAL CHARGES
--------------------------------
  0 C s       :     3.205494  s :     3.205494
      pz      :     0.998206  p :     2.882422
      px      :     1.095617
      py      :     0.788599
      dz2     :     0.012203  d :     0.072098
      dxz     :     0.010338
      dyz     :     0.018233
      dx2y2   :     0.020627
      dxy     :     0.010698
  1 C s       :     2.993883  s :     2.993883
      pz      :     0.728047  p :     2.307319
      px      :     0.754751
      py      :     0.824521
      dz2     :     0.031925  d :     0.141880
      dxz     :     0.017856
      dyz     :     0.043976
      dx2y2   :     0.022112
      dxy     :     0.026011
  2 H s       :     0.712196  s :     0.712196
      pz      :     0.012477  p :     0.027084
      px      :     0.007992
      py      :     0.006615
  3 H s       :     0.712252  s :     0.712252
      pz      :     0.006836  p :     0.027084
      px      :     0.013569
      py      :     0.006679
  4 N s       :     3.582311  s :     3.582311
      pz      :     1.387387  p :     3.978722
      px      :     1.213728
      py      :     1.377607
      dz2     :     0.013236  d :     0.053957
      dxz     :     0.011225
      dyz     :     0.007332
      dx2y2   :     0.015599
      dxy     :     0.006565
  5 O s       :     3.824302  s :     3.824302
      pz      :     1.386124  p :     4.660395
      px      :     1.717983
      py      :     1.556288
      dz2     :     0.009980  d :     0.047626
      dxz     :     0.008235
      dyz     :     0.012184
      dx2y2   :     0.009625
      dxy     :     0.007603
  6 H s       :     0.825694  s :     0.825694
      pz      :     0.007492  p :     0.014406
      px      :     0.004368
      py      :     0.002546
  7 H s       :     0.825668  s :     0.825668
      pz      :     0.003433  p :     0.014406
      px      :     0.008404
      py      :     0.002569
  8 H s       :     0.615911  s :     0.615911
      pz      :     0.011123  p :     0.040652
      px      :     0.010008
      py      :     0.019522
  9 O s       :     3.854501  s :     3.854501
      pz      :     1.684938  p :     4.528968
      px      :     1.453571
      py      :     1.390460
      dz2     :     0.007738  d :     0.050768
      dxz     :     0.005268
      dyz     :     0.012640
      dx2y2   :     0.011059
      dxy     :     0.014062


                     *******************************
                     * LOEWDIN POPULATION ANALYSIS *
                     *******************************

----------------------
LOEWDIN ATOMIC CHARGES
----------------------
   0 C :   -0.094724
   1 C :    0.139541
   2 H :    0.129480
   3 H :    0.129474
   4 N :   -0.268067
   5 O :   -0.185319
   6 H :    0.093889
   7 H :    0.093890
   8 H :    0.188709
   9 O :   -0.226874

-------------------------------
LOEWDIN REDUCED ORBITAL CHARGES
-------------------------------
  0 C s       :     2.886777  s :     2.886777
      pz      :     1.045737  p :     3.073704
      px      :     1.090682
      py      :     0.937285
      dz2     :     0.021042  d :     0.134243
      dxz     :     0.016243
      dyz     :     0.038104
      dx2y2   :     0.040626
      dxy     :     0.018230
  1 C s       :     2.865692  s :     2.865692
      pz      :     0.876128  p :     2.689365
      px      :     0.787071
      py      :     1.026165
      dz2     :     0.069105  d :     0.305402
      dxz     :     0.037133
      dyz     :     0.098826
      dx2y2   :     0.049147
      dxy     :     0.051191
  2 H s       :     0.786520  s :     0.786520
      pz      :     0.042017  p :     0.084000
      px      :     0.022744
      py      :     0.019239
  3 H s       :     0.786529  s :     0.786529
      pz      :     0.019259  p :     0.083997
      px      :     0.045319
      py      :     0.019418
  4 N s       :     3.191176  s :     3.191176
      pz      :     1.387492  p :     3.994444
      px      :     1.217604
      py      :     1.389348
      dz2     :     0.018663  d :     0.082447
      dxz     :     0.015942
      dyz     :     0.011354
      dx2y2   :     0.026018
      dxy     :     0.010471
  5 O s       :     3.484375  s :     3.484375
      pz      :     1.397144  p :     4.629111
      px      :     1.685672
      py      :     1.546295
      dz2     :     0.017400  d :     0.071834
      dxz     :     0.013943
      dyz     :     0.020011
      dx2y2   :     0.011844
      dxy     :     0.008635
  6 H s       :     0.862087  s :     0.862087
      pz      :     0.024536  p :     0.044024
      px      :     0.013169
      py      :     0.006320
  7 H s       :     0.862086  s :     0.862086
      pz      :     0.009859  p :     0.044023
      px      :     0.027774
      py      :     0.006391
  8 H s       :     0.690782  s :     0.690782
      pz      :     0.031539  p :     0.120508
      px      :     0.028628
      py      :     0.060341
  9 O s       :     3.560822  s :     3.560822
      pz      :     1.669178  p :     4.587081
      px      :     1.440973
      py      :     1.476930
      dz2     :     0.012058  d :     0.078971
      dxz     :     0.005850
      dyz     :     0.020142
      dx2y2   :     0.022912
      dxy     :     0.018010


                      *****************************
                      * MAYER POPULATION ANALYSIS *
                      *****************************

  NA   - Mulliken gross atomic population
  ZA   - Total nuclear charge
  QA   - Mulliken gross atomic charge
  VA   - Mayer's total valence
  BVA  - Mayer's bonded valence
  FA   - Mayer's free valence

  ATOM       NA         ZA         QA         VA         BVA        FA
  0 C      6.1600     6.0000    -0.1600     3.9157     3.6624     0.2533
  1 C      5.4431     6.0000     0.5569     3.9435     3.6678     0.2756
  2 H      0.7393     1.0000     0.2607     0.9180     0.8732     0.0447
  3 H      0.7393     1.0000     0.2607     0.9180     0.8732     0.0447
  4 N      7.6150     7.0000    -0.6150     3.0288     2.7118     0.3169
  5 O      8.5323     8.0000    -0.5323     2.2144     1.8620     0.3524
  6 H      0.8401     1.0000     0.1599     0.9523     0.9070     0.0453
  7 H      0.8401     1.0000     0.1599     0.9523     0.9070     0.0453
  8 H      0.6566     1.0000     0.3434     0.9021     0.8584     0.0437
  9 O      8.4342     8.0000    -0.4342     2.3044     1.9173     0.3871

  Mayer bond orders larger than 0.100000
B(  0-C ,  1-C ) :   0.8717 B(  0-C ,  4-N ) :   0.9559 B(  0-C ,  6-H ) :   0.9184 
B(  0-C ,  7-H ) :   0.9183 B(  1-C ,  5-O ) :   0.9959 B(  1-C ,  9-O ) :   1.8016 
B(  2-H ,  4-N ) :   0.8750 B(  3-H ,  4-N ) :   0.8750 B(  5-O ,  8-H ) :   0.8126 



----------------------------------
MP2 DERIVATIVE INTEGRAL GENERATION
----------------------------------

Input SCF Electron Density              ... 2.scfp
Input Correlated Electron Density       ... 2.pmp2re
Input Energy Weighted Density           ... 2.wmp2.tmp
Input Wavefunction Amplitudes           ... 2.mp2tsaa.tmp

Nuclear repulsion gradient              ... done (  0.0 sec)
HCore & Overlap gradient  (SHARK)       ... done (  0.0 sec)
Analytic two-electron gradient terms    ... 
  Batch handling in the gradient evaluation:
  General contraction                   ... not used
  Memory available                      ... 4090.5 MB
  Memory per occupied orbital in Q2     ...    1.0 MB
  Memory per occupied orbital in Q3     ...    0.0 MB
  Total memory requirement per |i>      ...    1.1 MB
  Number of orbitals treated per batch  ...     15
  Number of batches to be done          ...      1
done (  1.6 sec)

---------------------------------------
MP2 TOTAL ENERGY:     -283.633588931 Eh
---------------------------------------

The final MP2 gradient
  0:  -0.00002865   0.00003152  -0.00000547
  1:   0.00000929  -0.00003840  -0.00002130
  2:   0.00001243   0.00000285   0.00001191
  3:   0.00000401  -0.00000033   0.00000101
  4:  -0.00001016  -0.00001459   0.00000271
  5:   0.00000973   0.00001219   0.00001095
  6:   0.00000339  -0.00001578   0.00000730
  7:   0.00000283  -0.00000462  -0.00001767
  8:  -0.00000398   0.00000049   0.00000488
  9:   0.00000111   0.00002668   0.00000569

-----------------------------------
NORM OF THE MP2 GRADIENT:  0.000079
-----------------------------------

Maximum memory used throughout the entire MP2-calculation: 63.9 MB

-------------------------   --------------------
FINAL SINGLE POINT ENERGY      -283.633588931451
-------------------------   --------------------

                                *** OPTIMIZATION RUN DONE ***


------------------------------------------------------------------------------
                              ORCA PROPERTY CALCULATIONS
------------------------------------------------------------------------------

GBWName                                 ... 2.gbw
Number of atoms                         ...     10
Number of basis functions               ...     95
Max core memory                         ...   4096 MB

Electric properties:
Dipole moment                           ... YES
Quadrupole moment                       ...  NO
Static polarizability (Dipole/Dipole)   ...  NO
Static polarizability (Dipole/Quad.)    ...  NO
Static polarizability (Quad./Quad.)     ...  NO
Static polarizability (Velocity)        ...  NO
Static hyperpolarizability              ...  NO

Atomic electric properties:
Dipole moment                           ...  NO
Quadrupole moment                       ...  NO
Static polarizability                   ...  NO

Choice of electric origin               ... Center of mass
Position of electric origin             ...    -9.335432    -3.756744     1.168547

General magnetic properties:
Magnetizability                         ...  NO

EPR properties:
g-Tensor (aka g-matrix)                 ...  NO
Zero-Field splitting spin-orbit         ...  NO
Zero-field splitting spin-spin          ...  NO
Hyperfine couplings                     ...  NO (   0 nuclei)
Quadrupole couplings                    ...  NO (   0 nuclei)
Contact density                         ...  NO (   0 nuclei)

NMR properties:
Chemical shifts                         ...  NO (   0 nuclei)
Spin-rotation constants                 ...  NO (   0 nuclei)
Spin-spin couplings                     ...  NO (   0 nuclei,    0 pairs)

Choice of magnetic origin               ... GIAO
Position of magnetic origin             ...     0.000000     0.000000     0.000000

Properties with geometric perturbations:
SCF Hessian                             ...  NO
IR spectrum                             ...  NO
VCD spectrum                            ...  NO
X-ray spectroscopy properties:
SCF XES/XAS/RIXS spectra                ...  NO

SCF SOC stabilization energy            ...  NO
Diagonal Born-Oppenheimer correction    ...  NO

-------------
DIPOLE MOMENT
-------------

Method             : SCF
Type of density    : Electron Density
Multiplicity       :   1
Irrep              :   0
Energy             :  -282.8398511017542774 Eh
Basis              : AO
                                X                 Y                 Z
Electronic contribution:      0.587063341      -3.422486865       1.269982636
Nuclear contribution   :     -0.311493480       3.749860814      -0.628230907
                        -----------------------------------------
Total Dipole Moment    :      0.275569862       0.327373949       0.641751728
                        -----------------------------------------
Magnitude (a.u.)       :      0.771335032
Magnitude (Debye)      :      1.960577842



--------------------
Rotational spectrum 
--------------------
 
Rotational constants in cm-1:             0.331688             0.133152             0.098156 
Rotational constants in MHz :          9943.757680          3991.809983          2942.640672 

Dipole components along the rotational axes: 
x,y,z [a.u.] :     0.190536    -0.747431    -0.000806 
x,y,z [Debye]:     0.484304    -1.899819    -0.002048 

 

-------------
DIPOLE MOMENT
-------------

Method             : MP2
Type of density    : Electron Density
Multiplicity       :   1
Level              : Unrelaxed density
Irrep              :   0
Energy             :     0.0000000000000000 Eh
Basis              : AO
                                X                 Y                 Z
Electronic contribution:      0.586558946      -3.451485182       1.268090497
Nuclear contribution   :     -0.311493480       3.749860814      -0.628230907
                        -----------------------------------------
Total Dipole Moment    :      0.275065467       0.298375631       0.639859589
                        -----------------------------------------
Magnitude (a.u.)       :      0.757700021
Magnitude (Debye)      :      1.925920399



--------------------
Rotational spectrum 
--------------------
 
Rotational constants in cm-1:             0.331688             0.133152             0.098156 
Rotational constants in MHz :          9943.757680          3991.809983          2942.640672 

Dipole components along the rotational axes: 
x,y,z [a.u.] :     0.162415    -0.740088    -0.000811 
x,y,z [Debye]:     0.412825    -1.881154    -0.002063 

 

-------------
DIPOLE MOMENT
-------------

Method             : MP2
Type of density    : Electron Density
Multiplicity       :   1
Level              : Relaxed density
Irrep              :   0
Energy             :     0.0000000000000000 Eh
Basis              : AO
                                X                 Y                 Z
Electronic contribution:      0.589279040      -3.579703930       1.271102843
Nuclear contribution   :     -0.311493480       3.749860814      -0.628230907
                        -----------------------------------------
Total Dipole Moment    :      0.277785561       0.170156884       0.642871935
                        -----------------------------------------
Magnitude (a.u.)       :      0.720695850
Magnitude (Debye)      :      1.831863270



--------------------
Rotational spectrum 
--------------------
 
Rotational constants in cm-1:             0.331688             0.133152             0.098156 
Rotational constants in MHz :          9943.757680          3991.809983          2942.640672 

Dipole components along the rotational axes: 
x,y,z [a.u.] :     0.035745    -0.719808    -0.000853 
x,y,z [Debye]:     0.090856    -1.829607    -0.002167 

 

Dipole moment calculation done in   0.0 sec 

Maximum memory used throughout the entire PROP-calculation: 4.6 MB

--------------------------------
SUGGESTED CITATIONS FOR THIS RUN
--------------------------------

Below you find a list of papers that are relevant to this ORCA run
We neither can nor want to force you to cite these papers, but we appreciate if you do
You receive ORCA, which is the product of decades of hard work by many enthusiastic individuals, for free
The only thing we kindly ask in return is that you cite our papers,
We deeply appreciate it, if you show your appreciation for ORCA by not just citing the generic ORCA reference.

Please note that relegating all ORCA citations to the supporting information does *not* help us.
SI sections are not indexed - citations you put there will not count into any citation statistics
But we need these citations in order to attract the funding resources that allow us to do what we are doing

Therefore, if you are a happy ORCA user, please consider citing a few of the papers listed below in the main body of your paper

In addition to the list printed below, the program has created the file 2.bibtex that contains the list in bibtex format
You can import this file easily into all common literature databanks and citation aid programs


List of essential papers. We consider these as the minimum necessary citations

  1. Neese, F.
     Software update: the ORCA program system, version 6.0
     WIRES Comput. Molec. Sci. 2025 15(1), e70019
     doi.org/10.1002/wcms.7019

List of papers to cite with high priority. The work reported in these papers was absolutely
necessary for this run to complete.
Our perspective: the developers of density functionals and basis sets usually get cited in chemistry papers
Good! But without the algorithms to do something with them, the functionals or basis sets would not do anything.
Hence, in our opinion, the algorithm design and method developments papers are equally worthy of getting cited

  1. Neese, F.
     The SHARK Integral Generation and Digestion System
     J. Comp. Chem. 2022 44(3), 381
     doi.org/10.1002/jcc.26942

List of suggested additional citations. These are papers that are important in the 'surrounding' of 
of this run, or papers that preceded the highly important papers. If you like your results we are grateful for a citation.

  1. Neese, F.
     The ORCA program system
     WIRES Comput. Molec. Sci. 2012 2(1), 73-78
     doi.org/10.1002/wcms.81
  2. Neese, F.
     Software update: the ORCA program system, version 4.0
     WIRES Comput. Molec. Sci. 2018 8(1), 1-6
     doi.org/10.1002/wcms.1327
  3. Neese, F.; Wennmohs, F.; Becker, U.; Riplinger, C.
     The ORCA quantum chemistry program package
     J. Chem. Phys. 2020 152(22), 224108
     doi.org/10.1063/5.0004608
  4. Neese, F.
     Software update: The ORCA program system—Version 5.0
     WIRES Comput. Molec. Sci. 2022 12(1), e1606
     doi.org/10.1002/wcms.1606

List of optional additional citations

  1. Neese, F.
     Approximate second-order SCF convergence for spin unrestricted wavefunctions
     Chem. Phys. Lett. 2000 325(1-3), 93-98
     doi.org/10.1016/s0009-2614(00)00662-x

Timings for individual modules:

Sum of individual times          ...      162.970 sec (=   2.716 min)
Startup calculation              ...        3.770 sec (=   0.063 min)   2.3 %
SCF iterations                   ...       49.744 sec (=   0.829 min)  30.5 %
Property calculations            ...        0.037 sec (=   0.001 min)   0.0 %
MP2 module                       ...      109.406 sec (=   1.823 min)  67.1 %
Geometry relaxation              ...        0.014 sec (=   0.000 min)   0.0 %
                             ****ORCA TERMINATED NORMALLY****
TOTAL RUN TIME: 0 days 0 hours 2 minutes 43 seconds 355 msec
