
                                 *****************
                                 * O   R   C   A *
                                 *****************

                                            #,                                       
                                            ###                                      
                                            ####                                     
                                            #####                                    
                                            ######                                   
                                           ########,                                 
                                     ,,################,,,,,                         
                               ,,#################################,,                 
                          ,,##########################################,,             
                       ,#########################################, ''#####,          
                    ,#############################################,,   '####,        
                  ,##################################################,,,,####,       
                ,###########''''           ''''###############################       
              ,#####''   ,,,,##########,,,,          '''####'''          '####       
            ,##' ,,,,###########################,,,                        '##       
           ' ,,###''''                  '''############,,,                           
         ,,##''                                '''############,,,,        ,,,,,,###''
      ,#''                                            '''#######################'''  
     '                                                          ''''####''''         
             ,#######,   #######,   ,#######,      ##                                
            ,#'     '#,  ##    ##  ,#'     '#,    #''#        ,####,    ,#,          
            ##       ##  ##   ,#'  ##            #'  '#       #'       ,# #          
            ##       ##  #######   ##           ,######,      #####,      #          
            '#,     ,#'  ##    ##  '#,     ,#' ,#      #,     #,   #      #          
             '#######'   ##     ##  '#######'  #'      '#     '####' #    #          



                #########################################################
                #                        -***-                          #
                #          Department of theory and spectroscopy        #
                #                                                       #
                #                      Frank Neese                      #
                #                                                       #
                #     Directorship, Architecture, Infrastructure        #
                #                    SHARK, DRIVERS                     #
                #        Core code/Algorithms in most modules           #
                #                                                       #
                #        Max Planck Institute fuer Kohlenforschung      #
                #                Kaiser Wilhelm Platz 1                 #
                #                 D-45470 Muelheim/Ruhr                 #
                #                      Germany                          #
                #                                                       #
                #                  All rights reserved                  #
                #                        -***-                          #
                #########################################################


                         Program Version 6.1.0  -  RELEASE   -
                                (GIT: $679e74b$)
                          ($2025-06-10 18:02:51 +0200$)


 With contributions from (in alphabetic order):
[Max-Planck-Institut fuer Kohlenforschung]                               
  Daniel Aravena         : Magnetic Suceptibility                        
  Michael Atanasov       : Ab Initio Ligand Field Theory (pilot matlab implementation)
  Alexander A. Auer      : GIAO ZORA, VPT2 properties, NMR spectrum      
  Ute Becker             : All parallelization in ORCA, NUMFREQ, NUMCALC 
  Giovanni Bistoni       : ED, misc. LED, open-shell LED, HFLD           
  Dmytro Bykov           : pre 5.0 version of the SCF Hessian            
  Marcos Casanova-Páez   : Triplet and SCS-CIS(D). UHF-(DLPNO)-IP/EA/STEOM-CCSD. UHF-CVS-IP/STEOM-CCSD   
  Vijay G. Chilkuri      : MRCI spin determinant printing, contributions to CSF-ICE 
  Pauline Colinet        : FMM embedding                                 
  Dipayan Datta          : RHF DLPNO-CCSD density                        
  Achintya Kumar Dutta   : EOM-CC, STEOM-CC                              
  Nicolas Foglia         : Exact transition moments, OPA infrastructure, MCD improvements    
  Dmitry Ganyushin       : Spin-Orbit,Spin-Spin,Magnetic field MRCI      
  Miquel Garcia-Rates    : C-PCM and meta-GGA Hessian, CCSD/C-PCM, Gaussian charge scheme 
  Tiago L. C. Gouveia    : GS-ROHF, GS-ROCIS                             
  Yang Guo               : DLPNO-NEVPT2, F12-NEVPT2, CIM, IAO-localization        
  Andreas Hansen         : Spin unrestricted coupled pair/coupled cluster methods 
  Ingolf Harden          : AUTO-CI MPn and infrastructure                
  Benjamin Helmich-Paris : MC-RPA, TRAH-(SCF,CASSCF), AVAS, COSX integrals, SCF dyn. polar., MC-PDFT, srDFT 
  Lee Huntington         : MR-EOM, pCC                                   
  Robert Izsak           : Overlap fitted RIJCOSX, COSX-SCS-MP3, EOM     
  Riya Kayal             : Wick's Theorem for AUTO-CI, AUTO-CI UHF-CCSDT 
  Emily Kempfer          : AUTO-CI RHF CISDT and CCSDT, approximate NEVPT4
  Christian Kollmar      : KDIIS, OOCD, Brueckner-CCSD(T), CCSD density, CASPT2, CASPT2-K, improved NEVPT2 
  Axel Koslowski         : Symmetry handling                             
  Simone Kossmann        : meta-GGA functionals, TD-DFT gradient, OOMP2, (MP2 Hessian; deprecated post 5.0) 
  Lucas Lang             : DCDCAS, Hyperfine gauge corrections, ICE-SOC+SSC
  Marvin Lechner         : AUTO-CI (C++ implementation), FIC-MRCC        
  Spencer Leger          : CASSCF response                               
  Dagmar Lenk            : GEPOL surface, SMD, ORCA-2-JSON               
  Dimitrios Liakos       : Extrapolation schemes; Compound Job, Property file
  Dimitrios Manganas     : Further ROCIS development; embedding schemes. LFT, Crystal Embedding 
  Dimitrios Pantazis     : SARC Basis sets                               
  Anastasios Papadopoulos: AUTO-CI, single reference methods and gradients 
  Taras Petrenko         : pre 6.0 DFT Hessian and TD-DFT gradient,  ECA, NRVS 
  Petra Pikulova         : Analytic Raman intensities                    
  Peter Pinski           : DLPNO-MP2, DLPNO-MP2 Gradient                 
  Shashank Vittal Rao    : ES-AILFT, MagRelax                            
  Christoph Reimann      : Effective Core Potentials                     
  Marius Retegan         : Local ZFS, SOC                                
  Christoph Riplinger    : Optimizer, TS searches, QM/MM, DLPNO-CCSD(T), (RO)-DLPNO pert. Triples 
  Michael Roemelt        : Original ROCIS implementation, recursive CI coupling coefficients
  Masaaki Saitow         : Open-shell DLPNO-CCSD energy and density      
  Barbara Sandhoefer     : DKH picture change effects                    
  Yorick L. A. Schmerwitz: GMF and freeze-and-release deltaSCF, NEB S-IDPP initial path                    
  Kantharuban Sivalingam : CASSCF convergence/infrastructure, NEVPT2, NEVPT3, NEVPT4(SD), FIC-MRCI and CEPA variants
  Bernardo de Souza      : ESD, SOC TD-DFT                               
  Georgi L. Stoychev     : AutoAux, RI-MP2 NMR, DLPNO-MP2 response, X2C  
  Van Anh Tran           : RI-MP2 g-tensors                              
  Willem Van den Heuvel  : Paramagnetic NMR                              
  Zikuan Wang            : NOTCH, Electric field optimization            
  Frank Wennmohs         : Technical directorship and infrastructure     
  Hang Xu                : AUTO-CI-Response properties                   
                                                                         
[FACCTs GmbH]                                                            
  Markus Bursch, Nicolas Foglia, Miquel Garcia-Rates, Ingolf Harden, Hagen Neugebauer, Anastasios Papadopoulos, 
  Christoph Riplinger, Bernardo de Souza, Georgi L. Stoychev                                                    
                                                                 
  APM, various basis sets, CI-OPT, improved COSX, DLPNO-Multilevel,           
  DOCKER, DRACO, updates on ESD, Fragmentator, GOAT, IRC, LR-CPCM, L-BFGS, MBIS, meta-GGA TD-DFT gradient, ML-optimized integration grids, 
  MM, NACMEs, nearIR, NEB, NEB-TS, NL-DFT gradient (VV10), 2- and 3-layer-ONIOM, interface openCOSMO-RS, QMMM,   
  Crystal-QMMM, RESP, rigid body optimization, SF, symmetry and pop. for TD-DFT, various functionals, SOLVATOR                                   
                                                                         
[Other institutions]                                                     
  V. Asgeirsson          : NEB                                           
  Christoph Bannwarth    : sTDA-DFT, sTD-DFT, PBEh-3c, B97-3c, D3        
  Giovanni Bistoni       : ETS/NOCV, ADLD/ADEX, COVALED                  
  Martin Brehm           : Molecular dynamics                            
  Ronald Cardenas        : ETS/NOCV                                      
  Martina Colucci        : COVALED                                       
  Sebastian Ehlert       : rSCAN, r2SCAN, r2SCAN-3c, D4, dhf basis sets  
  Marvin Friede          : D4 for Fr, Ra, Ac-Lr                          
  Lars Goerigk           : TD-DFT with DH, B97 family of functionals     
  Stefan Grimme          : VdW corrections, initial TS optimization, DFT functionals, gCP, sTDA/sTD-DF 
  Waldemar Hujo          : DFT-NL                                        
  H. Jonsson             : NEB                                           
  Holger Kruse           : gCP                                           
  Marcel Mueller         : wB97X-3c, vDZP basis set                      
  Hagen Neugebauer       : wr2SCAN, Native XTB                           
  Gianluca Regni         : ADLD/ADEX                                     
  Tobias Risthaus        : pre 6.0 range-separated hybrid DFT and stability analysis
  Lukas Wittmann         : regularized MP2, r2SCAN double-hybrids, wr2SCAN        
                                                                         
We gratefully acknowledge several colleagues who have allowed us to      
interface, adapt or use parts of their codes:                            
  Ed Valeev, F. Pavosevic, A. Kumar             : LibInt (2-el integral package), F12 methods 
  Garnet Chan, S. Sharma, J. Yang, R. Olivares  : DMRG                   
  Ulf Ekstrom                                   : XCFun DFT Library      
  Mihaly Kallay                                 : mrcc  (arbitrary order and MRCC methods)
  Frank Weinhold                                : gennbo (NPA and NBO analysis)           
  Simon Mueller                                 : openCOSMO-RS                            
  Christopher J. Cramer and Donald G. Truhlar   : smd solvation model                     
  S Lehtola, MJT Oliveira, MAL Marques          : LibXC Library                           
  Liviu Ungur et al                             : ANISO software                          


 Your calculation uses the libint2 library for the computation of 2-el integrals
 For citations please refer to: http://libint.valeyev.net

 Your ORCA version has been built with support for libXC version: 7.0.0
 For citations please refer to: https://libxc.gitlab.io

 This ORCA versions uses:
   CBLAS   interface :  Fast vector & matrix operations
   LAPACKE interface :  Fast linear algebra routines
   SCALAPACK package :  Parallel linear algebra routines
   Shared memory     :  Shared parallel matrices
   BLAS/LAPACK       :  OpenBLAS 0.3.29  USE64BITINT DYNAMIC_ARCH NO_AFFINITY Haswell SINGLE_THREADED
        Core in use  :  Haswell
   Copyright (c) 2011-2014, The OpenBLAS Project


  ***********************************
  * Starting time: Thu Aug 14 12:10:38 2025
  * Host name:     CHEMLAB02
  * Process ID:    1769403
  * Working dir.:  /home/vivek/mm-project/vivek/B97-D/g/4
  ***********************************



***************************************
The coordinates will be read from file: /home/vivek/mm-project/vivek/xtb-goat/g/G_CONF/4.xyz
***************************************


Your calculation utilizes empirical dispersion correction


Warning: RI is on but no J-basis has been assigned. Assigning Def2/J (nothing to worry about!)
================================================================================

----- Orbital basis set information -----
Your calculation utilizes the basis: 6-31G**
   H-He, Li-Ne : W. J. Hehre, R. Ditchfield and J.A. Pople, J. Chem. Phys. 56, 2257 (1972).
                 Note: He and Ne are unpublished basis sets taken from the Gaussian program.
                 Note: Li and B from J. D. Dill and J. A. Pople, J. Chem. Phys. 62, 2921 (1975).
   Na - Ar     : M. M. Francl, W. J. Pietro, W. J. Hehre, J. S. Binkley, M. S. Gordon, 
                 D. J. DeFrees and J. A. Pople, J. Chem. Phys. 77, 3654 (1982).
   K - Zn      : V. A. Rassolov, J. A. Pople, M. A. Ratner, and T. L. Windus, J. Chem. Phys. 109, 1223 (1998).

----- AuxJ basis set information -----
Your calculation utilizes the auxiliary basis: def2/J
   H-Rn: F. Weigend, Phys. Chem. Chem. Phys. 8, 1057 (2006).
   Fr-Lr: K. Eichkorn, F. Weigend, O. Treutler, R. Ahlrichs; Theor. Chem. Acc. 97, 119 (1997).

================================================================================
                                        WARNINGS
                       Please study these warnings very carefully!
================================================================================


INFO   : The exchange functional is Grimme's B97(-D)
         As described in S. Grimme, J. Comput. Chem. 27, 1787 (2006).
         Note that this functional defaults to a pure GGA. 

INFO   : The correlation functional is Grimme's B97(-D)
         As described in S. Grimme, J. Comput. Chem. 27, 1787 (2006).

================================================================================
                                       INPUT FILE
================================================================================
NAME = 4.inp
|  1> ! B97-D 6-31G** 
|  2> 
|  3> * xyzfile 0 1 /home/vivek/mm-project/vivek/xtb-goat/g/G_CONF/4.xyz
|  4> 
|  5>                          ****END OF INPUT****
================================================================================

                       ****************************
                       * Single Point Calculation *
                       ****************************

---------------------------------
CARTESIAN COORDINATES (ANGSTROEM)
---------------------------------
  C     -4.926772   -1.269974   -0.160589
  C     -4.390950   -2.446882    0.626626
  H     -5.918950    0.482922    0.142048
  H     -6.122126   -0.612994    1.352980
  N     -5.453846   -0.227198    0.695472
  O     -5.051718   -2.649616    1.771415
  H     -4.107971   -0.863762   -0.760627
  H     -5.668527   -1.702367   -0.859804
  H     -4.679734   -3.413310    2.240019
  O     -3.503694   -3.166507    0.256688

----------------------------
CARTESIAN COORDINATES (A.U.)
----------------------------
  NO LB      ZA    FRAG     MASS         X           Y           Z
   0 C     6.0000    0    12.011   -9.310251   -2.399902   -0.303469
   1 C     6.0000    0    12.011   -8.297693   -4.623936    1.184152
   2 H     1.0000    0     1.008  -11.185194    0.912591    0.268432
   3 H     1.0000    0     1.008  -11.569141   -1.158390    2.556762
   4 N     7.0000    0    14.007  -10.306276   -0.429341    1.314252
   5 O     8.0000    0    15.999   -9.546363   -5.007048    3.347489
   6 H     1.0000    0     1.008   -7.762940   -1.632273   -1.437377
   7 H     1.0000    0     1.008  -10.711964   -3.217007   -1.624795
   8 H     1.0000    0     1.008   -8.843416   -6.450220    4.233022
   9 O     8.0000    0    15.999   -6.621021   -5.983830    0.485069

--------------------------------
INTERNAL COORDINATES (ANGSTROEM)
--------------------------------
 C      0   0   0     0.000000000000     0.00000000     0.00000000
 C      1   0   0     1.513910728489     0.00000000     0.00000000
 H      1   2   0     2.036823252426   139.83370475     0.00000000
 H      3   1   2     1.645803396808    66.19629926   338.25054573
 N      3   1   2     1.013346041480    41.79677347    11.33842708
 O      2   1   3     1.337256765153   112.83744760    26.05957271
 H      1   2   3     1.093384552179   108.00689452   126.26303628
 H      1   2   3     1.107279003563   105.18164611   240.79938553
 H      6   2   1     0.970149471144   110.08313498   179.71121385
 O      2   1   3     1.200807575365   124.55525398   203.26971285

---------------------------
INTERNAL COORDINATES (A.U.)
---------------------------
 C      0   0   0     0.000000000000     0.00000000     0.00000000
 C      1   0   0     2.860876668050     0.00000000     0.00000000
 H      1   2   0     3.849038130288   139.83370475     0.00000000
 H      3   1   2     3.110117690244    66.19629926   338.25054573
 N      3   1   2     1.914946497291    41.79677347    11.33842708
 O      2   1   3     2.527049056873   112.83744760    26.05957271
 H      1   2   3     2.066197362679   108.00689452   126.26303628
 H      1   2   3     2.092454070576   105.18164611   240.79938553
 H      6   2   1     1.833316809431   110.08313498   179.71121385
 O      2   1   3     2.269197456977   124.55525398   203.26971285

---------------------
BASIS SET INFORMATION
---------------------
There are 4 groups of distinct atoms

 Group   1 Type C   : 10s4p1d contracted to 3s2p1d pattern {631/31/1}
 Group   2 Type H   : 4s1p contracted to 2s1p pattern {31/1}
 Group   3 Type N   : 10s4p1d contracted to 3s2p1d pattern {631/31/1}
 Group   4 Type O   : 10s4p1d contracted to 3s2p1d pattern {631/31/1}

Atom   0C    basis set group =>   1
Atom   1C    basis set group =>   1
Atom   2H    basis set group =>   2
Atom   3H    basis set group =>   2
Atom   4N    basis set group =>   3
Atom   5O    basis set group =>   4
Atom   6H    basis set group =>   2
Atom   7H    basis set group =>   2
Atom   8H    basis set group =>   2
Atom   9O    basis set group =>   4
---------------------------------
AUXILIARY/J BASIS SET INFORMATION
---------------------------------
There are 4 groups of distinct atoms

 Group   1 Type C   : 12s5p4d2f1g contracted to 6s4p3d1f1g pattern {711111/2111/211/2/1}
 Group   2 Type H   : 5s2p1d contracted to 3s1p1d pattern {311/2/1}
 Group   3 Type N   : 12s5p4d2f1g contracted to 6s4p3d1f1g pattern {711111/2111/211/2/1}
 Group   4 Type O   : 12s5p4d2f1g contracted to 6s4p3d1f1g pattern {711111/2111/211/2/1}

Atom   0C    basis set group =>   1
Atom   1C    basis set group =>   1
Atom   2H    basis set group =>   2
Atom   3H    basis set group =>   2
Atom   4N    basis set group =>   3
Atom   5O    basis set group =>   4
Atom   6H    basis set group =>   2
Atom   7H    basis set group =>   2
Atom   8H    basis set group =>   2
Atom   9O    basis set group =>   4
------------------------------------------------------------------------------
                             ORCA STARTUP CALCULATIONS
                           -- RI-GTO INTEGRALS CHOSEN --
------------------------------------------------------------------------------
------------------------------------------------------------------------------
                   ___                                                        
                  /   \      - P O W E R E D   B Y -                         
                 /     \                                                     
                 |  |  |   _    _      __       _____    __    __             
                 |  |  |  | |  | |    /  \     |  _  \  |  |  /  |          
                  \  \/   | |  | |   /    \    | | | |  |  | /  /          
                 / \  \   | |__| |  /  /\  \   | |_| |  |  |/  /          
                |  |  |   |  __  | /  /__\  \  |    /   |      \           
                |  |  |   | |  | | |   __   |  |    \   |  |\   \          
                \     /   | |  | | |  |  |  |  | |\  \  |  | \   \       
                 \___/    |_|  |_| |__|  |__|  |_| \__\ |__|  \__/        
                                                                              
                      - O R C A' S   B I G   F R I E N D -                    
                                      &                                       
                       - I N T E G R A L  F E E D E R -                       
                                                                              
 v1 FN, 2020, v2 2021, v3 2022-2024                                           
------------------------------------------------------------------------------


----------------------
SHARK INTEGRAL PACKAGE
----------------------

Number of atoms                             ...     10
Number of basis functions                   ...     95
Number of shells                            ...     45
Maximum angular momentum                    ...      2
Integral batch strategy                     ... SHARK/LIBINT Hybrid
RI-J (if used) integral strategy            ... SPLIT-RIJ (Revised 2003 algorithm where possible)
Printlevel                                  ...      1
Contraction scheme used                     ... SEGMENTED contraction
Prescreening option                         ... SCHWARTZ
   Thresh                                   ... 1.000e-10
   Tcut                                     ... 1.000e-11
   Tpresel                                  ... 1.000e-11 
Coulomb Range Separation                    ... NOT USED
Exchange Range Separation                   ... NOT USED
Multipole approximations                    ... NOT USED
Finite Nucleus Model                        ... NOT USED
CABS basis                                  ... NOT available
Auxiliary Coulomb fitting basis             ... AVAILABLE
   # of basis functions in Aux-J            ...    300
   # of shells in Aux-J                     ...    100
   Maximum angular momentum in Aux-J        ...      4
Auxiliary J/K fitting basis                 ... NOT available
Auxiliary Correlation fitting basis         ... NOT available
Auxiliary 'external' fitting basis          ... NOT available

Checking pre-screening integrals            ... done (  0.0 sec) Dimension = 45
   => SHARK Basis and OBASIS are compatible. Storing Pre-screening
Shell pair information
Shell pair cut-off parameter TPreSel        ...   1.0e-11
Total number of shell pairs                 ...      1035
Shell pairs after pre-screening             ...      1000
Total number of primitive shell pairs       ...      5170
Primitive shell pairs kept                  ...      3686
          la=0 lb=0:    312 shell pairs
          la=1 lb=0:    359 shell pairs
          la=1 lb=1:    117 shell pairs
          la=2 lb=0:    123 shell pairs
          la=2 lb=1:     74 shell pairs
          la=2 lb=2:     15 shell pairs

Checking whether 4 symmetric matrices of dimension 95 fit in memory
:Max Core in MB      =   4096.00
 MB in use           =      4.69
 MB left             =   4091.31
 MB needed           =      0.14
 Data fit in memory  = YES
Calculating RI/J V-Matrix + Cholesky decomp.... done (  0.0 sec)
Calculating Nuclear repulsion               ... done (  0.0 sec) ENN=    180.629628978599 Eh

Diagonalization of the overlap matrix:
Smallest eigenvalue                        ... 4.471e-03
Time for diagonalization                   ...    0.001 sec
Threshold for overlap eigenvalues          ... 1.000e-07
Number of eigenvalues below threshold      ... 0
Time for construction of square roots      ...    0.000 sec
Total time needed                          ...    0.001 sec

-------------------
DFT GRID GENERATION
-------------------

General Integration Accuracy     IntAcc      ... 4.388
Radial Grid Type                 RadialGrid  ... OptM3 with GC (2021)
Angular Grid (max. ang.)         AngularGrid ... 4 (Lebedev-302)
Angular grid pruning method      GridPruning ... 4 (adaptive)
Weight generation scheme         WeightScheme... mBecke (2022)
Basis function cutoff            BFCut       ... 1.0000e-10
Integration weight cutoff        WCut        ... 1.0000e-14
Partially contracted basis set               ... off
Rotationally invariant grid construction     ... off
Angular grids for H and He will be reduced by one unit

Total number of grid points                  ...    46671
Total number of batches                      ...      734
Average number of points per batch           ...       63
Average number of grid points per atom       ...     4667
Grids setup in   0.1 sec
Initializing property integral containers    ... done (  0.0 sec)

SHARK setup successfully completed in   0.2 seconds

Maximum memory used throughout the entire STARTUP-calculation: 19.9 MB
-------------------------------------------------------------------------------
                                 ORCA GUESS
                   Start orbitals & Density for SCF / CASSCF
-------------------------------------------------------------------------------

------------
SCF SETTINGS
------------
Hamiltonian:
 Density Functional     Method          .... DFT(GTOs)
 Exchange Functional    Exchange        .... B97(D)
 Correlation Functional Correlation     .... B97(D)
 Gradients option       PostSCFGGA      .... off
 RI-approximation to the Coulomb term is turned on
   Number of AuxJ basis functions       .... 300


General Settings:
 Integral files         IntName         .... 4
 Hartree-Fock type      HFTyp           .... RHF
 Total Charge           Charge          ....    0
 Multiplicity           Mult            ....    1
 Number of Electrons    NEL             ....   40
 Basis Dimension        Dim             ....   95
 Nuclear Repulsion      ENuc            ....    180.6296289786 Eh

Convergence Acceleration:
 AO-DIIS                CNVDIIS         .... on
   Start iteration      DIISMaxIt       ....    12
   Startup error        DIISStart       ....  0.200000
   # of expansion vecs  DIISMaxEq       ....     5
   Bias factor          DIISBfac        ....   1.050
   Max. coefficient     DIISMaxC        ....  10.000
 MO-DIIS                CNVKDIIS        .... off
 Trust-Rad. Augm. Hess. CNVTRAH         .... auto
   Auto Start mean grad. ratio tolernc. ....  1.125000
   Auto Start start iteration           ....    50
   Auto Start num. interpolation iter.  ....    10
   Max. Number of Micro iterations      ....    24
   Max. Number of Macro iterations      .... Maxiter - #DIIS iter
   Number of Davidson start vectors     ....     2
   Converg. threshold    (grad. norm)   ....   5.000e-05
   Grad. Scal. Fac. for Micro threshold ....   0.100
   Minimum threshold for Micro iter.    ....   1.000e-02
   NR start threshold (gradient norm)   ....   1.000e-04
   Initial trust radius                 ....   0.400
   Minimum AH scaling param. (alpha)    ....   1.000
   Maximum AH scaling param. (alpha)    .... 1000.000
   Quad. conv. algorithm                .... NR
   White noise on init. David. guess    .... on
   Maximum white noise                  ....   0.010
   Pseudo random numbers                .... off
   Inactive MOs                         .... canonical
   Orbital update algorithm             .... Taylor
   Preconditioner                       .... Diag
   Full preconditioner red. dimension   ....   250
 SOSCF                 CNVSOSCF           .... on
   Start iteration     SOSCFMaxIt         ....   150
   Startup grad/error  SOSCFStart         ....  0.003300
   Hessian update      SOSCFHessUp        .... L-BFGS
   Autom. constraints  SOSCFAutoConstrain .... off
 Level Shifting         CNVShift        .... on
   Level shift para.    LevelShift      ....    0.2500
   Turn off err/grad.   ShiftErr        ....    0.0010
 Zerner damping         CNVZerner       .... off
 Static damping         CNVDamp         .... on
   Fraction old density DampFac         ....    0.7000
   Max. Damping (<1)    DampMax         ....    0.9800
   Min. Damping (>=0)   DampMin         ....    0.0000
   Turn off err/grad.   DampErr         ....    0.1000

SCF Procedure:
 Maximum # iterations   MaxIter         ....   125
 SCF integral mode      SCFMode         .... Direct
   Integral package                     .... SHARK and LIBINT hybrid scheme
 Reset frequency        DirectResetFreq ....    20
 Integral Threshold     Thresh          ....  1.000e-10 Eh
 Primitive CutOff       TCut            ....  1.000e-11 Eh

Convergence Tolerance:
 Convergence Check Mode ConvCheckMode   .... Total+1el-Energy
 Convergence forced     ConvForced      .... 0
 Energy Change          TolE            ....  1.000e-06 Eh
 1-El. energy change                    ....  1.000e-03 Eh
 Orbital Gradient       TolG            ....  5.000e-05
 Orbital Rotation angle TolX            ....  5.000e-05
 DIIS Error             TolErr          ....  1.000e-06

------------------------------
INITIAL GUESS: MODEL POTENTIAL
------------------------------
Loading Hartree-Fock densities                     ... done
Calculating cut-offs                               ... done
Initializing the effective Hamiltonian             ... done
Setting up the integral package (SHARK)            ... done
Starting the Coulomb interaction                   ... done (   0.0 sec)
Making the grid                                    ... done (   0.0 sec)
Mapping shells                                     ... done
Starting the XC term evaluation                    ... done (   0.0 sec)
  promolecular density results
     # of electrons  =     39.996223379
     EX              =    -34.199843930
     EC              =     -1.793112408
     EX+EC           =    -35.992956338
Transforming the Hamiltonian                       ... done (   0.0 sec)
Diagonalizing the Hamiltonian                      ... done (   0.0 sec)
Back transforming the eigenvectors                 ... done (   0.0 sec)
Now organizing SCF variables                       ... done
                      ------------------
                      INITIAL GUESS DONE (   0.1 sec)
                      ------------------
             **** ENERGY FILE WAS UPDATED (4.en.tmp) ****
Finished Guess after   0.1 sec
Maximum memory used throughout the entire GUESS-calculation: 8.2 MB

-------------------------------------------------------------------------------------------
                                      ORCA LEAN-SCF
                              memory conserving SCF solver
-------------------------------------------------------------------------------------------

----------------------------------------D-I-I-S--------------------------------------------
Iteration    Energy (Eh)           Delta-E    RMSDP     MaxDP     DIISErr   Damp  Time(sec)
-------------------------------------------------------------------------------------------
               ***  Starting incremental Fock matrix formation  ***
    1    -284.0152252736747869     0.00e+00  5.82e-03  9.61e-02  2.62e-01  0.700   0.1
    2    -284.1306043509157462    -1.15e-01  3.48e-03  5.12e-02  9.72e-02  0.700   0.1
                               ***Turning on AO-DIIS***
    3    -284.1635730141919680    -3.30e-02  1.23e-03  2.07e-02  2.52e-02  0.700   0.1
    4    -284.1860589406143163    -2.25e-02  1.59e-03  2.45e-02  1.54e-02  0.000   0.1
    5    -284.2392807343476306    -5.32e-02  5.91e-04  1.16e-02  9.50e-03  0.000   0.1
                              *** Initializing SOSCF ***
---------------------------------------S-O-S-C-F--------------------------------------
Iteration    Energy (Eh)           Delta-E    RMSDP     MaxDP     MaxGrad    Time(sec)
--------------------------------------------------------------------------------------
    6    -284.2398060725626010    -5.25e-04  2.25e-04  4.27e-03  3.15e-03     0.1
               *** Restarting incremental Fock matrix formation ***
    7    -284.2398492458149803    -4.32e-05  1.86e-04  3.15e-03  6.36e-04     0.1
    8    -284.2398382514665514     1.10e-05  9.47e-05  1.65e-03  1.83e-03     0.1
    9    -284.2398548389409143    -1.66e-05  7.12e-05  1.36e-03  2.71e-04     0.1
   10    -284.2398536145365711     1.22e-06  3.60e-05  6.03e-04  2.99e-04     0.1
   11    -284.2398560432560544    -2.43e-06  1.36e-05  2.23e-04  5.21e-05     0.1
   12    -284.2398559829445048     6.03e-08  7.60e-06  1.40e-04  8.68e-05     0.1
                 **** Energy Check signals convergence ****

               *****************************************************
               *                     SUCCESS                       *
               *           SCF CONVERGED AFTER  12 CYCLES          *
               *****************************************************

             **** ENERGY FILE WAS UPDATED (4.en.tmp) ****

----------------
TOTAL SCF ENERGY
----------------

Total Energy       :       -284.23985608849745 Eh           -7734.55970 eV

Components:
Nuclear Repulsion  :        180.62962897859950 Eh            4915.18209 eV
Electronic Energy  :       -464.86948506709695 Eh          -12649.74179 eV
One Electron Energy:       -745.81229631942051 Eh          -20294.58434 eV
Two Electron Energy:        280.94281125232357 Eh            7644.84255 eV

Virial components:
Potential Energy   :       -567.02825689755537 Eh          -15429.62330 eV
Kinetic Energy     :        282.78840080905792 Eh            7695.06360 eV
Virial Ratio       :          2.00513265492958

DFT components:
N(Alpha)           :       19.999986638316 electrons
N(Beta)            :       19.999986638316 electrons
N(Total)           :       39.999973276633 electrons
E(X)               :      -34.934160134510 Eh       
E(C)               :       -1.783302662424 Eh       
E(XC)              :      -36.717462796934 Eh       

---------------
SCF CONVERGENCE
---------------

  Last Energy change         ...   -6.0312e-08  Tolerance :   1.0000e-06
  Last MAX-Density change    ...    1.3992e-04  Tolerance :   1.0000e-05
  Last RMS-Density change    ...    7.5992e-06  Tolerance :   1.0000e-06
  Last DIIS Error            ...    3.1489e-03  Tolerance :   1.0000e-06
  Last Orbital Gradient      ...    8.6845e-05  Tolerance :   5.0000e-05
  Last Orbital Rotation      ...    6.9331e-05  Tolerance :   5.0000e-05


----------------
ORBITAL ENERGIES
----------------

  NO   OCC          E(Eh)            E(eV) 
   0   2.0000     -18.815981      -512.0089 
   1   2.0000     -18.750415      -510.2247 
   2   2.0000     -13.989197      -380.6654 
   3   2.0000     -10.032809      -273.0066 
   4   2.0000      -9.946463      -270.6570 
   5   2.0000      -1.022671       -27.8283 
   6   2.0000      -0.930878       -25.3305 
   7   2.0000      -0.812925       -22.1208 
   8   2.0000      -0.649112       -17.6632 
   9   2.0000      -0.561894       -15.2899 
  10   2.0000      -0.453125       -12.3302 
  11   2.0000      -0.431019       -11.7286 
  12   2.0000      -0.421475       -11.4689 
  13   2.0000      -0.400998       -10.9117 
  14   2.0000      -0.368894       -10.0381 
  15   2.0000      -0.345828        -9.4105 
  16   2.0000      -0.334793        -9.1102 
  17   2.0000      -0.273576        -7.4444 
  18   2.0000      -0.223863        -6.0916 
  19   2.0000      -0.190159        -5.1745 
  20   0.0000      -0.015442        -0.4202 
  21   0.0000       0.045218         1.2304 
  22   0.0000       0.081448         2.2163 
  23   0.0000       0.114342         3.1114 
  24   0.0000       0.131924         3.5898 
  25   0.0000       0.150939         4.1073 
  26   0.0000       0.192472         5.2374 
  27   0.0000       0.211820         5.7639 
  28   0.0000       0.277654         7.5554 
  29   0.0000       0.332426         9.0458 
  30   0.0000       0.509360        13.8604 
*Only the first 10 virtual orbitals were printed.

                    ********************************
                    * MULLIKEN POPULATION ANALYSIS *
                    ********************************

-----------------------
MULLIKEN ATOMIC CHARGES
-----------------------
   0 C :   -0.143399
   1 C :    0.515589
   2 H :    0.241776
   3 H :    0.252656
   4 N :   -0.584720
   5 O :   -0.456057
   6 H :    0.148364
   7 H :    0.115215
   8 H :    0.322285
   9 O :   -0.411707
Sum of atomic charges:    0.0000000

--------------------------------
MULLIKEN REDUCED ORBITAL CHARGES
--------------------------------
  0 C s       :     3.205453  s :     3.205453
      pz      :     0.970738  p :     2.887575
      px      :     1.031541
      py      :     0.885297
      dz2     :     0.004361  d :     0.050371
      dxz     :     0.012310
      dyz     :     0.014750
      dx2y2   :     0.008122
      dxy     :     0.010827

  1 C s       :     2.971612  s :     2.971612
      pz      :     0.746702  p :     2.386859
      px      :     0.780556
      py      :     0.859601
      dz2     :     0.028056  d :     0.125940
      dxz     :     0.032340
      dyz     :     0.020896
      dx2y2   :     0.023963
      dxy     :     0.020685

  2 H s       :     0.734237  s :     0.734237
      pz      :     0.006924  p :     0.023987
      px      :     0.007552
      py      :     0.009512

  3 H s       :     0.723097  s :     0.723097
      pz      :     0.009509  p :     0.024247
      px      :     0.008744
      py      :     0.005994

  4 N s       :     3.609797  s :     3.609797
      pz      :     1.266426  p :     3.946999
      px      :     1.478400
      py      :     1.202173
      dz2     :     0.001883  d :     0.027924
      dxz     :     0.007642
      dyz     :     0.008247
      dx2y2   :     0.003750
      dxy     :     0.006402

  5 O s       :     3.818890  s :     3.818890
      pz      :     1.395481  p :     4.614624
      px      :     1.678147
      py      :     1.540996
      dz2     :     0.004560  d :     0.022544
      dxz     :     0.006105
      dyz     :     0.004249
      dx2y2   :     0.003521
      dxy     :     0.004110

  6 H s       :     0.840851  s :     0.840851
      pz      :     0.003478  p :     0.010785
      px      :     0.004940
      py      :     0.002367

  7 H s       :     0.873544  s :     0.873544
      pz      :     0.004161  p :     0.011241
      px      :     0.004135
      py      :     0.002945

  8 H s       :     0.639658  s :     0.639658
      pz      :     0.010836  p :     0.038057
      px      :     0.010268
      py      :     0.016953

  9 O s       :     3.856321  s :     3.856321
      pz      :     1.647090  p :     4.527094
      px      :     1.381440
      py      :     1.498565
      dz2     :     0.003522  d :     0.028292
      dxz     :     0.004934
      dyz     :     0.004242
      dx2y2   :     0.008917
      dxy     :     0.006677



                     *******************************
                     * LOEWDIN POPULATION ANALYSIS *
                     *******************************

----------------------
LOEWDIN ATOMIC CHARGES
----------------------
   0 C :   -0.089182
   1 C :    0.118706
   2 H :    0.125485
   3 H :    0.126764
   4 N :   -0.271460
   5 O :   -0.139376
   6 H :    0.090246
   7 H :    0.068482
   8 H :    0.184453
   9 O :   -0.214118

-------------------------------
LOEWDIN REDUCED ORBITAL CHARGES
-------------------------------
  0 C s       :     2.898775  s :     2.898775
      pz      :     1.032948  p :     3.078299
      px      :     1.063899
      py      :     0.981452
      dz2     :     0.008295  d :     0.112108
      dxz     :     0.026818
      dyz     :     0.035459
      dx2y2   :     0.017414
      dxy     :     0.024122

  1 C s       :     2.847567  s :     2.847567
      pz      :     0.879788  p :     2.734670
      px      :     0.907206
      py      :     0.947675
      dz2     :     0.066898  d :     0.299057
      dxz     :     0.081967
      dyz     :     0.047321
      dx2y2   :     0.052911
      dxy     :     0.049961

  2 H s       :     0.795518  s :     0.795518
      pz      :     0.023280  p :     0.078997
      px      :     0.024751
      py      :     0.030966

  3 H s       :     0.792796  s :     0.792796
      pz      :     0.030814  p :     0.080439
      px      :     0.031516
      py      :     0.018109

  4 N s       :     3.196596  s :     3.196596
      pz      :     1.299482  p :     4.017439
      px      :     1.476667
      py      :     1.241290
      dz2     :     0.004503  d :     0.057425
      dxz     :     0.014214
      dyz     :     0.018994
      dx2y2   :     0.007317
      dxy     :     0.012396

  5 O s       :     3.468725  s :     3.468725
      pz      :     1.419395  p :     4.620402
      px      :     1.670662
      py      :     1.530344
      dz2     :     0.011731  d :     0.050249
      dxz     :     0.014709
      dyz     :     0.011541
      dx2y2   :     0.005744
      dxy     :     0.006524

  6 H s       :     0.870800  s :     0.870800
      pz      :     0.012250  p :     0.038955
      px      :     0.018431
      py      :     0.008274

  7 H s       :     0.892313  s :     0.892313
      pz      :     0.014942  p :     0.039206
      px      :     0.014508
      py      :     0.009756

  8 H s       :     0.699634  s :     0.699634
      pz      :     0.031430  p :     0.115913
      px      :     0.030963
      py      :     0.053520

  9 O s       :     3.553085  s :     3.553085
      pz      :     1.636395  p :     4.602767
      px      :     1.435579
      py      :     1.530792
      dz2     :     0.007731  d :     0.058266
      dxz     :     0.010653
      dyz     :     0.007768
      dx2y2   :     0.013562
      dxy     :     0.018551



                      *****************************
                      * MAYER POPULATION ANALYSIS *
                      *****************************

  NA   - Mulliken gross atomic population
  ZA   - Total nuclear charge
  QA   - Mulliken gross atomic charge
  VA   - Mayer's total valence
  BVA  - Mayer's bonded valence
  FA   - Mayer's free valence

  ATOM       NA         ZA         QA         VA         BVA        FA
  0 C      6.1434     6.0000    -0.1434     3.8466     3.8466     0.0000
  1 C      5.4844     6.0000     0.5156     3.9970     3.9970     0.0000
  2 H      0.7582     1.0000     0.2418     0.9183     0.9183    -0.0000
  3 H      0.7473     1.0000     0.2527     0.9233     0.9233    -0.0000
  4 N      7.5847     7.0000    -0.5847     2.8333     2.8333     0.0000
  5 O      8.4561     8.0000    -0.4561     2.0535     2.0535    -0.0000
  6 H      0.8516     1.0000     0.1484     0.9457     0.9457    -0.0000
  7 H      0.8848     1.0000     0.1152     0.9401     0.9401     0.0000
  8 H      0.6777     1.0000     0.3223     0.9159     0.9159     0.0000
  9 O      8.4117     8.0000    -0.4117     2.1143     2.1143     0.0000

  Mayer bond orders larger than 0.100000
B(  0-C ,  1-C ) :   0.9503 B(  0-C ,  4-N ) :   1.0068 B(  0-C ,  6-H ) :   0.9393 
B(  0-C ,  7-H ) :   0.9148 B(  1-C ,  5-O ) :   1.0964 B(  1-C ,  9-O ) :   1.9340 
B(  2-H ,  4-N ) :   0.9083 B(  3-H ,  4-N ) :   0.8969 B(  5-O ,  8-H ) :   0.8500 


-------
TIMINGS
-------

Total SCF time: 0 days 0 hours 0 min 1 sec 

Total time                  ....       1.832 sec
Sum of individual times     ....       1.704 sec  ( 93.0%)

SCF preparation             ....       0.021 sec  (  1.2%)
Fock matrix formation       ....       1.591 sec  ( 86.8%)
  Startup                   ....       0.000 sec  (  0.0% of F)
  Split-RI-J                ....       0.361 sec  ( 22.7% of F)
  XC integration            ....       1.348 sec  ( 84.7% of F)
    XC Preparation          ....       0.000 sec  (  0.0% of XC)
    Basis function eval.    ....       0.457 sec  ( 33.9% of XC)
    Density eval.           ....       0.237 sec  ( 17.6% of XC)
    XC-Functional eval.     ....       0.354 sec  ( 26.2% of XC)
    XC-Potential eval.      ....       0.261 sec  ( 19.3% of XC)
Diagonalization             ....       0.000 sec  (  0.0%)
Density matrix formation    ....       0.001 sec  (  0.1%)
Total Energy calculation    ....       0.000 sec  (  0.0%)
Population analysis         ....       0.070 sec  (  3.8%)
Orbital Transformation      ....       0.007 sec  (  0.4%)
Orbital Orthonormalization  ....       0.000 sec  (  0.0%)
DIIS solution               ....       0.006 sec  (  0.3%)
SOSCF solution              ....       0.007 sec  (  0.4%)
Finished LeanSCF after   1.8 sec

Maximum memory used throughout the entire LEANSCF-calculation: 10.2 MB



-------------------------------------------------------------------------------
                          DFT DISPERSION CORRECTION                            
-------------------------------------------------------------------------------
Active option DFTDOPT                   ...         2   
Final C6-coefficient scaling factor     ...     1.250
Final VDW-radii scaling factor          ...     1.100
Damping factor alpha                    ...    20.000
-------------------------   ----------------
Dispersion correction           -0.006851734
-------------------------   ----------------


-------------------------   --------------------
FINAL SINGLE POINT ENERGY      -284.246707822833
-------------------------   --------------------


------------------------------------------------------------------------------
                              ORCA PROPERTY CALCULATIONS
------------------------------------------------------------------------------

GBWName                                 ... 4.gbw
Number of atoms                         ...     10
Number of basis functions               ...     95
Max core memory                         ...   4096 MB

Electric properties:
Dipole moment                           ... YES
Quadrupole moment                       ...  NO
Static polarizability (Dipole/Dipole)   ...  NO
Static polarizability (Dipole/Quad.)    ...  NO
Static polarizability (Quad./Quad.)     ...  NO
Static polarizability (Velocity)        ...  NO
Static hyperpolarizability              ...  NO

Atomic electric properties:
Dipole moment                           ...  NO
Quadrupole moment                       ...  NO
Static polarizability                   ...  NO

Choice of electric origin               ... Center of mass
Position of electric origin             ...    -8.858543    -3.701465     1.256634

General magnetic properties:
Magnetizability                         ...  NO

EPR properties:
g-Tensor (aka g-matrix)                 ...  NO
Zero-Field splitting spin-orbit         ...  NO
Zero-field splitting spin-spin          ...  NO
Hyperfine couplings                     ...  NO (   0 nuclei)
Quadrupole couplings                    ...  NO (   0 nuclei)
Contact density                         ...  NO (   0 nuclei)

NMR properties:
Chemical shifts                         ...  NO (   0 nuclei)
Spin-rotation constants                 ...  NO (   0 nuclei)
Spin-spin couplings                     ...  NO (   0 nuclei,    0 pairs)

Choice of magnetic origin               ... GIAO
Position of magnetic origin             ...     0.000000     0.000000     0.000000

Properties with geometric perturbations:
SCF Hessian                             ...  NO
IR spectrum                             ...  NO
VCD spectrum                            ...  NO
X-ray spectroscopy properties:
SCF XES/XAS/RIXS spectra                ...  NO

SCF SOC stabilization energy            ...  NO
Diagonal Born-Oppenheimer correction    ...  NO

-------------
DIPOLE MOMENT
-------------

Method             : SCF
Type of density    : Electron Density
Multiplicity       :   1
Irrep              :   0
Energy             :  -284.2398560884974472 Eh
Basis              : AO
                                X                 Y                 Z
Electronic contribution:      1.950366689      -3.318564248       1.249136840
Nuclear contribution   :     -2.861609104       3.437832286      -1.124976708
                        -----------------------------------------
Total Dipole Moment    :     -0.911242415       0.119268038       0.124160132
                        -----------------------------------------
Magnitude (a.u.)       :      0.927363651
Magnitude (Debye)      :      2.357171074



--------------------
Rotational spectrum 
--------------------
 
Rotational constants in cm-1:             0.332878             0.136481             0.101266 
Rotational constants in MHz :          9979.436585          4091.584331          3035.877262 

Dipole components along the rotational axes: 
x,y,z [a.u.] :    -0.533615    -0.495899    -0.573884 
x,y,z [Debye]:    -1.356342    -1.260475    -1.458697 

 

Dipole moment calculation done in   0.0 sec 

Maximum memory used throughout the entire PROP-calculation: 5.7 MB

--------------------------------
SUGGESTED CITATIONS FOR THIS RUN
--------------------------------

Below you find a list of papers that are relevant to this ORCA run
We neither can nor want to force you to cite these papers, but we appreciate if you do
You receive ORCA, which is the product of decades of hard work by many enthusiastic individuals, for free
The only thing we kindly ask in return is that you cite our papers,
We deeply appreciate it, if you show your appreciation for ORCA by not just citing the generic ORCA reference.

Please note that relegating all ORCA citations to the supporting information does *not* help us.
SI sections are not indexed - citations you put there will not count into any citation statistics
But we need these citations in order to attract the funding resources that allow us to do what we are doing

Therefore, if you are a happy ORCA user, please consider citing a few of the papers listed below in the main body of your paper

In addition to the list printed below, the program has created the file 4.bibtex that contains the list in bibtex format
You can import this file easily into all common literature databanks and citation aid programs


List of essential papers. We consider these as the minimum necessary citations

  1. Neese, F.
     Software update: the ORCA program system, version 6.0
     WIRES Comput. Molec. Sci. 2025 15(1), e70019
     doi.org/10.1002/wcms.7019

List of papers to cite with high priority. The work reported in these papers was absolutely
necessary for this run to complete.
Our perspective: the developers of density functionals and basis sets usually get cited in chemistry papers
Good! But without the algorithms to do something with them, the functionals or basis sets would not do anything.
Hence, in our opinion, the algorithm design and method developments papers are equally worthy of getting cited

  1. Neese, F.
     An improvement of the resolution of the identity approximation for the formation of the Coulomb matrix
     J. Comp. Chem. 2003 24(14), 1740-1747
     doi.org/10.1002/jcc.10318
  2. Grimme, S.
     Semiempirical GGA-type density functional constructed with a long-range dispersion correction
     J.Comput.Chem. 2006 27(15), 1787-1799
     doi.org/10.1002/jcc.20495
  3. Neese, F.
     The SHARK Integral Generation and Digestion System
     J. Comp. Chem. 2022 44(3), 381
     doi.org/10.1002/jcc.26942

List of suggested additional citations. These are papers that are important in the 'surrounding' of 
of this run, or papers that preceded the highly important papers. If you like your results we are grateful for a citation.

  1. Neese, F.
     The ORCA program system
     WIRES Comput. Molec. Sci. 2012 2(1), 73-78
     doi.org/10.1002/wcms.81
  2. Neese, F.
     Software update: the ORCA program system, version 4.0
     WIRES Comput. Molec. Sci. 2018 8(1), 1-6
     doi.org/10.1002/wcms.1327
  3. Neese, F.; Wennmohs, F.; Becker, U.; Riplinger, C.
     The ORCA quantum chemistry program package
     J. Chem. Phys. 2020 152(22), 224108
     doi.org/10.1063/5.0004608
  4. Neese, F.
     Software update: The ORCA program system—Version 5.0
     WIRES Comput. Molec. Sci. 2022 12(1), e1606
     doi.org/10.1002/wcms.1606

List of optional additional citations

  1. Neese, F.
     Approximate second-order SCF convergence for spin unrestricted wavefunctions
     Chem. Phys. Lett. 2000 325(1-3), 93-98
     doi.org/10.1016/s0009-2614(00)00662-x

Timings for individual modules:

Sum of individual times          ...        2.164 sec (=   0.036 min)
Startup calculation              ...        0.177 sec (=   0.003 min)   8.2 %
SCF iterations                   ...        1.958 sec (=   0.033 min)  90.5 %
Property calculations            ...        0.029 sec (=   0.000 min)   1.4 %
                             ****ORCA TERMINATED NORMALLY****
TOTAL RUN TIME: 0 days 0 hours 0 minutes 2 seconds 207 msec
