
                                 *****************
                                 * O   R   C   A *
                                 *****************

                                            #,                                       
                                            ###                                      
                                            ####                                     
                                            #####                                    
                                            ######                                   
                                           ########,                                 
                                     ,,################,,,,,                         
                               ,,#################################,,                 
                          ,,##########################################,,             
                       ,#########################################, ''#####,          
                    ,#############################################,,   '####,        
                  ,##################################################,,,,####,       
                ,###########''''           ''''###############################       
              ,#####''   ,,,,##########,,,,          '''####'''          '####       
            ,##' ,,,,###########################,,,                        '##       
           ' ,,###''''                  '''############,,,                           
         ,,##''                                '''############,,,,        ,,,,,,###''
      ,#''                                            '''#######################'''  
     '                                                          ''''####''''         
             ,#######,   #######,   ,#######,      ##                                
            ,#'     '#,  ##    ##  ,#'     '#,    #''#        ,####,    ,#,          
            ##       ##  ##   ,#'  ##            #'  '#       #'       ,# #          
            ##       ##  #######   ##           ,######,      #####,      #          
            '#,     ,#'  ##    ##  '#,     ,#' ,#      #,     #,   #      #          
             '#######'   ##     ##  '#######'  #'      '#     '####' #    #          



                #########################################################
                #                        -***-                          #
                #          Department of theory and spectroscopy        #
                #                                                       #
                #                      Frank Neese                      #
                #                                                       #
                #     Directorship, Architecture, Infrastructure        #
                #                    SHARK, DRIVERS                     #
                #        Core code/Algorithms in most modules           #
                #                                                       #
                #        Max Planck Institute fuer Kohlenforschung      #
                #                Kaiser Wilhelm Platz 1                 #
                #                 D-45470 Muelheim/Ruhr                 #
                #                      Germany                          #
                #                                                       #
                #                  All rights reserved                  #
                #                        -***-                          #
                #########################################################


                         Program Version 6.1.0  -  RELEASE   -
                                (GIT: $679e74b$)
                          ($2025-06-10 18:02:51 +0200$)


 With contributions from (in alphabetic order):
[Max-Planck-Institut fuer Kohlenforschung]                               
  Daniel Aravena         : Magnetic Suceptibility                        
  Michael Atanasov       : Ab Initio Ligand Field Theory (pilot matlab implementation)
  Alexander A. Auer      : GIAO ZORA, VPT2 properties, NMR spectrum      
  Ute Becker             : All parallelization in ORCA, NUMFREQ, NUMCALC 
  Giovanni Bistoni       : ED, misc. LED, open-shell LED, HFLD           
  Dmytro Bykov           : pre 5.0 version of the SCF Hessian            
  Marcos Casanova-Páez   : Triplet and SCS-CIS(D). UHF-(DLPNO)-IP/EA/STEOM-CCSD. UHF-CVS-IP/STEOM-CCSD   
  Vijay G. Chilkuri      : MRCI spin determinant printing, contributions to CSF-ICE 
  Pauline Colinet        : FMM embedding                                 
  Dipayan Datta          : RHF DLPNO-CCSD density                        
  Achintya Kumar Dutta   : EOM-CC, STEOM-CC                              
  Nicolas Foglia         : Exact transition moments, OPA infrastructure, MCD improvements    
  Dmitry Ganyushin       : Spin-Orbit,Spin-Spin,Magnetic field MRCI      
  Miquel Garcia-Rates    : C-PCM and meta-GGA Hessian, CCSD/C-PCM, Gaussian charge scheme 
  Tiago L. C. Gouveia    : GS-ROHF, GS-ROCIS                             
  Yang Guo               : DLPNO-NEVPT2, F12-NEVPT2, CIM, IAO-localization        
  Andreas Hansen         : Spin unrestricted coupled pair/coupled cluster methods 
  Ingolf Harden          : AUTO-CI MPn and infrastructure                
  Benjamin Helmich-Paris : MC-RPA, TRAH-(SCF,CASSCF), AVAS, COSX integrals, SCF dyn. polar., MC-PDFT, srDFT 
  Lee Huntington         : MR-EOM, pCC                                   
  Robert Izsak           : Overlap fitted RIJCOSX, COSX-SCS-MP3, EOM     
  Riya Kayal             : Wick's Theorem for AUTO-CI, AUTO-CI UHF-CCSDT 
  Emily Kempfer          : AUTO-CI RHF CISDT and CCSDT, approximate NEVPT4
  Christian Kollmar      : KDIIS, OOCD, Brueckner-CCSD(T), CCSD density, CASPT2, CASPT2-K, improved NEVPT2 
  Axel Koslowski         : Symmetry handling                             
  Simone Kossmann        : meta-GGA functionals, TD-DFT gradient, OOMP2, (MP2 Hessian; deprecated post 5.0) 
  Lucas Lang             : DCDCAS, Hyperfine gauge corrections, ICE-SOC+SSC
  Marvin Lechner         : AUTO-CI (C++ implementation), FIC-MRCC        
  Spencer Leger          : CASSCF response                               
  Dagmar Lenk            : GEPOL surface, SMD, ORCA-2-JSON               
  Dimitrios Liakos       : Extrapolation schemes; Compound Job, Property file
  Dimitrios Manganas     : Further ROCIS development; embedding schemes. LFT, Crystal Embedding 
  Dimitrios Pantazis     : SARC Basis sets                               
  Anastasios Papadopoulos: AUTO-CI, single reference methods and gradients 
  Taras Petrenko         : pre 6.0 DFT Hessian and TD-DFT gradient,  ECA, NRVS 
  Petra Pikulova         : Analytic Raman intensities                    
  Peter Pinski           : DLPNO-MP2, DLPNO-MP2 Gradient                 
  Shashank Vittal Rao    : ES-AILFT, MagRelax                            
  Christoph Reimann      : Effective Core Potentials                     
  Marius Retegan         : Local ZFS, SOC                                
  Christoph Riplinger    : Optimizer, TS searches, QM/MM, DLPNO-CCSD(T), (RO)-DLPNO pert. Triples 
  Michael Roemelt        : Original ROCIS implementation, recursive CI coupling coefficients
  Masaaki Saitow         : Open-shell DLPNO-CCSD energy and density      
  Barbara Sandhoefer     : DKH picture change effects                    
  Yorick L. A. Schmerwitz: GMF and freeze-and-release deltaSCF, NEB S-IDPP initial path                    
  Kantharuban Sivalingam : CASSCF convergence/infrastructure, NEVPT2, NEVPT3, NEVPT4(SD), FIC-MRCI and CEPA variants
  Bernardo de Souza      : ESD, SOC TD-DFT                               
  Georgi L. Stoychev     : AutoAux, RI-MP2 NMR, DLPNO-MP2 response, X2C  
  Van Anh Tran           : RI-MP2 g-tensors                              
  Willem Van den Heuvel  : Paramagnetic NMR                              
  Zikuan Wang            : NOTCH, Electric field optimization            
  Frank Wennmohs         : Technical directorship and infrastructure     
  Hang Xu                : AUTO-CI-Response properties                   
                                                                         
[FACCTs GmbH]                                                            
  Markus Bursch, Nicolas Foglia, Miquel Garcia-Rates, Ingolf Harden, Hagen Neugebauer, Anastasios Papadopoulos, 
  Christoph Riplinger, Bernardo de Souza, Georgi L. Stoychev                                                    
                                                                 
  APM, various basis sets, CI-OPT, improved COSX, DLPNO-Multilevel,           
  DOCKER, DRACO, updates on ESD, Fragmentator, GOAT, IRC, LR-CPCM, L-BFGS, MBIS, meta-GGA TD-DFT gradient, ML-optimized integration grids, 
  MM, NACMEs, nearIR, NEB, NEB-TS, NL-DFT gradient (VV10), 2- and 3-layer-ONIOM, interface openCOSMO-RS, QMMM,   
  Crystal-QMMM, RESP, rigid body optimization, SF, symmetry and pop. for TD-DFT, various functionals, SOLVATOR                                   
                                                                         
[Other institutions]                                                     
  V. Asgeirsson          : NEB                                           
  Christoph Bannwarth    : sTDA-DFT, sTD-DFT, PBEh-3c, B97-3c, D3        
  Giovanni Bistoni       : ETS/NOCV, ADLD/ADEX, COVALED                  
  Martin Brehm           : Molecular dynamics                            
  Ronald Cardenas        : ETS/NOCV                                      
  Martina Colucci        : COVALED                                       
  Sebastian Ehlert       : rSCAN, r2SCAN, r2SCAN-3c, D4, dhf basis sets  
  Marvin Friede          : D4 for Fr, Ra, Ac-Lr                          
  Lars Goerigk           : TD-DFT with DH, B97 family of functionals     
  Stefan Grimme          : VdW corrections, initial TS optimization, DFT functionals, gCP, sTDA/sTD-DF 
  Waldemar Hujo          : DFT-NL                                        
  H. Jonsson             : NEB                                           
  Holger Kruse           : gCP                                           
  Marcel Mueller         : wB97X-3c, vDZP basis set                      
  Hagen Neugebauer       : wr2SCAN, Native XTB                           
  Gianluca Regni         : ADLD/ADEX                                     
  Tobias Risthaus        : pre 6.0 range-separated hybrid DFT and stability analysis
  Lukas Wittmann         : regularized MP2, r2SCAN double-hybrids, wr2SCAN        
                                                                         
We gratefully acknowledge several colleagues who have allowed us to      
interface, adapt or use parts of their codes:                            
  Ed Valeev, F. Pavosevic, A. Kumar             : LibInt (2-el integral package), F12 methods 
  Garnet Chan, S. Sharma, J. Yang, R. Olivares  : DMRG                   
  Ulf Ekstrom                                   : XCFun DFT Library      
  Mihaly Kallay                                 : mrcc  (arbitrary order and MRCC methods)
  Frank Weinhold                                : gennbo (NPA and NBO analysis)           
  Simon Mueller                                 : openCOSMO-RS                            
  Christopher J. Cramer and Donald G. Truhlar   : smd solvation model                     
  S Lehtola, MJT Oliveira, MAL Marques          : LibXC Library                           
  Liviu Ungur et al                             : ANISO software                          


 Your calculation uses the libint2 library for the computation of 2-el integrals
 For citations please refer to: http://libint.valeyev.net

 Your ORCA version has been built with support for libXC version: 7.0.0
 For citations please refer to: https://libxc.gitlab.io

 This ORCA versions uses:
   CBLAS   interface :  Fast vector & matrix operations
   LAPACKE interface :  Fast linear algebra routines
   SCALAPACK package :  Parallel linear algebra routines
   Shared memory     :  Shared parallel matrices
   BLAS/LAPACK       :  OpenBLAS 0.3.29  USE64BITINT DYNAMIC_ARCH NO_AFFINITY Haswell SINGLE_THREADED
        Core in use  :  Haswell
   Copyright (c) 2011-2014, The OpenBLAS Project


  ***********************************
  * Starting time: Sat Aug 30 14:48:48 2025
  * Host name:     chemlab03
  * Process ID:    75137
  * Working dir.:  /home/vivek/mm-project/vivek/xtb-goat/B97-D-opt/c/0
  ***********************************



***************************************
The coordinates will be read from file: /home/vivek/mm-project/vivek/xtb-goat/xtb-goat/c/C_CONF/0.xyz
***************************************


Your calculation utilizes empirical dispersion correction


Warning: RI is on but no J-basis has been assigned. Assigning Def2/J (nothing to worry about!)
================================================================================

----- Orbital basis set information -----
Your calculation utilizes the basis: 6-31G**
   H-He, Li-Ne : W. J. Hehre, R. Ditchfield and J.A. Pople, J. Chem. Phys. 56, 2257 (1972).
                 Note: He and Ne are unpublished basis sets taken from the Gaussian program.
                 Note: Li and B from J. D. Dill and J. A. Pople, J. Chem. Phys. 62, 2921 (1975).
   Na - Ar     : M. M. Francl, W. J. Pietro, W. J. Hehre, J. S. Binkley, M. S. Gordon, 
                 D. J. DeFrees and J. A. Pople, J. Chem. Phys. 77, 3654 (1982).
   K - Zn      : V. A. Rassolov, J. A. Pople, M. A. Ratner, and T. L. Windus, J. Chem. Phys. 109, 1223 (1998).

----- AuxJ basis set information -----
Your calculation utilizes the auxiliary basis: def2/J
   H-Rn: F. Weigend, Phys. Chem. Chem. Phys. 8, 1057 (2006).
   Fr-Lr: K. Eichkorn, F. Weigend, O. Treutler, R. Ahlrichs; Theor. Chem. Acc. 97, 119 (1997).

================================================================================
                                        WARNINGS
                       Please study these warnings very carefully!
================================================================================

WARNING: Old DensityContainer found on disk!
         Will remove this file - 
         If you want to keep old densities, please start your calculation with a different basename. 


WARNING: Geometry Optimization
  ===> : Switching off AutoStart
         For restart on a previous wavefunction, please use MOREAD

INFO   : The exchange functional is Grimme's B97(-D)
         As described in S. Grimme, J. Comput. Chem. 27, 1787 (2006).
         Note that this functional defaults to a pure GGA. 

INFO   : The correlation functional is Grimme's B97(-D)
         As described in S. Grimme, J. Comput. Chem. 27, 1787 (2006).

================================================================================
                                       INPUT FILE
================================================================================
NAME = 0.inp
|  1> ! B97-D 6-31G** opt
|  2> 
|  3> * xyzfile 0 1 /home/vivek/mm-project/vivek/xtb-goat/xtb-goat/c/C_CONF/0.xyz
|  4> 
|  5>                          ****END OF INPUT****
================================================================================

                       *****************************
                       * Geometry Optimization Run *
                       *****************************

Geometry optimization settings:
Update method            Update   .... BFGS
Choice of coordinates    CoordSys .... (2022) Redundant Internals
Initial Hessian          InHess   .... Almloef's Model
Max. no of cycles        MaxIter  .... 50

Convergence Tolerances:
Energy Change            TolE     ....  5.0000e-06 Eh
Max. Gradient            TolMAXG  ....  3.0000e-04 Eh/bohr
RMS Gradient             TolRMSG  ....  1.0000e-04 Eh/bohr
Max. Displacement        TolMAXD  ....  4.0000e-03 bohr
RMS Displacement         TolRMSD  ....  2.0000e-03 bohr
Strict Convergence                .... False

------------------------------------------------------------------------------
                        ORCA OPTIMIZATION COORDINATE SETUP
------------------------------------------------------------------------------

The optimization will be done in redundant internal coordinates (2022)
Making redundant internal coordinates   ...  (2022 redundants) done
Evaluating the initial hessian          ...  (Almloef) done
Evaluating the coordinates              ...  done
Calculating the B-matrix                .... done
Calculating the G-matrix                .... done
The number of degrees of freedom        ....   56

    -----------------------------------------------------------------
                    Redundant Internal Coordinates


    -----------------------------------------------------------------
         Definition                    Initial Value    Approx d2E/dq
    -----------------------------------------------------------------
      1. B(H   2,C   1)                  1.0884         0.362286   
      2. B(C   5,C   1)                  1.5325         0.370152   
      3. B(C   5,H   0)                  1.0949         0.353708   
      4. B(S   7,H   3)                  1.3300         0.402005   
      5. B(S   7,C   1)                  1.8216         0.345049   
      6. B(N   8,H   6)                  1.0136         0.426969   
      7. B(N   8,C   5)                  1.4485         0.451356   
      8. B(N   8,H   3)                  2.3407         0.010000   
      9. B(H   9,N   8)                  1.0167         0.422139   
     10. B(C  10,C   5)                  1.5272         0.377440   
     11. B(C  10,O   4)                  1.3332         0.689477   
     12. B(H  11,C   1)                  1.0910         0.358782   
     13. B(O  12,C  10)                  1.2017         1.117475   
     14. B(H  13,O   4)                  0.9714         0.498722   
     15. A(H   2,C   1,C   5)          110.9833         0.324151   
     16. A(H   2,C   1,H  11)          109.8632         0.290949   
     17. A(C   5,C   1,S   7)          110.4268         0.376780   
     18. A(H   2,C   1,S   7)          106.6090         0.336691   
     19. A(C   5,C   1,H  11)          110.4637         0.323634   
     20. A(S   7,C   1,H  11)          108.3897         0.336147   
     21. A(C  10,O   4,H  13)          110.9028         0.374251   
     22. A(C   1,C   5,N   8)          109.3244         0.372404   
     23. A(C   1,C   5,C  10)          107.7203         0.363419   
     24. A(H   0,C   5,N   8)          109.4932         0.331605   
     25. A(H   0,C   5,C  10)          108.7940         0.323913   
     26. A(N   8,C   5,C  10)          112.6464         0.373657   
     27. A(H   0,C   5,C   1)          108.7801         0.322879   
     28. A(C   1,S   7,H   3)           93.8179         0.367293   
     29. A(H   6,N   8,H   9)          107.1848         0.301418   
     30. A(C   5,N   8,H   9)          109.3263         0.338571   
     31. A(C   5,N   8,H   6)          110.8385         0.339214   
     32. A(O   4,C  10,C   5)          112.5074         0.402306   
     33. A(C   5,C  10,O  12)          123.9466         0.438491   
     34. A(O   4,C  10,O  12)          123.5418         0.486259   
     35. D(N   8,C   5,C   1,H   2)   -179.5154         0.010952   
     36. D(H   0,C   5,C   1,H   2)    -59.9943         0.010952   
     37. D(N   8,C   5,C   1,S   7)    -61.5123         0.010952   
     38. D(H   0,C   5,C   1,S   7)     58.0089         0.010952   
     39. D(H   0,C   5,C   1,H  11)    177.8964         0.010952   
     40. D(N   8,C   5,C   1,H  11)     58.3752         0.010952   
     41. D(H   3,S   7,C   1,H  11)    -75.3119         0.010000   
     42. D(H   3,S   7,C   1,C   5)     45.8170         0.010000   
     43. D(H   3,S   7,C   1,H   2)    166.4709         0.010000   
     44. D(H   9,N   8,C   5,C   1)    -72.8570         0.018636   
     45. D(H   9,N   8,C   5,H   0)    168.0628         0.018636   
     46. D(H   6,N   8,C   5,C  10)    -71.0721         0.018636   
     47. D(H   6,N   8,C   5,H   0)     50.1256         0.018636   
     48. D(H   9,N   8,C   5,C  10)     46.8651         0.018636   
     49. D(H   6,N   8,C   5,C   1)    169.2058         0.018636   
     50. D(O  12,C  10,C   5,C   1)    105.1973         0.010639   
     51. D(O  12,C  10,C   5,H   0)   -137.0442         0.010639   
     52. D(O   4,C  10,C   5,N   8)    165.2767         0.010639   
     53. D(O   4,C  10,C   5,C   1)    -74.0771         0.010639   
     54. D(O   4,C  10,C   5,H   0)     43.6814         0.010639   
     55. D(O  12,C  10,O   4,H  13)     -0.5389         0.035498   
     56. D(C   5,C  10,O   4,H  13)    178.7390         0.035498   
    -----------------------------------------------------------------

Number of atoms                         .... 14
Number of degrees of freedom            .... 56


         *************************************************************
         *                GEOMETRY OPTIMIZATION CYCLE   1            *
         *************************************************************
---------------------------------
CARTESIAN COORDINATES (ANGSTROEM)
---------------------------------
  H     -1.442345    2.082440    1.646858
  C     -2.904842    0.985021    0.513520
  H     -2.808970    0.069002    1.093374
  H     -4.011893    3.029491    0.580771
  O     -0.111764    0.025462    0.971106
  C     -1.625748    1.824809    0.598650
  H     -1.041076    3.689384    0.005527
  S     -4.314432    1.900622    1.215686
  N     -1.796367    3.037786   -0.174506
  H     -1.768451    2.811914   -1.165438
  C     -0.469825    0.963612    0.094152
  H     -3.134294    0.743766   -0.525433
  O      0.052695    1.103547   -0.978957
  H      0.610578   -0.520322    0.619163

----------------------------
CARTESIAN COORDINATES (A.U.)
----------------------------
  NO LB      ZA    FRAG     MASS         X           Y           Z
   0 H     1.0000    0     1.008   -2.725637    3.935241    3.112111
   1 C     6.0000    0    12.011   -5.489356    1.861419    0.970413
   2 H     1.0000    0     1.008   -5.308184    0.130396    2.066177
   3 H     1.0000    0     1.008   -7.581379    5.724909    1.097499
   4 O     8.0000    0    15.999   -0.211204    0.048115    1.835125
   5 C     6.0000    0    12.011   -3.072218    3.448389    1.131284
   6 H     1.0000    0     1.008   -1.967349    6.971925    0.010444
   7 S    16.0000    0    32.060   -8.153095    3.591655    2.297313
   8 N     7.0000    0    14.007   -3.394641    5.740584   -0.329768
   9 H     1.0000    0     1.008   -3.341888    5.313747   -2.202358
  10 C     6.0000    0    12.011   -0.887841    1.820963    0.177921
  11 H     1.0000    0     1.008   -5.922958    1.405515   -0.992925
  12 O     8.0000    0    15.999    0.099579    2.085402   -1.849960
  13 H     1.0000    0     1.008    1.153824   -0.983265    1.170049

--------------------------------
INTERNAL COORDINATES (ANGSTROEM)
--------------------------------
 H      0   0   0     0.000000000000     0.00000000     0.00000000
 C      1   0   0     2.151204606006     0.00000000     0.00000000
 H      2   1   0     1.088352282913    95.09380855     0.00000000
 H      2   1   3     2.325929134244    81.94863680   139.85533291
 O      1   2   3     2.541307794758    78.63543150    54.41794084
 C      1   2   3     1.094875031533    42.41278861   125.73233856
 H      6   1   2     2.042125289346    90.87423687   140.27420648
 S      4   2   1     1.330034588344    51.39282899   251.24791388
 N      7   6   1     1.013634668511    41.52285283   226.34804532
 H      9   7   6     1.016731570359   107.18477146   240.76627740
 C      5   1   2     1.333185278806    57.63643890    70.55802219
 H      2   1   3     1.090997850954   139.24407203   231.24798423
 O     11   5   1     1.201736604104   123.54180231   161.24143421
 H      5   1   2     0.971350175442   160.13573280   129.82914282

---------------------------
INTERNAL COORDINATES (A.U.)
---------------------------
 H      0   0   0     0.000000000000     0.00000000     0.00000000
 C      1   0   0     4.065187563381     0.00000000     0.00000000
 H      2   1   0     2.056687751934    95.09380855     0.00000000
 H      2   1   3     4.395369070630    81.94863680   139.85533291
 O      1   2   3     4.802375754092    78.63543150    54.41794084
 C      1   2   3     2.069013960465    42.41278861   125.73233856
 H      6   1   2     3.859057528018    90.87423687   140.27420648
 S      4   2   1     2.513401120613    51.39282899   251.24791388
 N      7   6   1     1.915491923333    41.52285283   226.34804532
 H      9   7   6     1.921344219690   107.18477146   240.76627740
 C      5   1   2     2.519355062718    57.63643890    70.55802219
 H      2   1   3     2.061687150999   139.24407203   231.24798423
 O     11   5   1     2.270953066865   123.54180231   161.24143421
 H      5   1   2     1.835585811721   160.13573280   129.82914282

---------------------
BASIS SET INFORMATION
---------------------
There are 5 groups of distinct atoms

 Group   1 Type H   : 4s1p contracted to 2s1p pattern {31/1}
 Group   2 Type C   : 10s4p1d contracted to 3s2p1d pattern {631/31/1}
 Group   3 Type O   : 10s4p1d contracted to 3s2p1d pattern {631/31/1}
 Group   4 Type S   : 16s10p1d contracted to 4s3p1d pattern {6631/631/1}
 Group   5 Type N   : 10s4p1d contracted to 3s2p1d pattern {631/31/1}

Atom   0H    basis set group =>   1
Atom   1C    basis set group =>   2
Atom   2H    basis set group =>   1
Atom   3H    basis set group =>   1
Atom   4O    basis set group =>   3
Atom   5C    basis set group =>   2
Atom   6H    basis set group =>   1
Atom   7S    basis set group =>   4
Atom   8N    basis set group =>   5
Atom   9H    basis set group =>   1
Atom  10C    basis set group =>   2
Atom  11H    basis set group =>   1
Atom  12O    basis set group =>   3
Atom  13H    basis set group =>   1
---------------------------------
AUXILIARY/J BASIS SET INFORMATION
---------------------------------
There are 5 groups of distinct atoms

 Group   1 Type H   : 5s2p1d contracted to 3s1p1d pattern {311/2/1}
 Group   2 Type C   : 12s5p4d2f1g contracted to 6s4p3d1f1g pattern {711111/2111/211/2/1}
 Group   3 Type O   : 12s5p4d2f1g contracted to 6s4p3d1f1g pattern {711111/2111/211/2/1}
 Group   4 Type S   : 14s5p5d2f1g contracted to 8s4p3d1f1g pattern {71111111/2111/311/2/1}
 Group   5 Type N   : 12s5p4d2f1g contracted to 6s4p3d1f1g pattern {711111/2111/211/2/1}

Atom   0H    basis set group =>   1
Atom   1C    basis set group =>   2
Atom   2H    basis set group =>   1
Atom   3H    basis set group =>   1
Atom   4O    basis set group =>   3
Atom   5C    basis set group =>   2
Atom   6H    basis set group =>   1
Atom   7S    basis set group =>   4
Atom   8N    basis set group =>   5
Atom   9H    basis set group =>   1
Atom  10C    basis set group =>   2
Atom  11H    basis set group =>   1
Atom  12O    basis set group =>   3
Atom  13H    basis set group =>   1
------------------------------------------------------------------------------
                             ORCA STARTUP CALCULATIONS
                           -- RI-GTO INTEGRALS CHOSEN --
------------------------------------------------------------------------------
------------------------------------------------------------------------------
                   ___                                                        
                  /   \      - P O W E R E D   B Y -                         
                 /     \                                                     
                 |  |  |   _    _      __       _____    __    __             
                 |  |  |  | |  | |    /  \     |  _  \  |  |  /  |          
                  \  \/   | |  | |   /    \    | | | |  |  | /  /          
                 / \  \   | |__| |  /  /\  \   | |_| |  |  |/  /          
                |  |  |   |  __  | /  /__\  \  |    /   |      \           
                |  |  |   | |  | | |   __   |  |    \   |  |\   \          
                \     /   | |  | | |  |  |  |  | |\  \  |  | \   \       
                 \___/    |_|  |_| |__|  |__|  |_| \__\ |__|  \__/        
                                                                              
                      - O R C A' S   B I G   F R I E N D -                    
                                      &                                       
                       - I N T E G R A L  F E E D E R -                       
                                                                              
 v1 FN, 2020, v2 2021, v3 2022-2024                                           
------------------------------------------------------------------------------


----------------------
SHARK INTEGRAL PACKAGE
----------------------

Number of atoms                             ...     14
Number of basis functions                   ...    137
Number of shells                            ...     65
Maximum angular momentum                    ...      2
Integral batch strategy                     ... SHARK/LIBINT Hybrid
RI-J (if used) integral strategy            ... SPLIT-RIJ (Revised 2003 algorithm where possible)
Printlevel                                  ...      1
Contraction scheme used                     ... SEGMENTED contraction
Prescreening option                         ... SCHWARTZ
   Thresh                                   ... 2.500e-11
   Tcut                                     ... 2.500e-12
   Tpresel                                  ... 2.500e-12 
Coulomb Range Separation                    ... NOT USED
Exchange Range Separation                   ... NOT USED
Multipole approximations                    ... NOT USED
Finite Nucleus Model                        ... NOT USED
CABS basis                                  ... NOT available
Auxiliary Coulomb fitting basis             ... AVAILABLE
   # of basis functions in Aux-J            ...    422
   # of shells in Aux-J                     ...    142
   Maximum angular momentum in Aux-J        ...      4
Auxiliary J/K fitting basis                 ... NOT available
Auxiliary Correlation fitting basis         ... NOT available
Auxiliary 'external' fitting basis          ... NOT available

Checking pre-screening integrals            ... done (  0.0 sec) Dimension = 65
   => SHARK Basis and OBASIS are compatible. Storing Pre-screening
Shell pair information
Shell pair cut-off parameter TPreSel        ...   2.5e-12
Total number of shell pairs                 ...      2145
Shell pairs after pre-screening             ...      2013
Total number of primitive shell pairs       ...     11826
Primitive shell pairs kept                  ...      7490
          la=0 lb=0:    619 shell pairs
          la=1 lb=0:    741 shell pairs
          la=1 lb=1:    240 shell pairs
          la=2 lb=0:    238 shell pairs
          la=2 lb=1:    147 shell pairs
          la=2 lb=2:     28 shell pairs

Checking whether 4 symmetric matrices of dimension 137 fit in memory
:Max Core in MB      =   4096.00
 MB in use           =      6.21
 MB left             =   4089.79
 MB needed           =      0.29
 Data fit in memory  = YES
Calculating RI/J V-Matrix + Cholesky decomp.... done (  0.0 sec)
Calculating Nuclear repulsion               ... done (  0.0 sec) ENN=    376.584038281029 Eh

Diagonalization of the overlap matrix:
Smallest eigenvalue                        ... 3.395e-03
Time for diagonalization                   ...    0.001 sec
Threshold for overlap eigenvalues          ... 1.000e-07
Number of eigenvalues below threshold      ... 0
Time for construction of square roots      ...    0.000 sec
Total time needed                          ...    0.001 sec

-------------------
DFT GRID GENERATION
-------------------

General Integration Accuracy     IntAcc      ... 4.388
Radial Grid Type                 RadialGrid  ... OptM3 with GC (2021)
Angular Grid (max. ang.)         AngularGrid ... 4 (Lebedev-302)
Angular grid pruning method      GridPruning ... 4 (adaptive)
Weight generation scheme         WeightScheme... mBecke (2022)
Basis function cutoff            BFCut       ... 1.0000e-11
Integration weight cutoff        WCut        ... 1.0000e-14
Partially contracted basis set               ... off
Rotationally invariant grid construction     ... off
Angular grids for H and He will be reduced by one unit

Total number of grid points                  ...    66166
Total number of batches                      ...     1041
Average number of points per batch           ...       63
Average number of grid points per atom       ...     4726
Grids setup in   0.2 sec
Initializing property integral containers    ... done (  0.0 sec)

SHARK setup successfully completed in   0.3 seconds

Maximum memory used throughout the entire STARTUP-calculation: 27.9 MB
-------------------------------------------------------------------------------
                                 ORCA GUESS
                   Start orbitals & Density for SCF / CASSCF
-------------------------------------------------------------------------------

------------
SCF SETTINGS
------------
Hamiltonian:
 Density Functional     Method          .... DFT(GTOs)
 Exchange Functional    Exchange        .... B97(D)
 Correlation Functional Correlation     .... B97(D)
 Gradients option       PostSCFGGA      .... off
 RI-approximation to the Coulomb term is turned on
   Number of AuxJ basis functions       .... 422


General Settings:
 Integral files         IntName         .... 0
 Hartree-Fock type      HFTyp           .... RHF
 Total Charge           Charge          ....    0
 Multiplicity           Mult            ....    1
 Number of Electrons    NEL             ....   64
 Basis Dimension        Dim             ....  137
 Nuclear Repulsion      ENuc            ....    376.5840382810 Eh

Convergence Acceleration:
 AO-DIIS                CNVDIIS         .... on
   Start iteration      DIISMaxIt       ....    12
   Startup error        DIISStart       ....  0.200000
   # of expansion vecs  DIISMaxEq       ....     5
   Bias factor          DIISBfac        ....   1.050
   Max. coefficient     DIISMaxC        ....  10.000
 MO-DIIS                CNVKDIIS        .... off
 Trust-Rad. Augm. Hess. CNVTRAH         .... auto
   Auto Start mean grad. ratio tolernc. ....  1.125000
   Auto Start start iteration           ....    50
   Auto Start num. interpolation iter.  ....    10
   Max. Number of Micro iterations      ....    24
   Max. Number of Macro iterations      .... Maxiter - #DIIS iter
   Number of Davidson start vectors     ....     2
   Converg. threshold    (grad. norm)   ....   1.000e-05
   Grad. Scal. Fac. for Micro threshold ....   0.100
   Minimum threshold for Micro iter.    ....   1.000e-02
   NR start threshold (gradient norm)   ....   1.000e-04
   Initial trust radius                 ....   0.400
   Minimum AH scaling param. (alpha)    ....   1.000
   Maximum AH scaling param. (alpha)    .... 1000.000
   Quad. conv. algorithm                .... NR
   White noise on init. David. guess    .... on
   Maximum white noise                  ....   0.010
   Pseudo random numbers                .... off
   Inactive MOs                         .... canonical
   Orbital update algorithm             .... Taylor
   Preconditioner                       .... Diag
   Full preconditioner red. dimension   ....   250
 SOSCF                 CNVSOSCF           .... on
   Start iteration     SOSCFMaxIt         ....   150
   Startup grad/error  SOSCFStart         ....  0.003300
   Hessian update      SOSCFHessUp        .... L-BFGS
   Autom. constraints  SOSCFAutoConstrain .... off
 Level Shifting         CNVShift        .... on
   Level shift para.    LevelShift      ....    0.2500
   Turn off err/grad.   ShiftErr        ....    0.0010
 Zerner damping         CNVZerner       .... off
 Static damping         CNVDamp         .... on
   Fraction old density DampFac         ....    0.7000
   Max. Damping (<1)    DampMax         ....    0.9800
   Min. Damping (>=0)   DampMin         ....    0.0000
   Turn off err/grad.   DampErr         ....    0.1000

SCF Procedure:
 Maximum # iterations   MaxIter         ....   125
 SCF integral mode      SCFMode         .... Direct
   Integral package                     .... SHARK and LIBINT hybrid scheme
 Reset frequency        DirectResetFreq ....    20
 Integral Threshold     Thresh          ....  2.500e-11 Eh
 Primitive CutOff       TCut            ....  2.500e-12 Eh

Convergence Tolerance:
 Convergence Check Mode ConvCheckMode   .... Total+1el-Energy
 Convergence forced     ConvForced      .... 0
 Energy Change          TolE            ....  1.000e-08 Eh
 1-El. energy change                    ....  1.000e-05 Eh
 Orbital Gradient       TolG            ....  1.000e-05
 Orbital Rotation angle TolX            ....  1.000e-05
 DIIS Error             TolErr          ....  5.000e-07

------------------------------
INITIAL GUESS: MODEL POTENTIAL
------------------------------
Loading Hartree-Fock densities                     ... done
Calculating cut-offs                               ... done
Initializing the effective Hamiltonian             ... done
Setting up the integral package (SHARK)            ... done
Starting the Coulomb interaction                   ... done (   0.0 sec)
Making the grid                                    ... done (   0.1 sec)
Mapping shells                                     ... done
Starting the XC term evaluation                    ... done (   0.1 sec)
  promolecular density results
     # of electrons  =     63.998207591
     EX              =    -64.734962827
     EC              =     -2.962111579
     EX+EC           =    -67.697074406
Transforming the Hamiltonian                       ... done (   0.0 sec)
Diagonalizing the Hamiltonian                      ... done (   0.0 sec)
Back transforming the eigenvectors                 ... done (   0.0 sec)
Now organizing SCF variables                       ... done
                      ------------------
                      INITIAL GUESS DONE (   0.2 sec)
                      ------------------
             **** ENERGY FILE WAS UPDATED (0.en.tmp) ****
Finished Guess after   0.2 sec
Maximum memory used throughout the entire GUESS-calculation: 10.3 MB

-------------------------------------------------------------------------------------------
                                      ORCA LEAN-SCF
                              memory conserving SCF solver
-------------------------------------------------------------------------------------------

----------------------------------------D-I-I-S--------------------------------------------
Iteration    Energy (Eh)           Delta-E    RMSDP     MaxDP     DIISErr   Damp  Time(sec)
-------------------------------------------------------------------------------------------
               ***  Starting incremental Fock matrix formation  ***
    1    -721.4681940505096236     0.00e+00  4.24e-03  9.90e-02  2.60e-01  0.700   0.3
    2    -721.5899393959624604    -1.22e-01  2.60e-03  5.22e-02  9.51e-02  0.700   0.3
                               ***Turning on AO-DIIS***
    3    -721.6250827542963862    -3.51e-02  9.87e-04  2.00e-02  2.51e-02  0.700   0.3
    4    -721.6490521857471094    -2.40e-02  1.37e-03  3.50e-02  1.41e-02  0.000   0.3
    5    -721.7056406168070453    -5.66e-02  4.82e-04  1.02e-02  8.90e-03  0.000   0.3
                              *** Initializing SOSCF ***
---------------------------------------S-O-S-C-F--------------------------------------
Iteration    Energy (Eh)           Delta-E    RMSDP     MaxDP     MaxGrad    Time(sec)
--------------------------------------------------------------------------------------
    6    -721.7062284649167623    -5.88e-04  1.58e-04  2.12e-03  2.99e-03     0.3
               *** Restarting incremental Fock matrix formation ***
    7    -721.7062774172776471    -4.90e-05  1.20e-04  2.43e-03  5.05e-04     0.3
    8    -721.7062683065631745     9.11e-06  6.22e-05  1.78e-03  1.30e-03     0.3
    9    -721.7062825056256088    -1.42e-05  5.08e-05  8.55e-04  1.79e-04     0.3
   10    -721.7062819633634945     5.42e-07  2.49e-05  4.02e-04  1.83e-04     0.3
   11    -721.7062836436683710    -1.68e-06  1.17e-05  2.66e-04  4.00e-05     0.3
   12    -721.7062835876876079     5.60e-08  6.43e-06  1.47e-04  4.80e-05     0.3
   13    -721.7062836971002753    -1.09e-07  1.71e-06  3.17e-05  4.29e-06     0.2
   14    -721.7062836972726245    -1.72e-10  8.91e-07  1.88e-05  5.84e-06     0.2
                 **** Energy Check signals convergence ****

               *****************************************************
               *                     SUCCESS                       *
               *           SCF CONVERGED AFTER  14 CYCLES          *
               *****************************************************

             **** ENERGY FILE WAS UPDATED (0.en.tmp) ****

----------------
TOTAL SCF ENERGY
----------------

Total Energy       :       -721.70628369736016 Eh          -19638.62639 eV

Components:
Nuclear Repulsion  :        376.58403828102917 Eh           10247.37265 eV
Electronic Energy  :      -1098.29032197838933 Eh          -29885.99904 eV
One Electron Energy:      -1739.29906052895194 Eh          -47328.73358 eV
Two Electron Energy:        641.00873855056261 Eh           17442.73455 eV

Virial components:
Potential Energy   :      -1441.21135305814209 Eh          -39217.35469 eV
Kinetic Energy     :        719.50506936078193 Eh           19578.72830 eV
Virial Ratio       :          2.00305934513920

DFT components:
N(Alpha)           :       32.000047612171 electrons
N(Beta)            :       32.000047612171 electrons
N(Total)           :       64.000095224342 electrons
E(X)               :      -65.656490831161 Eh       
E(C)               :       -2.954612835949 Eh       
E(XC)              :      -68.611103667110 Eh       

---------------
SCF CONVERGENCE
---------------

  Last Energy change         ...    1.7235e-10  Tolerance :   1.0000e-08
  Last MAX-Density change    ...    1.8825e-05  Tolerance :   1.0000e-07
  Last RMS-Density change    ...    8.9083e-07  Tolerance :   5.0000e-09
  Last DIIS Error            ...    2.9906e-03  Tolerance :   5.0000e-07
  Last Orbital Gradient      ...    5.8369e-06  Tolerance :   1.0000e-05
  Last Orbital Rotation      ...    5.1830e-06  Tolerance :   1.0000e-05


----------------
ORBITAL ENERGIES
----------------

  NO   OCC          E(Eh)            E(eV) 
   0   2.0000     -88.016793     -2395.0587 
   1   2.0000     -18.826121      -512.2848 
   2   2.0000     -18.765152      -510.6257 
   3   2.0000     -14.004011      -381.0685 
   4   2.0000     -10.039697      -273.1940 
   5   2.0000      -9.962768      -271.1007 
   6   2.0000      -9.945281      -270.6249 
   7   2.0000      -7.703806      -209.6312 
   8   2.0000      -5.738077      -156.1410 
   9   2.0000      -5.733516      -156.0169 
  10   2.0000      -5.726659      -155.8303 
  11   2.0000      -1.033149       -28.1134 
  12   2.0000      -0.944621       -25.7044 
  13   2.0000      -0.832764       -22.6607 
  14   2.0000      -0.720774       -19.6133 
  15   2.0000      -0.655705       -17.8426 
  16   2.0000      -0.581415       -15.8211 
  17   2.0000      -0.542452       -14.7609 
  18   2.0000      -0.474804       -12.9201 
  19   2.0000      -0.453601       -12.3431 
  20   2.0000      -0.431836       -11.7509 
  21   2.0000      -0.408962       -11.1284 
  22   2.0000      -0.402457       -10.9514 
  23   2.0000      -0.374817       -10.1993 
  24   2.0000      -0.353997        -9.6327 
  25   2.0000      -0.340195        -9.2572 
  26   2.0000      -0.330332        -8.9888 
  27   2.0000      -0.289383        -7.8745 
  28   2.0000      -0.283199        -7.7062 
  29   2.0000      -0.235927        -6.4199 
  30   2.0000      -0.215115        -5.8536 
  31   2.0000      -0.190420        -5.1816 
  32   0.0000      -0.033067        -0.8998 
  33   0.0000       0.023885         0.6499 
  34   0.0000       0.041872         1.1394 
  35   0.0000       0.063025         1.7150 
  36   0.0000       0.075855         2.0641 
  37   0.0000       0.095786         2.6065 
  38   0.0000       0.117437         3.1956 
  39   0.0000       0.137544         3.7428 
  40   0.0000       0.147407         4.0112 
  41   0.0000       0.180022         4.8987 
  42   0.0000       0.188530         5.1302 
*Only the first 10 virtual orbitals were printed.

                    ********************************
                    * MULLIKEN POPULATION ANALYSIS *
                    ********************************

-----------------------
MULLIKEN ATOMIC CHARGES
-----------------------
   0 H :    0.147982
   1 C :   -0.338413
   2 H :    0.162348
   3 H :    0.097576
   4 O :   -0.449282
   5 C :   -0.046060
   6 H :    0.253608
   7 S :   -0.073748
   8 N :   -0.555671
   9 H :    0.254762
  10 C :    0.488346
  11 H :    0.146813
  12 O :   -0.410610
  13 H :    0.322348
Sum of atomic charges:    0.0000000

--------------------------------
MULLIKEN REDUCED ORBITAL CHARGES
--------------------------------
  0 H s       :     0.841050  s :     0.841050
      pz      :     0.006508  p :     0.010967
      px      :     0.002403
      py      :     0.002056

  1 C s       :     3.304339  s :     3.304339
      pz      :     1.074731  p :     2.997391
      px      :     0.901079
      py      :     1.021580
      dz2     :     0.009028  d :     0.036684
      dxz     :     0.005398
      dyz     :     0.007519
      dx2y2   :     0.007895
      dxy     :     0.006843

  2 H s       :     0.825896  s :     0.825896
      pz      :     0.003719  p :     0.011756
      px      :     0.002494
      py      :     0.005543

  3 H s       :     0.885193  s :     0.885193
      pz      :     0.005679  p :     0.017231
      px      :     0.004410
      py      :     0.007142

  4 O s       :     3.823410  s :     3.823410
      pz      :     1.631242  p :     4.603041
      px      :     1.531700
      py      :     1.440099
      dz2     :     0.005209  d :     0.022831
      dxz     :     0.005200
      dyz     :     0.006751
      dx2y2   :     0.002039
      dxy     :     0.003633

  5 C s       :     3.195768  s :     3.195768
      pz      :     0.996990  p :     2.792999
      px      :     0.944776
      py      :     0.851233
      dz2     :     0.012489  d :     0.057293
      dxz     :     0.006109
      dyz     :     0.011290
      dx2y2   :     0.009881
      dxy     :     0.017523

  6 H s       :     0.722406  s :     0.722406
      pz      :     0.005062  p :     0.023985
      px      :     0.010103
      py      :     0.008821

  7 S s       :     5.849437  s :     5.849437
      pz      :     3.665012  p :    10.166893
      px      :     3.407311
      py      :     3.094570
      dz2     :     0.004150  d :     0.057419
      dxz     :     0.009162
      dyz     :     0.016220
      dx2y2   :     0.014763
      dxy     :     0.013123

  8 N s       :     3.586750  s :     3.586750
      pz      :     1.165458  p :     3.940974
      px      :     1.574156
      py      :     1.201359
      dz2     :     0.009515  d :     0.027947
      dxz     :     0.001864
      dyz     :     0.004529
      dx2y2   :     0.004181
      dxy     :     0.007858

  9 H s       :     0.721382  s :     0.721382
      pz      :     0.011586  p :     0.023856
      px      :     0.007149
      py      :     0.005121

 10 C s       :     2.982431  s :     2.982431
      pz      :     0.760879  p :     2.403839
      px      :     0.853252
      py      :     0.789708
      dz2     :     0.030411  d :     0.125384
      dxz     :     0.028764
      dyz     :     0.037887
      dx2y2   :     0.015429
      dxy     :     0.012892

 11 H s       :     0.841562  s :     0.841562
      pz      :     0.006222  p :     0.011625
      px      :     0.002789
      py      :     0.002614

 12 O s       :     3.856125  s :     3.856125
      pz      :     1.378433  p :     4.526236
      px      :     1.527667
      py      :     1.620136
      dz2     :     0.009746  d :     0.028249
      dxz     :     0.007868
      dyz     :     0.006822
      dx2y2   :     0.001764
      dxy     :     0.002049

 13 H s       :     0.639724  s :     0.639724
      pz      :     0.009476  p :     0.037928
      px      :     0.016060
      py      :     0.012392



                     *******************************
                     * LOEWDIN POPULATION ANALYSIS *
                     *******************************

----------------------
LOEWDIN ATOMIC CHARGES
----------------------
   0 H :    0.092537
   1 C :   -0.211506
   2 H :    0.093070
   3 H :    0.054785
   4 O :   -0.133735
   5 C :   -0.057939
   6 H :    0.132746
   7 S :   -0.011175
   8 N :   -0.237326
   9 H :    0.131845
  10 C :    0.099846
  11 H :    0.078713
  12 O :   -0.217188
  13 H :    0.185328

-------------------------------
LOEWDIN REDUCED ORBITAL CHARGES
-------------------------------
  0 H s       :     0.867241  s :     0.867241
      pz      :     0.025822  p :     0.040222
      px      :     0.007344
      py      :     0.007056

  1 C s       :     2.955247  s :     2.955247
      pz      :     1.101579  p :     3.175886
      px      :     1.000916
      py      :     1.073391
      dz2     :     0.019273  d :     0.080373
      dxz     :     0.011694
      dyz     :     0.014956
      dx2y2   :     0.016584
      dxy     :     0.017866

  2 H s       :     0.865305  s :     0.865305
      pz      :     0.012709  p :     0.041625
      px      :     0.006926
      py      :     0.021989

  3 H s       :     0.892453  s :     0.892453
      pz      :     0.016783  p :     0.052762
      px      :     0.011088
      py      :     0.024890

  4 O s       :     3.467555  s :     3.467555
      pz      :     1.640871  p :     4.614827
      px      :     1.520936
      py      :     1.453020
      dz2     :     0.009438  d :     0.051354
      dxz     :     0.008857
      dyz     :     0.015945
      dx2y2   :     0.005654
      dxy     :     0.011460

  5 C s       :     2.884246  s :     2.884246
      pz      :     1.044580  p :     3.042436
      px      :     1.026181
      py      :     0.971676
      dz2     :     0.027006  d :     0.131256
      dxz     :     0.012528
      dyz     :     0.026237
      dx2y2   :     0.021950
      dxy     :     0.043535

  6 H s       :     0.788012  s :     0.788012
      pz      :     0.013168  p :     0.079242
      px      :     0.037331
      py      :     0.028744

  7 S s       :     5.644208  s :     5.644208
      pz      :     3.699084  p :    10.303209
      px      :     3.466380
      py      :     3.137744
      dz2     :     0.004528  d :     0.063758
      dxz     :     0.010191
      dyz     :     0.017430
      dx2y2   :     0.016277
      dxy     :     0.015331

  8 N s       :     3.192605  s :     3.192605
      pz      :     1.192990  p :     3.987553
      px      :     1.556795
      py      :     1.237767
      dz2     :     0.019347  d :     0.057168
      dxz     :     0.002838
      dyz     :     0.012409
      dx2y2   :     0.008082
      dxy     :     0.014492

  9 H s       :     0.788440  s :     0.788440
      pz      :     0.044278  p :     0.079715
      px      :     0.020715
      py      :     0.014722

 10 C s       :     2.855039  s :     2.855039
      pz      :     0.959241  p :     2.745045
      px      :     0.914516
      py      :     0.871288
      dz2     :     0.072537  d :     0.300071
      dxz     :     0.069011
      dyz     :     0.094451
      dx2y2   :     0.034672
      dxy     :     0.029399

 11 H s       :     0.879655  s :     0.879655
      pz      :     0.025443  p :     0.041631
      px      :     0.007813
      py      :     0.008376

 12 O s       :     3.554062  s :     3.554062
      pz      :     1.462079  p :     4.604631
      px      :     1.536676
      py      :     1.605877
      dz2     :     0.020829  d :     0.058495
      dxz     :     0.018910
      dyz     :     0.012182
      dx2y2   :     0.003380
      dxy     :     0.003194

 13 H s       :     0.699144  s :     0.699144
      pz      :     0.028858  p :     0.115528
      px      :     0.049957
      py      :     0.036714



                      *****************************
                      * MAYER POPULATION ANALYSIS *
                      *****************************

  NA   - Mulliken gross atomic population
  ZA   - Total nuclear charge
  QA   - Mulliken gross atomic charge
  VA   - Mayer's total valence
  BVA  - Mayer's bonded valence
  FA   - Mayer's free valence

  ATOM       NA         ZA         QA         VA         BVA        FA
  0 H      0.8520     1.0000     0.1480     0.9493     0.9493    -0.0000
  1 C      6.3384     6.0000    -0.3384     3.8526     3.8526     0.0000
  2 H      0.8377     1.0000     0.1623     0.9446     0.9446     0.0000
  3 H      0.9024     1.0000     0.0976     0.9871     0.9871    -0.0000
  4 O      8.4493     8.0000    -0.4493     2.0400     2.0400    -0.0000
  5 C      6.0461     6.0000    -0.0461     3.8523     3.8523     0.0000
  6 H      0.7464     1.0000     0.2536     0.9165     0.9165     0.0000
  7 S     16.0737    16.0000    -0.0737     1.9702     1.9702    -0.0000
  8 N      7.5557     7.0000    -0.5557     2.9314     2.9314     0.0000
  9 H      0.7452     1.0000     0.2548     0.9288     0.9288    -0.0000
 10 C      5.5117     6.0000     0.4883     3.9645     3.9645     0.0000
 11 H      0.8532     1.0000     0.1468     0.9370     0.9370     0.0000
 12 O      8.4106     8.0000    -0.4106     2.1220     2.1220    -0.0000
 13 H      0.6777     1.0000     0.3223     0.9138     0.9138     0.0000

  Mayer bond orders larger than 0.100000
B(  0-H ,  5-C ) :   0.9217 B(  1-C ,  2-H ) :   0.9396 B(  1-C ,  5-C ) :   0.9612 
B(  1-C ,  7-S ) :   1.0041 B(  1-C , 11-H ) :   0.9357 B(  3-H ,  7-S ) :   0.9208 
B(  4-O , 10-C ) :   1.0908 B(  4-O , 13-H ) :   0.8493 B(  5-C ,  8-N ) :   1.0521 
B(  5-C , 10-C ) :   0.8931 B(  6-H ,  8-N ) :   0.9061 B(  8-N ,  9-H ) :   0.8930 
B( 10-C , 12-O ) :   1.9308 

-------
TIMINGS
-------

Total SCF time: 0 days 0 hours 0 min 4 sec 

Total time                  ....       4.094 sec
Sum of individual times     ....       3.815 sec  ( 93.2%)

SCF preparation             ....       0.025 sec  (  0.6%)
Fock matrix formation       ....       3.762 sec  ( 91.9%)
  Startup                   ....       0.001 sec  (  0.0% of F)
  Split-RI-J                ....       1.150 sec  ( 30.6% of F)
  XC integration            ....       2.840 sec  ( 75.5% of F)
    XC Preparation          ....       0.000 sec  (  0.0% of XC)
    Basis function eval.    ....       1.001 sec  ( 35.2% of XC)
    Density eval.           ....       0.568 sec  ( 20.0% of XC)
    XC-Functional eval.     ....       0.598 sec  ( 21.1% of XC)
    XC-Potential eval.      ....       0.602 sec  ( 21.2% of XC)
Diagonalization             ....       0.000 sec  (  0.0%)
Density matrix formation    ....       0.003 sec  (  0.1%)
Total Energy calculation    ....       0.001 sec  (  0.0%)
Population analysis         ....       0.002 sec  (  0.0%)
Orbital Transformation      ....       0.003 sec  (  0.1%)
Orbital Orthonormalization  ....       0.000 sec  (  0.0%)
DIIS solution               ....       0.012 sec  (  0.3%)
SOSCF solution              ....       0.009 sec  (  0.2%)
Finished LeanSCF after   4.1 sec

Maximum memory used throughout the entire LEANSCF-calculation: 14.9 MB



-------------------------------------------------------------------------------
                          DFT DISPERSION CORRECTION                            
-------------------------------------------------------------------------------
Active option DFTDOPT                   ...         2   
Final C6-coefficient scaling factor     ...     1.250
Final VDW-radii scaling factor          ...     1.100
Damping factor alpha                    ...    20.000
-------------------------   ----------------
Dispersion correction           -0.016579734
-------------------------   ----------------


-------------------------   --------------------
FINAL SINGLE POINT ENERGY      -721.722863431803
-------------------------   --------------------

------------------------------------------------------------------------------
                         ORCA SCF GRADIENT CALCULATION
------------------------------------------------------------------------------

Nuc. rep. gradient        (SHARK) ... done (  0.0 sec)
HCore & Overlap gradient  (SHARK) ... done (  0.1 sec)
Split-RIJ-J gradient      (SHARK) ... done (  0.3 sec)
XC gradient                       ... done (  1.4 sec)
Dispersion correction             ... done (  0.0 sec)

-------------------
DISPERSION GRADIENT
-------------------

   1   H   :    0.000128715   -0.000065281   -0.000101066
   2   C   :   -0.000255367    0.000865299    0.000484859
   3   H   :   -0.001085059    0.000440617   -0.000482385
   4   H   :    0.000234121   -0.000196824   -0.000081546
   5   O   :    0.000709695   -0.000163904   -0.000186550
   6   C   :   -0.000488341   -0.000612579   -0.000530226
   7   H   :   -0.000040323    0.000766863   -0.000461811
   8   S   :    0.000683272   -0.000479880   -0.000553195
   9   N   :   -0.000531426   -0.000633952    0.000825483
  10   H   :    0.000494123    0.000795669   -0.000272666
  11   C   :    0.000321254    0.000122015    0.000336495
  12   H   :   -0.000725048   -0.000559614    0.000968188
  13   O   :    0.000453606   -0.000437406    0.000368560
  14   H   :    0.000100779    0.000158977   -0.000314140

Difference to translation invariance:
           :    0.0000000000   -0.0000000000    0.0000000000

Difference to rotation invariance:
           :    0.0000000000    0.0000000000   -0.0000000000

Norm of the Dispersion gradient    ...    0.0033230637
RMS gradient                       ...    0.0005127599
MAX gradient                       ...    0.0010850587

------------------
CARTESIAN GRADIENT
------------------

   1   H   :    0.000201538   -0.000589333   -0.002862395
   2   C   :    0.005397161   -0.003262383   -0.003935011
   3   H   :   -0.001537258    0.005295339   -0.001413255
   4   H   :   -0.002815384   -0.010487756    0.005366433
   5   O   :    0.001276876    0.015452287   -0.025781026
   6   C   :   -0.002904835    0.000856176    0.001297819
   7   H   :   -0.003466755   -0.001303762    0.000111599
   8   S   :    0.015047823    0.007999664   -0.011641152
   9   N   :    0.004440334   -0.006977734   -0.000462789
  10   H   :   -0.002481619    0.001059155    0.002805435
  11   C   :    0.005135233   -0.006952409   -0.006173697
  12   H   :   -0.002445412    0.003670220    0.005999326
  13   O   :   -0.014043734   -0.003312006    0.030716610
  14   H   :   -0.001803968   -0.001447457    0.005972106

Difference to translation invariance:
           :   -0.0000000001    0.0000000000    0.0000000000

Difference to rotation invariance:
           :    0.0001350965   -0.0000602344   -0.0001984571

Norm of the Cartesian gradient     ...    0.0551662159
RMS gradient                       ...    0.0085123319
MAX gradient                       ...    0.0307166095

-------
TIMINGS
-------

Total SCF gradient time     ....        1.771 sec

Densities                   ....       0.000 sec  (  0.0%)
One electron gradient       ....       0.057 sec  (  3.2%)
RI-J Coulomb gradient       ....       0.339 sec  ( 19.1%)
XC gradient                 ....       1.374 sec  ( 77.6%)

Maximum memory used throughout the entire SCFGRAD-calculation: 19.4 MB
------------------------------------------------------------------------------
                         ORCA GEOMETRY RELAXATION STEP
------------------------------------------------------------------------------

Reading the OPT-File                    .... done
Getting information on internals        .... done
Copying old internal coords+grads       .... done
Making the new internal coordinates     .... (2022 redundants) done
Validating the new internal coordinates .... (2022 redundants) done
Calculating the B-matrix                .... done
Calculating the G,G- and P matrices     .... done
Transforming gradient to internals      .... done
Projecting the internal gradient        .... done
Number of atoms                         ....  14
Number of internal coordinates          ....  56
Current Energy                          ....  -721.722863432 Eh
Current gradient norm                   ....     0.055166216 Eh/bohr
Maximum allowed component of the step   ....  0.300
Current trust radius                    ....  0.300
Evaluating the initial hessian          ....  (Almloef) done
Projecting the Hessian                  .... done
Forming the augmented Hessian           .... done
Diagonalizing the augmented Hessian     .... done
Last element of RFO vector              ....  0.979357620
Lowest eigenvalues of augmented Hessian:
 -0.005321134  0.010015400  0.010641804  0.010881699  0.017975692
Length of the computed step             ....  0.206395731
The final length of the internal step   ....  0.206395731
Converting the step to Cartesian space:
 Initial RMS(Int)=    0.0275807897
Transforming coordinates:
 Iter   0:  RMS(Cart)=    0.0411026309 RMS(Int)=    0.8368184379
done
Storing new coordinates                 .... done

                                .--------------------.
          ----------------------|Geometry convergence|-------------------------
          Item                value                   Tolerance       Converged
          ---------------------------------------------------------------------
          RMS gradient        0.0068752359            0.0001000000      NO
          MAX gradient        0.0339201904            0.0003000000      NO
          RMS step            0.0275807897            0.0020000000      NO
          MAX step            0.1234381373            0.0040000000      NO
          -------------------------------------------------------------------------
          ........................................................
          Max(Bonds)      0.0653      Max(Angles)    1.61
          Max(Dihed)        3.36      Max(Improp)    0.00
          ---------------------------------------------------------------------

The optimization has not yet converged - more geometry cycles are needed


    ---------------------------------------------------------------------------
                         Redundant Internal Coordinates
                            (Angstroem and degrees)

        Definition                    Value    dE/dq     Step     New-Value
    ----------------------------------------------------------------------------
     1. B(H   2,C   1)                1.0884 -0.005342  0.0077    1.0960   
     2. B(C   5,C   1)                1.5325 -0.009919  0.0160    1.5485   
     3. B(C   5,H   0)                1.0949 -0.002846  0.0042    1.0991   
     4. B(S   7,H   3)                1.3300 -0.013510  0.0166    1.3467   
     5. B(S   7,C   1)                1.8216 -0.009914  0.0174    1.8390   
     6. B(N   8,H   6)                1.0136 -0.003406  0.0042    1.0178   
     7. B(N   8,C   5)                1.4485 -0.006935  0.0082    1.4567   
     8. B(N   8,H   3)                2.3407 -0.003769  0.0653    2.4061   
     9. B(H   9,N   8)                1.0167 -0.003033  0.0038    1.0205   
    10. B(C  10,C   5)                1.5272 -0.010817  0.0150    1.5422   
    11. B(C  10,O   4)                1.3332 -0.023029  0.0175    1.3507   
    12. B(H  11,C   1)                1.0910 -0.006013  0.0087    1.0997   
    13. B(O  12,C  10)                1.2017 -0.033920  0.0160    1.2177   
    14. B(H  13,O   4)                0.9714 -0.002693  0.0028    0.9742   
    15. A(H   2,C   1,C   5)          110.98  0.000476   -0.47    110.51   
    16. A(H   2,C   1,H  11)          109.86  0.000854   -0.85    109.02   
    17. A(C   5,C   1,S   7)          110.43 -0.003305    1.56    111.98   
    18. A(H   2,C   1,S   7)          106.61 -0.000022   -0.07    106.54   
    19. A(C   5,C   1,H  11)          110.46  0.003956   -0.85    109.61   
    20. A(S   7,C   1,H  11)          108.39 -0.002184    0.73    109.12   
    21. A(C  10,O   4,H  13)          110.90  0.010654   -1.61    109.29   
    22. A(C   1,C   5,N   8)          109.32 -0.000560    0.78    110.10   
    23. A(C   1,C   5,C  10)          107.72 -0.001090    0.35    108.07   
    24. A(H   0,C   5,N   8)          109.49  0.000765   -0.40    109.09   
    25. A(H   0,C   5,C  10)          108.79  0.000657   -0.34    108.45   
    26. A(N   8,C   5,C  10)          112.65 -0.000822    0.18    112.83   
    27. A(H   0,C   5,C   1)          108.78  0.001097   -0.59    108.19   
    28. A(C   1,S   7,H   3)           93.82  0.007802   -0.56     93.26   
    29. A(H   6,N   8,H   9)          107.18  0.000333   -0.58    106.60   
    30. A(C   5,N   8,H   9)          109.33  0.001561   -0.49    108.83   
    31. A(C   5,N   8,H   6)          110.84  0.001133   -0.42    110.42   
    32. A(O   4,C  10,C   5)          112.51  0.005715   -0.78    111.73   
    33. A(C   5,C  10,O  12)          123.95 -0.002809    0.39    124.33   
    34. A(O   4,C  10,O  12)          123.54 -0.002890    0.36    123.90   
    35. D(N   8,C   5,C   1,H   2)   -179.52  0.001086   -1.42   -180.94   
    36. D(H   0,C   5,C   1,H   2)    -59.99  0.002336   -1.80    -61.80   
    37. D(N   8,C   5,C   1,S   7)    -61.51 -0.000735   -0.81    -62.33   
    38. D(H   0,C   5,C   1,S   7)     58.01  0.000515   -1.20     56.81   
    39. D(H   0,C   5,C   1,H  11)    177.90 -0.001790    0.17    178.07   
    40. D(N   8,C   5,C   1,H  11)     58.38 -0.003040    0.56     58.93   
    41. D(H   3,S   7,C   1,H  11)    -75.31  0.000731   -3.36    -78.67   
    42. D(H   3,S   7,C   1,C   5)     45.82  0.002184   -2.98     42.83   
    43. D(H   3,S   7,C   1,H   2)    166.47  0.000870   -2.71    163.76   
    44. D(H   9,N   8,C   5,C   1)    -72.86  0.002562   -1.86    -74.72   
    45. D(H   9,N   8,C   5,H   0)    168.06  0.001106   -1.36    166.70   
    46. D(H   6,N   8,C   5,C  10)    -71.07 -0.001769    0.50    -70.57   
    47. D(H   6,N   8,C   5,H   0)     50.13 -0.000944   -0.10     50.03   
    48. D(H   9,N   8,C   5,C  10)     46.87  0.000281   -0.77     46.09   
    49. D(H   6,N   8,C   5,C   1)    169.21  0.000513   -0.59    168.61   
    50. D(O  12,C  10,C   5,C   1)    105.20  0.000228   -1.81    103.38   
    51. D(O  12,C  10,C   5,H   0)   -137.04  0.001282   -2.51   -139.55   
    52. D(O   4,C  10,C   5,N   8)    165.28  0.000723   -0.23    165.05   
    53. D(O   4,C  10,C   5,C   1)    -74.08 -0.001220    1.10    -72.98   
    54. D(O   4,C  10,C   5,H   0)     43.68 -0.000166    0.40     44.08   
    55. D(O  12,C  10,O   4,H  13)     -0.54 -0.000486    1.12      0.58   
    56. D(C   5,C  10,O   4,H  13)    178.74  0.000956   -1.78    176.96   
    ----------------------------------------------------------------------------

Geometry step timings:
Preparation and reading OPT file:      0.000 s ( 1.774 %)
Internal coordinates            :      0.000 s ( 1.364 %)
B/P matrices and projection     :      0.000 s (39.563 %)
Hessian update/contruction      :      0.000 s ( 9.823 %)
Making the step                 :      0.000 s (24.284 %)
Converting the step to Cartesian:      0.000 s ( 4.093 %)
Storing new data                :      0.000 s ( 1.910 %)
Checking convergence            :      0.000 s ( 1.501 %)
Final printing                  :      0.000 s (15.553 %)
Total time                      :      0.001 s

Time for energy+gradient        :      6.410 s
Time for complete geometry iter :      6.423 s

         *************************************************************
         *                GEOMETRY OPTIMIZATION CYCLE   2            *
         *************************************************************
---------------------------------
CARTESIAN COORDINATES (ANGSTROEM)
---------------------------------
  H     -1.448420    2.102451    1.634379
  C     -2.916922    0.986412    0.509079
  H     -2.797068    0.057610    1.078525
  H     -4.038577    3.034761    0.654302
  O     -0.113627    0.026640    1.000616
  C     -1.625871    1.838201    0.582410
  H     -1.025594    3.706390   -0.002334
  S     -4.361329    1.863211    1.234763
  N     -1.787409    3.059498   -0.194935
  H     -1.729631    2.828375   -1.187223
  C     -0.450424    0.968292    0.092697
  H     -3.135841    0.737810   -0.539584
  O      0.066725    1.068317   -1.005211
  H      0.597254   -0.531432    0.636989

----------------------------
CARTESIAN COORDINATES (A.U.)
----------------------------
  NO LB      ZA    FRAG     MASS         X           Y           Z
   0 H     1.0000    0     1.008   -2.737117    3.973057    3.088528
   1 C     6.0000    0    12.011   -5.512184    1.864049    0.962020
   2 H     1.0000    0     1.008   -5.285692    0.108866    2.038117
   3 H     1.0000    0     1.008   -7.631805    5.734868    1.236452
   4 O     8.0000    0    15.999   -0.214724    0.050342    1.890891
   5 C     6.0000    0    12.011   -3.072451    3.473696    1.100596
   6 H     1.0000    0     1.008   -1.938092    7.004061   -0.004411
   7 S    16.0000    0    32.060   -8.241718    3.520958    2.333365
   8 N     7.0000    0    14.007   -3.377713    5.781613   -0.368373
   9 H     1.0000    0     1.008   -3.268530    5.344854   -2.243527
  10 C     6.0000    0    12.011   -0.851178    1.829806    0.175172
  11 H     1.0000    0     1.008   -5.925881    1.394258   -1.019665
  12 O     8.0000    0    15.999    0.126091    2.018827   -1.899574
  13 H     1.0000    0     1.008    1.128647   -1.004261    1.203734

--------------------------------
INTERNAL COORDINATES (ANGSTROEM)
--------------------------------
 H      0   0   0     0.000000000000     0.00000000     0.00000000
 C      1   0   0     2.160634165435     0.00000000     0.00000000
 H      2   1   0     1.096041959530    95.32501296     0.00000000
 H      2   1   3     2.339857739457    80.86872814   139.47825976
 O      1   2   3     2.548003239828    78.79581695    52.06858941
 C      1   2   3     1.099069810108    42.90994480   124.00845434
 H      6   1   2     2.047532178915    90.38044843   140.67562720
 S      4   2   1     1.346712521179    51.68989508   248.06717490
 N      7   6   1     1.017804135764    41.81520315   226.40588896
 H      9   7   6     1.020486561288   106.59305927   241.94842851
 C      5   1   2     1.350724644844    57.90094204    71.57069801
 H      2   1   3     1.099737395085   138.47732635   233.23066984
 O     11   5   1     1.217723298649   123.87663634   163.98009708
 H      5   1   2     0.974177404918   160.35896939   124.90247612

---------------------------
INTERNAL COORDINATES (A.U.)
---------------------------
 H      0   0   0     0.000000000000     0.00000000     0.00000000
 C      1   0   0     4.083006848266     0.00000000     0.00000000
 H      2   1   0     2.071219134798    95.32501296     0.00000000
 H      2   1   3     4.421690319909    80.86872814   139.47825976
 O      1   2   3     4.815028311620    78.79581695    52.06858941
 C      1   2   3     2.076940943166    42.90994480   124.00845434
 H      6   1   2     3.869275068539    90.38044843   140.67562720
 S      4   2   1     2.544917846151    51.68989508   248.06717490
 N      7   6   1     1.923371074566    41.81520315   226.40588896
 H      9   7   6     1.928440124181   106.59305927   241.94842851
 C      5   1   2     2.552499661094    57.90094204    71.57069801
 H      2   1   3     2.078202495943   138.47732635   233.23066984
 O     11   5   1     2.301163541343   123.87663634   163.98009708
 H      5   1   2     1.840928501149   160.35896939   124.90247612

------------------------------------------------------------------------------
                   ___                                                        
                  /   \      - P O W E R E D   B Y -                         
                 /     \                                                     
                 |  |  |   _    _      __       _____    __    __             
                 |  |  |  | |  | |    /  \     |  _  \  |  |  /  |          
                  \  \/   | |  | |   /    \    | | | |  |  | /  /          
                 / \  \   | |__| |  /  /\  \   | |_| |  |  |/  /          
                |  |  |   |  __  | /  /__\  \  |    /   |      \           
                |  |  |   | |  | | |   __   |  |    \   |  |\   \          
                \     /   | |  | | |  |  |  |  | |\  \  |  | \   \       
                 \___/    |_|  |_| |__|  |__|  |_| \__\ |__|  \__/        
                                                                              
                      - O R C A' S   B I G   F R I E N D -                    
                                      &                                       
                       - I N T E G R A L  F E E D E R -                       
                                                                              
 v1 FN, 2020, v2 2021, v3 2022-2024                                           
------------------------------------------------------------------------------


----------------------
SHARK INTEGRAL PACKAGE
----------------------

Number of atoms                             ...     14
Number of basis functions                   ...    137
Number of shells                            ...     65
Maximum angular momentum                    ...      2
Integral batch strategy                     ... SHARK/LIBINT Hybrid
RI-J (if used) integral strategy            ... SPLIT-RIJ (Revised 2003 algorithm where possible)
Printlevel                                  ...      1
Contraction scheme used                     ... SEGMENTED contraction
Prescreening option                         ... SCHWARTZ
   Thresh                                   ... 2.500e-11
   Tcut                                     ... 2.500e-12
   Tpresel                                  ... 2.500e-12 
Coulomb Range Separation                    ... NOT USED
Exchange Range Separation                   ... NOT USED
Multipole approximations                    ... NOT USED
Finite Nucleus Model                        ... NOT USED
CABS basis                                  ... NOT available
Auxiliary Coulomb fitting basis             ... AVAILABLE
   # of basis functions in Aux-J            ...    422
   # of shells in Aux-J                     ...    142
   Maximum angular momentum in Aux-J        ...      4
Auxiliary J/K fitting basis                 ... NOT available
Auxiliary Correlation fitting basis         ... NOT available
Auxiliary 'external' fitting basis          ... NOT available

Checking pre-screening integrals            ... done (  0.0 sec) Dimension = 65
   => SHARK Basis and OBASIS are compatible. Storing Pre-screening
Shell pair information
Shell pair cut-off parameter TPreSel        ...   2.5e-12
Total number of shell pairs                 ...      2145
Shell pairs after pre-screening             ...      2007
Total number of primitive shell pairs       ...     11826
Primitive shell pairs kept                  ...      7455
          la=0 lb=0:    618 shell pairs
          la=1 lb=0:    738 shell pairs
          la=1 lb=1:    240 shell pairs
          la=2 lb=0:    236 shell pairs
          la=2 lb=1:    147 shell pairs
          la=2 lb=2:     28 shell pairs

Checking whether 4 symmetric matrices of dimension 137 fit in memory
:Max Core in MB      =   4096.00
 MB in use           =      6.35
 MB left             =   4089.65
 MB needed           =      0.29
 Data fit in memory  = YES
Calculating RI/J V-Matrix + Cholesky decomp.... done (  0.0 sec)
Calculating Nuclear repulsion               ... done (  0.0 sec) ENN=    372.375938855742 Eh

Diagonalization of the overlap matrix:
Smallest eigenvalue                        ... 3.725e-03
Time for diagonalization                   ...    0.001 sec
Threshold for overlap eigenvalues          ... 1.000e-07
Number of eigenvalues below threshold      ... 0
Time for construction of square roots      ...    0.000 sec
Total time needed                          ...    0.001 sec

-------------------
DFT GRID GENERATION
-------------------

General Integration Accuracy     IntAcc      ... 4.388
Radial Grid Type                 RadialGrid  ... OptM3 with GC (2021)
Angular Grid (max. ang.)         AngularGrid ... 4 (Lebedev-302)
Angular grid pruning method      GridPruning ... 4 (adaptive)
Weight generation scheme         WeightScheme... mBecke (2022)
Basis function cutoff            BFCut       ... 1.0000e-11
Integration weight cutoff        WCut        ... 1.0000e-14
Partially contracted basis set               ... off
Rotationally invariant grid construction     ... off
Angular grids for H and He will be reduced by one unit

Total number of grid points                  ...    66206
Total number of batches                      ...     1040
Average number of points per batch           ...       63
Average number of grid points per atom       ...     4729
Grids setup in   0.2 sec
Initializing property integral containers    ... done (  0.0 sec)

SHARK setup successfully completed in   0.3 seconds

Maximum memory used throughout the entire STARTUP-calculation: 28.0 MB
Occupation numbers will be reassigned to an Aufbau configuration
             **** ENERGY FILE WAS UPDATED (0.en.tmp) ****
Finished Guess after   0.0 sec
Maximum memory used throughout the entire GUESS-calculation: 10.4 MB
----------------------------------------D-I-I-S--------------------------------------------
Iteration    Energy (Eh)           Delta-E    RMSDP     MaxDP     DIISErr   Damp  Time(sec)
-------------------------------------------------------------------------------------------
               ***  Starting incremental Fock matrix formation  ***
    1    -721.7070544935859289     0.00e+00  2.41e-04  4.88e-03  1.82e-02  0.700   0.3
    2    -721.7077224142215073    -6.68e-04  2.33e-04  4.64e-03  1.39e-02  0.700   0.3
                               ***Turning on AO-DIIS***
    3    -721.7082183335703576    -4.96e-04  1.83e-04  3.52e-03  1.01e-02  0.700   0.3
    4    -721.7085639514650666    -3.46e-04  4.55e-04  8.56e-03  7.12e-03  0.000   0.3
                              *** Initializing SOSCF ***
---------------------------------------S-O-S-C-F--------------------------------------
Iteration    Energy (Eh)           Delta-E    RMSDP     MaxDP     MaxGrad    Time(sec)
--------------------------------------------------------------------------------------
    5    -721.7093762920774225    -8.12e-04  3.67e-05  7.79e-04  6.89e-04     0.3
               *** Restarting incremental Fock matrix formation ***
    6    -721.7093775231726340    -1.23e-06  4.58e-05  1.30e-03  2.76e-04     0.3
    7    -721.7093733193514709     4.20e-06  3.22e-05  9.31e-04  8.57e-04     0.3
    8    -721.7093783392617752    -5.02e-06  1.66e-05  3.13e-04  5.87e-05     0.3
    9    -721.7093780241646073     3.15e-07  1.13e-05  2.38e-04  9.94e-05     0.3
   10    -721.7093784583653360    -4.34e-07  2.16e-06  4.44e-05  9.06e-06     0.2
   11    -721.7093784550984310     3.27e-09  1.18e-06  3.06e-05  1.24e-05     0.2
                 **** Energy Check signals convergence ****

               *****************************************************
               *                     SUCCESS                       *
               *           SCF CONVERGED AFTER  11 CYCLES          *
               *****************************************************

             **** ENERGY FILE WAS UPDATED (0.en.tmp) ****

----------------
[...]
  32   0.0000      -0.044043        -1.1985 
  33   0.0000       0.015024         0.4088 
  34   0.0000       0.042048         1.1442 
  35   0.0000       0.056297         1.5319 
  36   0.0000       0.067561         1.8384 
  37   0.0000       0.095987         2.6119 
  38   0.0000       0.115314         3.1378 
  39   0.0000       0.132805         3.6138 
  40   0.0000       0.144485         3.9316 
  41   0.0000       0.167210         4.5500 
  42   0.0000       0.178317         4.8523 
*Only the first 10 virtual orbitals were printed.

                    ********************************
                    * MULLIKEN POPULATION ANALYSIS *
                    ********************************

-----------------------
MULLIKEN ATOMIC CHARGES
-----------------------
   0 H :    0.148277
   1 C :   -0.334746
   2 H :    0.160709
   3 H :    0.097224
   4 O :   -0.457245
   5 C :   -0.044865
   6 H :    0.252284
   7 S :   -0.067772
   8 N :   -0.554281
   9 H :    0.254904
  10 C :    0.493871
  11 H :    0.145250
  12 O :   -0.417145
  13 H :    0.323536
Sum of atomic charges:    0.0000000

--------------------------------
MULLIKEN REDUCED ORBITAL CHARGES
--------------------------------
  0 H s       :     0.840839  s :     0.840839
      pz      :     0.006458  p :     0.010884
      px      :     0.002393
      py      :     0.002033

  1 C s       :     3.315798  s :     3.315798
      pz      :     1.069952  p :     2.983513
      px      :     0.894864
      py      :     1.018697
      dz2     :     0.008794  d :     0.035436
      dxz     :     0.005135
      dyz     :     0.007334
      dx2y2   :     0.007671
      dxy     :     0.006501

  2 H s       :     0.827746  s :     0.827746
      pz      :     0.003614  p :     0.011544
      px      :     0.002441
      py      :     0.005489

  3 H s       :     0.886511  s :     0.886511
      pz      :     0.005275  p :     0.016265
      px      :     0.003914
      py      :     0.007076

  4 O s       :     3.841984  s :     3.841984
      pz      :     1.605556  p :     4.592071
      px      :     1.539068
      py      :     1.447447
      dz2     :     0.005206  d :     0.023190
      dxz     :     0.005714
      dyz     :     0.007215
      dx2y2   :     0.001801
      dxy     :     0.003254

  5 C s       :     3.208023  s :     3.208023
      pz      :     0.995222  p :     2.781384
      px      :     0.937570
      py      :     0.848592
      dz2     :     0.012095  d :     0.055458
      dxz     :     0.005865
      dyz     :     0.010962
      dx2y2   :     0.009481
      dxy     :     0.017055

  6 H s       :     0.724020  s :     0.724020
      pz      :     0.005117  p :     0.023697
      px      :     0.010002
      py      :     0.008578

  7 S s       :     5.854748  s :     5.854748
      pz      :     3.669622  p :    10.158819
      px      :     3.391767
      py      :     3.097430
      dz2     :     0.004010  d :     0.054205
      dxz     :     0.008981
      dyz     :     0.014601
      dx2y2   :     0.015173
      dxy     :     0.011441

  8 N s       :     3.606268  s :     3.606268
      pz      :     1.154216  p :     3.919593
      px      :     1.571749
      py      :     1.193627
      dz2     :     0.008692  d :     0.028420
      dxz     :     0.002818
      dyz     :     0.004693
      dx2y2   :     0.004413
      dxy     :     0.007804

  9 H s       :     0.721448  s :     0.721448
      pz      :     0.011423  p :     0.023648
      px      :     0.007055
      py      :     0.005170

 10 C s       :     3.006120  s :     3.006120
      pz      :     0.743101  p :     2.382153
      px      :     0.848030
      py      :     0.791021
      dz2     :     0.029387  d :     0.117857
      dxz     :     0.027511
      dyz     :     0.036047
      dx2y2   :     0.013313
      dxy     :     0.011599

 11 H s       :     0.843422  s :     0.843422
      pz      :     0.006169  p :     0.011328
      px      :     0.002570
      py      :     0.002588

 12 O s       :     3.871840  s :     3.871840
      pz      :     1.373017  p :     4.517835
      px      :     1.527159
      py      :     1.617658
      dz2     :     0.009450  d :     0.027471
      dxz     :     0.007823
      dyz     :     0.006763
      dx2y2   :     0.001634
      dxy     :     0.001801

 13 H s       :     0.639011  s :     0.639011
      pz      :     0.010022  p :     0.037453
      px      :     0.015480
      py      :     0.011950



                     *******************************
                     * LOEWDIN POPULATION ANALYSIS *
                     *******************************

----------------------
LOEWDIN ATOMIC CHARGES
----------------------
   0 H :    0.092443
   1 C :   -0.208599
   2 H :    0.093069
   3 H :    0.061679
   4 O :   -0.153316
   5 C :   -0.055029
   6 H :    0.134044
   7 S :   -0.016668
   8 N :   -0.246037
   9 H :    0.133237
  10 C :    0.124616
  11 H :    0.079002
  12 O :   -0.224977
  13 H :    0.186536

-------------------------------
LOEWDIN REDUCED ORBITAL CHARGES
-------------------------------
  0 H s       :     0.867791  s :     0.867791
      pz      :     0.025666  p :     0.039765
      px      :     0.007126
      py      :     0.006973

  1 C s       :     2.966573  s :     2.966573
      pz      :     1.100500  p :     3.165493
      px      :     0.994620
      py      :     1.070373
      dz2     :     0.018621  d :     0.076533
      dxz     :     0.011039
      dyz     :     0.014312
      dx2y2   :     0.015924
      dxy     :     0.016635

  2 H s       :     0.866210  s :     0.866210
      pz      :     0.012206  p :     0.040720
      px      :     0.006735
      py      :     0.021779

  3 H s       :     0.889779  s :     0.889779
      pz      :     0.014980  p :     0.048541
      px      :     0.009450
      py      :     0.024111

  4 O s       :     3.495429  s :     3.495429
      pz      :     1.621101  p :     4.609061
      px      :     1.528728
      py      :     1.459231
      dz2     :     0.008679  d :     0.048827
      dxz     :     0.009418
      dyz     :     0.016064
      dx2y2   :     0.004832
      dxy     :     0.009835

  5 C s       :     2.894760  s :     2.894760
      pz      :     1.044002  p :     3.034585
      px      :     1.020939
      py      :     0.969644
      dz2     :     0.025874  d :     0.125684
      dxz     :     0.011840
      dyz     :     0.025172
      dx2y2   :     0.020800
      dxy     :     0.041999

  6 H s       :     0.788288  s :     0.788288
      pz      :     0.013300  p :     0.077669
      px      :     0.036824
      py      :     0.027545

  7 S s       :     5.662063  s :     5.662063
      pz      :     3.703236  p :    10.294568
      px      :     3.449952
      py      :     3.141380
      dz2     :     0.004340  d :     0.060037
      dxz     :     0.010060
      dyz     :     0.015647
      dx2y2   :     0.016716
      dxy     :     0.013274

  8 N s       :     3.212249  s :     3.212249
      pz      :     1.183275  p :     3.977328
      px      :     1.560204
      py      :     1.233849
      dz2     :     0.017858  d :     0.056461
      dxz     :     0.003965
      dyz     :     0.012600
      dx2y2   :     0.008182
      dxy     :     0.013856

  9 H s       :     0.788321  s :     0.788321
      pz      :     0.043339  p :     0.078442
      px      :     0.020461
      py      :     0.014642

 10 C s       :     2.872058  s :     2.872058
      pz      :     0.949495  p :     2.724757
      px      :     0.908888
      py      :     0.866373
      dz2     :     0.069838  d :     0.278569
      dxz     :     0.065103
      dyz     :     0.088580
      dx2y2   :     0.029347
      dxy     :     0.025701

 11 H s       :     0.880546  s :     0.880546
      pz      :     0.025062  p :     0.040452
      px      :     0.007143
      py      :     0.008247

 12 O s       :     3.569102  s :     3.569102
      pz      :     1.458968  p :     4.599862
      px      :     1.535954
      py      :     1.604941
      dz2     :     0.020550  d :     0.056012
      dxz     :     0.018252
      dyz     :     0.011440
      dx2y2   :     0.002994
      dxy     :     0.002777

 13 H s       :     0.699566  s :     0.699566
      pz      :     0.030202  p :     0.113898
      px      :     0.048234
      py      :     0.035462



                      *****************************
                      * MAYER POPULATION ANALYSIS *
                      *****************************

  NA   - Mulliken gross atomic population
  ZA   - Total nuclear charge
  QA   - Mulliken gross atomic charge
  VA   - Mayer's total valence
  BVA  - Mayer's bonded valence
  FA   - Mayer's free valence

  ATOM       NA         ZA         QA         VA         BVA        FA
  0 H      0.8517     1.0000     0.1483     0.9489     0.9489     0.0000
  1 C      6.3347     6.0000    -0.3347     3.8455     3.8455     0.0000
  2 H      0.8393     1.0000     0.1607     0.9446     0.9446    -0.0000
  3 H      0.9028     1.0000     0.0972     0.9853     0.9853    -0.0000
  4 O      8.4572     8.0000    -0.4572     2.0345     2.0345     0.0000
  5 C      6.0449     6.0000    -0.0449     3.8483     3.8483     0.0000
  6 H      0.7477     1.0000     0.2523     0.9148     0.9148    -0.0000
  7 S     16.0678    16.0000    -0.0678     1.9808     1.9808    -0.0000
  8 N      7.5543     7.0000    -0.5543     2.9200     2.9200     0.0000
  9 H      0.7451     1.0000     0.2549     0.9287     0.9287    -0.0000
 10 C      5.5061     6.0000     0.4939     3.9276     3.9276     0.0000
 11 H      0.8548     1.0000     0.1452     0.9379     0.9379     0.0000
 12 O      8.4171     8.0000    -0.4171     2.1133     2.1133     0.0000
 13 H      0.6765     1.0000     0.3235     0.9131     0.9131     0.0000

  Mayer bond orders larger than 0.100000
B(  0-H ,  5-C ) :   0.9224 B(  1-C ,  2-H ) :   0.9379 B(  1-C ,  5-C ) :   0.9553 
B(  1-C ,  7-S ) :   1.0045 B(  1-C , 11-H ) :   0.9342 B(  3-H ,  7-S ) :   0.9279 
B(  4-O , 10-C ) :   1.0737 B(  4-O , 13-H ) :   0.8502 B(  5-C ,  8-N ) :   1.0480 
B(  5-C , 10-C ) :   0.8931 B(  6-H ,  8-N ) :   0.9053 B(  8-N ,  9-H ) :   0.8915 
B( 10-C , 12-O ) :   1.9078 

-------
TIMINGS
-------

Total SCF time: 0 days 0 hours 0 min 1 sec 

Total time                  ....       1.950 sec
Sum of individual times     ....       1.663 sec  ( 85.3%)

SCF preparation             ....       0.026 sec  (  1.4%)
Fock matrix formation       ....       1.618 sec  ( 83.0%)
  Startup                   ....       0.000 sec  (  0.0% of F)
  Split-RI-J                ....       0.566 sec  ( 35.0% of F)
  XC integration            ....       1.291 sec  ( 79.8% of F)
    Basis function eval.    ....       0.468 sec  ( 36.3% of XC)
    Density eval.           ....       0.258 sec  ( 20.0% of XC)
    XC-Functional eval.     ....       0.284 sec  ( 22.0% of XC)
    XC-Potential eval.      ....       0.243 sec  ( 18.8% of XC)
Diagonalization             ....       0.000 sec  (  0.0%)
Density matrix formation    ....       0.001 sec  (  0.1%)
Total Energy calculation    ....       0.000 sec  (  0.0%)
Population analysis         ....       0.008 sec  (  0.4%)
Orbital Transformation      ....       0.001 sec  (  0.1%)
Orbital Orthonormalization  ....       0.000 sec  (  0.0%)
DIIS solution               ....       0.002 sec  (  0.1%)
SOSCF solution              ....       0.006 sec  (  0.3%)
Finished LeanSCF after   2.0 sec

Maximum memory used throughout the entire LEANSCF-calculation: 15.2 MB



-------------------------------------------------------------------------------
                          DFT DISPERSION CORRECTION                            
-------------------------------------------------------------------------------
Active option DFTDOPT                   ...         2   
Final C6-coefficient scaling factor     ...     1.250
Final VDW-radii scaling factor          ...     1.100
Damping factor alpha                    ...    20.000
-------------------------   ----------------
Dispersion correction           -0.016574183
-------------------------   ----------------


-------------------------   --------------------
FINAL SINGLE POINT ENERGY      -721.726602638999
-------------------------   --------------------

                                *** OPTIMIZATION RUN DONE ***


------------------------------------------------------------------------------
                              ORCA PROPERTY CALCULATIONS
------------------------------------------------------------------------------

GBWName                                 ... 0.gbw
Number of atoms                         ...     14
Number of basis functions               ...    137
Max core memory                         ...   4096 MB

Electric properties:
Dipole moment                           ... YES
Quadrupole moment                       ...  NO
Static polarizability (Dipole/Dipole)   ...  NO
Static polarizability (Dipole/Quad.)    ...  NO
Static polarizability (Quad./Quad.)     ...  NO
Static polarizability (Velocity)        ...  NO
Static hyperpolarizability              ...  NO

Atomic electric properties:
Dipole moment                           ...  NO
Quadrupole moment                       ...  NO
Static polarizability                   ...  NO

Choice of electric origin               ... Center of mass
Position of electric origin             ...    -3.741841     2.768346     0.837656

General magnetic properties:
Magnetizability                         ...  NO

EPR properties:
g-Tensor (aka g-matrix)                 ...  NO
Zero-Field splitting spin-orbit         ...  NO
Zero-field splitting spin-spin          ...  NO
Hyperfine couplings                     ...  NO (   0 nuclei)
Quadrupole couplings                    ...  NO (   0 nuclei)
Contact density                         ...  NO (   0 nuclei)

NMR properties:
Chemical shifts                         ...  NO (   0 nuclei)
Spin-rotation constants                 ...  NO (   0 nuclei)
Spin-spin couplings                     ...  NO (   0 nuclei,    0 pairs)

Choice of magnetic origin               ... GIAO
Position of magnetic origin             ...     0.000000     0.000000     0.000000

Properties with geometric perturbations:
SCF Hessian                             ...  NO
IR spectrum                             ...  NO
VCD spectrum                            ...  NO
X-ray spectroscopy properties:
SCF XES/XAS/RIXS spectra                ...  NO

SCF SOC stabilization energy            ...  NO
Diagonal Born-Oppenheimer correction    ...  NO

-------------
DIPOLE MOMENT
-------------

Method             : SCF
Type of density    : Electron Density
Multiplicity       :   1
Irrep              :   0
Energy             :  -721.7100284561042827 Eh
Basis              : AO
                                X                 Y                 Z
Electronic contribution:      0.505320715      -1.753287517       0.774393338
Nuclear contribution   :      0.424432221       1.562836444      -0.823750191
                        -----------------------------------------
Total Dipole Moment    :      0.929752935      -0.190451073      -0.049356853
                        -----------------------------------------
Magnitude (a.u.)       :      0.950341113
Magnitude (Debye)      :      2.415575140



--------------------
Rotational spectrum 
--------------------
 
Rotational constants in cm-1:             0.139912             0.038519             0.032839 
Rotational constants in MHz :          4194.465601          1154.785083           984.490245 

Dipole components along the rotational axes: 
x,y,z [a.u.] :     0.925458     0.065863     0.205760 
x,y,z [Debye]:     2.352328     0.167409     0.522999 

 

Dipole moment calculation done in   0.0 sec 

Maximum memory used throughout the entire PROP-calculation: 8.7 MB

--------------------------------
SUGGESTED CITATIONS FOR THIS RUN
--------------------------------

Below you find a list of papers that are relevant to this ORCA run
We neither can nor want to force you to cite these papers, but we appreciate if you do
You receive ORCA, which is the product of decades of hard work by many enthusiastic individuals, for free
The only thing we kindly ask in return is that you cite our papers,
We deeply appreciate it, if you show your appreciation for ORCA by not just citing the generic ORCA reference.

Please note that relegating all ORCA citations to the supporting information does *not* help us.
SI sections are not indexed - citations you put there will not count into any citation statistics
But we need these citations in order to attract the funding resources that allow us to do what we are doing

Therefore, if you are a happy ORCA user, please consider citing a few of the papers listed below in the main body of your paper

In addition to the list printed below, the program has created the file 0.bibtex that contains the list in bibtex format
You can import this file easily into all common literature databanks and citation aid programs


List of essential papers. We consider these as the minimum necessary citations

  1. Neese, F.
     Software update: the ORCA program system, version 6.0
     WIRES Comput. Molec. Sci. 2025 15(1), e70019
     doi.org/10.1002/wcms.7019

List of papers to cite with high priority. The work reported in these papers was absolutely
necessary for this run to complete.
Our perspective: the developers of density functionals and basis sets usually get cited in chemistry papers
Good! But without the algorithms to do something with them, the functionals or basis sets would not do anything.
Hence, in our opinion, the algorithm design and method developments papers are equally worthy of getting cited

  1. Neese, F.
     An improvement of the resolution of the identity approximation for the formation of the Coulomb matrix
     J. Comp. Chem. 2003 24(14), 1740-1747
     doi.org/10.1002/jcc.10318
  2. Grimme, S.
     Semiempirical GGA-type density functional constructed with a long-range dispersion correction
     J.Comput.Chem. 2006 27(15), 1787-1799
     doi.org/10.1002/jcc.20495
  3. Neese, F.
     The SHARK Integral Generation and Digestion System
     J. Comp. Chem. 2022 44(3), 381
     doi.org/10.1002/jcc.26942

List of suggested additional citations. These are papers that are important in the 'surrounding' of 
of this run, or papers that preceded the highly important papers. If you like your results we are grateful for a citation.

  1. Neese, F.
     The ORCA program system
     WIRES Comput. Molec. Sci. 2012 2(1), 73-78
     doi.org/10.1002/wcms.81
  2. Neese, F.
     Software update: the ORCA program system, version 4.0
     WIRES Comput. Molec. Sci. 2018 8(1), 1-6
     doi.org/10.1002/wcms.1327
  3. Neese, F.; Wennmohs, F.; Becker, U.; Riplinger, C.
     The ORCA quantum chemistry program package
     J. Chem. Phys. 2020 152(22), 224108
     doi.org/10.1063/5.0004608
  4. Neese, F.
     Software update: The ORCA program system—Version 5.0
     WIRES Comput. Molec. Sci. 2022 12(1), e1606
     doi.org/10.1002/wcms.1606

List of optional additional citations

  1. Neese, F.
     Approximate second-order SCF convergence for spin unrestricted wavefunctions
     Chem. Phys. Lett. 2000 325(1-3), 93-98
     doi.org/10.1016/s0009-2614(00)00662-x

Timings for individual modules:

Sum of individual times          ...       46.618 sec (=   0.777 min)
Startup calculation              ...        3.037 sec (=   0.051 min)   6.5 %
SCF iterations                   ...       27.230 sec (=   0.454 min)  58.4 %
Property calculations            ...        0.036 sec (=   0.001 min)   0.1 %
SCF Gradient evaluation          ...       16.305 sec (=   0.272 min)  35.0 %
Geometry relaxation              ...        0.010 sec (=   0.000 min)   0.0 %
                             ****ORCA TERMINATED NORMALLY****
TOTAL RUN TIME: 0 days 0 hours 0 minutes 46 seconds 842 msec
