
                                 *****************
                                 * O   R   C   A *
                                 *****************

                                            #,                                       
                                            ###                                      
                                            ####                                     
                                            #####                                    
                                            ######                                   
                                           ########,                                 
                                     ,,################,,,,,                         
                               ,,#################################,,                 
                          ,,##########################################,,             
                       ,#########################################, ''#####,          
                    ,#############################################,,   '####,        
                  ,##################################################,,,,####,       
                ,###########''''           ''''###############################       
              ,#####''   ,,,,##########,,,,          '''####'''          '####       
            ,##' ,,,,###########################,,,                        '##       
           ' ,,###''''                  '''############,,,                           
         ,,##''                                '''############,,,,        ,,,,,,###''
      ,#''                                            '''#######################'''  
     '                                                          ''''####''''         
             ,#######,   #######,   ,#######,      ##                                
            ,#'     '#,  ##    ##  ,#'     '#,    #''#        ,####,    ,#,          
            ##       ##  ##   ,#'  ##            #'  '#       #'       ,# #          
            ##       ##  #######   ##           ,######,      #####,      #          
            '#,     ,#'  ##    ##  '#,     ,#' ,#      #,     #,   #      #          
             '#######'   ##     ##  '#######'  #'      '#     '####' #    #          



                #########################################################
                #                        -***-                          #
                #          Department of theory and spectroscopy        #
                #                                                       #
                #                      Frank Neese                      #
                #                                                       #
                #     Directorship, Architecture, Infrastructure        #
                #                    SHARK, DRIVERS                     #
                #        Core code/Algorithms in most modules           #
                #                                                       #
                #        Max Planck Institute fuer Kohlenforschung      #
                #                Kaiser Wilhelm Platz 1                 #
                #                 D-45470 Muelheim/Ruhr                 #
                #                      Germany                          #
                #                                                       #
                #                  All rights reserved                  #
                #                        -***-                          #
                #########################################################


                         Program Version 6.1.0  -  RELEASE   -
                                (GIT: $679e74b$)
                          ($2025-06-10 18:02:51 +0200$)


 With contributions from (in alphabetic order):
[Max-Planck-Institut fuer Kohlenforschung]                               
  Daniel Aravena         : Magnetic Suceptibility                        
  Michael Atanasov       : Ab Initio Ligand Field Theory (pilot matlab implementation)
  Alexander A. Auer      : GIAO ZORA, VPT2 properties, NMR spectrum      
  Ute Becker             : All parallelization in ORCA, NUMFREQ, NUMCALC 
  Giovanni Bistoni       : ED, misc. LED, open-shell LED, HFLD           
  Dmytro Bykov           : pre 5.0 version of the SCF Hessian            
  Marcos Casanova-Páez   : Triplet and SCS-CIS(D). UHF-(DLPNO)-IP/EA/STEOM-CCSD. UHF-CVS-IP/STEOM-CCSD   
  Vijay G. Chilkuri      : MRCI spin determinant printing, contributions to CSF-ICE 
  Pauline Colinet        : FMM embedding                                 
  Dipayan Datta          : RHF DLPNO-CCSD density                        
  Achintya Kumar Dutta   : EOM-CC, STEOM-CC                              
  Nicolas Foglia         : Exact transition moments, OPA infrastructure, MCD improvements    
  Dmitry Ganyushin       : Spin-Orbit,Spin-Spin,Magnetic field MRCI      
  Miquel Garcia-Rates    : C-PCM and meta-GGA Hessian, CCSD/C-PCM, Gaussian charge scheme 
  Tiago L. C. Gouveia    : GS-ROHF, GS-ROCIS                             
  Yang Guo               : DLPNO-NEVPT2, F12-NEVPT2, CIM, IAO-localization        
  Andreas Hansen         : Spin unrestricted coupled pair/coupled cluster methods 
  Ingolf Harden          : AUTO-CI MPn and infrastructure                
  Benjamin Helmich-Paris : MC-RPA, TRAH-(SCF,CASSCF), AVAS, COSX integrals, SCF dyn. polar., MC-PDFT, srDFT 
  Lee Huntington         : MR-EOM, pCC                                   
  Robert Izsak           : Overlap fitted RIJCOSX, COSX-SCS-MP3, EOM     
  Riya Kayal             : Wick's Theorem for AUTO-CI, AUTO-CI UHF-CCSDT 
  Emily Kempfer          : AUTO-CI RHF CISDT and CCSDT, approximate NEVPT4
  Christian Kollmar      : KDIIS, OOCD, Brueckner-CCSD(T), CCSD density, CASPT2, CASPT2-K, improved NEVPT2 
  Axel Koslowski         : Symmetry handling                             
  Simone Kossmann        : meta-GGA functionals, TD-DFT gradient, OOMP2, (MP2 Hessian; deprecated post 5.0) 
  Lucas Lang             : DCDCAS, Hyperfine gauge corrections, ICE-SOC+SSC
  Marvin Lechner         : AUTO-CI (C++ implementation), FIC-MRCC        
  Spencer Leger          : CASSCF response                               
  Dagmar Lenk            : GEPOL surface, SMD, ORCA-2-JSON               
  Dimitrios Liakos       : Extrapolation schemes; Compound Job, Property file
  Dimitrios Manganas     : Further ROCIS development; embedding schemes. LFT, Crystal Embedding 
  Dimitrios Pantazis     : SARC Basis sets                               
  Anastasios Papadopoulos: AUTO-CI, single reference methods and gradients 
  Taras Petrenko         : pre 6.0 DFT Hessian and TD-DFT gradient,  ECA, NRVS 
  Petra Pikulova         : Analytic Raman intensities                    
  Peter Pinski           : DLPNO-MP2, DLPNO-MP2 Gradient                 
  Shashank Vittal Rao    : ES-AILFT, MagRelax                            
  Christoph Reimann      : Effective Core Potentials                     
  Marius Retegan         : Local ZFS, SOC                                
  Christoph Riplinger    : Optimizer, TS searches, QM/MM, DLPNO-CCSD(T), (RO)-DLPNO pert. Triples 
  Michael Roemelt        : Original ROCIS implementation, recursive CI coupling coefficients
  Masaaki Saitow         : Open-shell DLPNO-CCSD energy and density      
  Barbara Sandhoefer     : DKH picture change effects                    
  Yorick L. A. Schmerwitz: GMF and freeze-and-release deltaSCF, NEB S-IDPP initial path                    
  Kantharuban Sivalingam : CASSCF convergence/infrastructure, NEVPT2, NEVPT3, NEVPT4(SD), FIC-MRCI and CEPA variants
  Bernardo de Souza      : ESD, SOC TD-DFT                               
  Georgi L. Stoychev     : AutoAux, RI-MP2 NMR, DLPNO-MP2 response, X2C  
  Van Anh Tran           : RI-MP2 g-tensors                              
  Willem Van den Heuvel  : Paramagnetic NMR                              
  Zikuan Wang            : NOTCH, Electric field optimization            
  Frank Wennmohs         : Technical directorship and infrastructure     
  Hang Xu                : AUTO-CI-Response properties                   
                                                                         
[FACCTs GmbH]                                                            
  Markus Bursch, Nicolas Foglia, Miquel Garcia-Rates, Ingolf Harden, Hagen Neugebauer, Anastasios Papadopoulos, 
  Christoph Riplinger, Bernardo de Souza, Georgi L. Stoychev                                                    
                                                                 
  APM, various basis sets, CI-OPT, improved COSX, DLPNO-Multilevel,           
  DOCKER, DRACO, updates on ESD, Fragmentator, GOAT, IRC, LR-CPCM, L-BFGS, MBIS, meta-GGA TD-DFT gradient, ML-optimized integration grids, 
  MM, NACMEs, nearIR, NEB, NEB-TS, NL-DFT gradient (VV10), 2- and 3-layer-ONIOM, interface openCOSMO-RS, QMMM,   
  Crystal-QMMM, RESP, rigid body optimization, SF, symmetry and pop. for TD-DFT, various functionals, SOLVATOR                                   
                                                                         
[Other institutions]                                                     
  V. Asgeirsson          : NEB                                           
  Christoph Bannwarth    : sTDA-DFT, sTD-DFT, PBEh-3c, B97-3c, D3        
  Giovanni Bistoni       : ETS/NOCV, ADLD/ADEX, COVALED                  
  Martin Brehm           : Molecular dynamics                            
  Ronald Cardenas        : ETS/NOCV                                      
  Martina Colucci        : COVALED                                       
  Sebastian Ehlert       : rSCAN, r2SCAN, r2SCAN-3c, D4, dhf basis sets  
  Marvin Friede          : D4 for Fr, Ra, Ac-Lr                          
  Lars Goerigk           : TD-DFT with DH, B97 family of functionals     
  Stefan Grimme          : VdW corrections, initial TS optimization, DFT functionals, gCP, sTDA/sTD-DF 
  Waldemar Hujo          : DFT-NL                                        
  H. Jonsson             : NEB                                           
  Holger Kruse           : gCP                                           
  Marcel Mueller         : wB97X-3c, vDZP basis set                      
  Hagen Neugebauer       : wr2SCAN, Native XTB                           
  Gianluca Regni         : ADLD/ADEX                                     
  Tobias Risthaus        : pre 6.0 range-separated hybrid DFT and stability analysis
  Lukas Wittmann         : regularized MP2, r2SCAN double-hybrids, wr2SCAN        
                                                                         
We gratefully acknowledge several colleagues who have allowed us to      
interface, adapt or use parts of their codes:                            
  Ed Valeev, F. Pavosevic, A. Kumar             : LibInt (2-el integral package), F12 methods 
  Garnet Chan, S. Sharma, J. Yang, R. Olivares  : DMRG                   
  Ulf Ekstrom                                   : XCFun DFT Library      
  Mihaly Kallay                                 : mrcc  (arbitrary order and MRCC methods)
  Frank Weinhold                                : gennbo (NPA and NBO analysis)           
  Simon Mueller                                 : openCOSMO-RS                            
  Christopher J. Cramer and Donald G. Truhlar   : smd solvation model                     
  S Lehtola, MJT Oliveira, MAL Marques          : LibXC Library                           
  Liviu Ungur et al                             : ANISO software                          


 Your calculation uses the libint2 library for the computation of 2-el integrals
 For citations please refer to: http://libint.valeyev.net

 Your ORCA version has been built with support for libXC version: 7.0.0
 For citations please refer to: https://libxc.gitlab.io

 This ORCA versions uses:
   CBLAS   interface :  Fast vector & matrix operations
   LAPACKE interface :  Fast linear algebra routines
   SCALAPACK package :  Parallel linear algebra routines
   Shared memory     :  Shared parallel matrices
   BLAS/LAPACK       :  OpenBLAS 0.3.29  USE64BITINT DYNAMIC_ARCH NO_AFFINITY Haswell SINGLE_THREADED
        Core in use  :  Haswell
   Copyright (c) 2011-2014, The OpenBLAS Project


  ***********************************
  * Starting time: Mon Sep  1 16:35:07 2025
  * Host name:     chemlab03
  * Process ID:    109657
  * Working dir.:  /home/vivek/mm-project/vivek/xtb-goat/MP2-opt/g/0
  ***********************************



***************************************
The coordinates will be read from file: /home/vivek/mm-project/vivek/xtb-goat/xtb-goat/g/G_CONF/0.xyz
***************************************


================================================================================

----- Orbital basis set information -----
Your calculation utilizes the basis: 6-31G**
   H-He, Li-Ne : W. J. Hehre, R. Ditchfield and J.A. Pople, J. Chem. Phys. 56, 2257 (1972).
                 Note: He and Ne are unpublished basis sets taken from the Gaussian program.
                 Note: Li and B from J. D. Dill and J. A. Pople, J. Chem. Phys. 62, 2921 (1975).
   Na - Ar     : M. M. Francl, W. J. Pietro, W. J. Hehre, J. S. Binkley, M. S. Gordon, 
                 D. J. DeFrees and J. A. Pople, J. Chem. Phys. 77, 3654 (1982).
   K - Zn      : V. A. Rassolov, J. A. Pople, M. A. Ratner, and T. L. Windus, J. Chem. Phys. 109, 1223 (1998).

================================================================================
                                        WARNINGS
                       Please study these warnings very carefully!
================================================================================

WARNING: Old DensityContainer found on disk!
         Will remove this file - 
         If you want to keep old densities, please start your calculation with a different basename. 


WARNING: The frozen-core approximation for MP2-gradient calculations is turned on by default.

WARNING: Geometry Optimization
  ===> : Switching off AutoStart
         For restart on a previous wavefunction, please use MOREAD

WARNING: Post HF methods need fully converged wavefunctions
  ===> : Setting SCFConvForced true
         You can overwrite this default with %scf ConvForced false 


================================================================================
                                       INPUT FILE
================================================================================
NAME = 0.inp
|  1> ! MP2 6-31G** opt
|  2> 
|  3> * xyzfile 0 1 /home/vivek/mm-project/vivek/xtb-goat/xtb-goat/g/G_CONF/0.xyz
|  4> 
|  5>                          ****END OF INPUT****
================================================================================

                       *****************************
                       * Geometry Optimization Run *
                       *****************************

Geometry optimization settings:
Update method            Update   .... BFGS
Choice of coordinates    CoordSys .... (2022) Redundant Internals
Initial Hessian          InHess   .... Almloef's Model
Max. no of cycles        MaxIter  .... 50

Convergence Tolerances:
Energy Change            TolE     ....  5.0000e-06 Eh
Max. Gradient            TolMAXG  ....  3.0000e-04 Eh/bohr
RMS Gradient             TolRMSG  ....  1.0000e-04 Eh/bohr
Max. Displacement        TolMAXD  ....  4.0000e-03 bohr
RMS Displacement         TolRMSD  ....  2.0000e-03 bohr
Strict Convergence                .... False

------------------------------------------------------------------------------
                        ORCA OPTIMIZATION COORDINATE SETUP
------------------------------------------------------------------------------

The optimization will be done in redundant internal coordinates (2022)
Making redundant internal coordinates   ...  (2022 redundants) done
Evaluating the initial hessian          ...  (Almloef) done
Evaluating the coordinates              ...  done
Calculating the B-matrix                .... done
Calculating the G-matrix                .... done
The number of degrees of freedom        ....   34

    -----------------------------------------------------------------
                    Redundant Internal Coordinates


    -----------------------------------------------------------------
         Definition                    Initial Value    Approx d2E/dq
    -----------------------------------------------------------------
      1. B(C   1,C   0)                  1.5198         0.387807   
      2. B(N   4,H   2)                  1.0153         0.424292   
      3. B(N   4,C   0)                  1.4456         0.456290   
      4. B(N   4,H   3)                  1.0154         0.424280   
      5. B(O   5,C   1)                  1.3376         0.678473   
      6. B(H   6,C   0)                  1.0940         0.354791   
      7. B(H   7,C   0)                  1.0940         0.354827   
      8. B(H   8,O   5)                  0.9708         0.499641   
      9. B(O   9,C   1)                  1.2020         1.116554   
     10. A(N   4,C   0,H   7)          109.3396         0.332377   
     11. A(C   1,C   0,H   7)          108.1385         0.325528   
     12. A(C   1,C   0,N   4)          114.1549         0.376114   
     13. A(H   6,C   0,H   7)          107.5460         0.289491   
     14. A(C   1,C   0,H   6)          108.1325         0.325522   
     15. A(N   4,C   0,H   6)          109.3211         0.332371   
     16. A(C   0,C   1,O   9)          124.6233         0.440575   
     17. A(C   0,C   1,O   5)          112.2783         0.403088   
     18. A(O   5,C   1,O   9)          123.0983         0.484741   
     19. A(C   0,N   4,H   3)          109.8571         0.339472   
     20. A(C   0,N   4,H   2)          109.8661         0.339474   
     21. A(H   2,N   4,H   3)          106.6706         0.301359   
     22. A(C   1,O   5,H   8)          110.6101         0.373333   
     23. D(O   5,C   1,C   0,N   4)    179.8919         0.011196   
     24. D(O   9,C   1,C   0,N   4)     -0.0576         0.011196   
     25. D(O   9,C   1,C   0,H   6)    121.8414         0.011196   
     26. D(O   5,C   1,C   0,H   6)    -58.2090         0.011196   
     27. D(O   5,C   1,C   0,H   7)     57.9647         0.011196   
     28. D(H   2,N   4,C   0,H   6)   -179.8861         0.017768   
     29. D(H   2,N   4,C   0,C   1)    -58.6428         0.017768   
     30. D(H   3,N   4,C   0,H   6)    -62.8343         0.017768   
     31. D(H   3,N   4,C   0,C   1)     58.4090         0.017768   
     32. D(H   2,N   4,C   0,H   7)     62.6221         0.017768   
     33. D(H   8,O   5,C   1,O   9)     -0.0307         0.034272   
     34. D(H   8,O   5,C   1,C   0)   -179.9812         0.034272   
    -----------------------------------------------------------------

Number of atoms                         .... 10
Number of degrees of freedom            .... 34


         *************************************************************
         *                GEOMETRY OPTIMIZATION CYCLE   1            *
         *************************************************************
---------------------------------
CARTESIAN COORDINATES (ANGSTROEM)
---------------------------------
  C     -4.977551   -1.323083   -0.153995
  C     -4.782569   -2.270042    1.018656
  H     -6.461651   -0.192238    0.643965
  H     -4.970997    0.416105    0.891412
  N     -5.557438   -0.048535    0.205015
  O     -4.246706   -3.437024    0.644378
  H     -4.003482   -1.158065   -0.623984
  H     -5.618675   -1.818656   -0.889003
  H     -4.133230   -4.022354    1.410576
  O     -5.071990   -2.015793    2.157209

----------------------------
CARTESIAN COORDINATES (A.U.)
----------------------------
  NO LB      ZA    FRAG     MASS         X           Y           Z
   0 C     6.0000    0    12.011   -9.406208   -2.500264   -0.291009
   1 C     6.0000    0    12.011   -9.037746   -4.289758    1.924981
   2 H     1.0000    0     1.008  -12.210750   -0.363277    1.216917
   3 H     1.0000    0     1.008   -9.393822    0.786324    1.684525
   4 N     7.0000    0    14.007  -10.502035   -0.091718    0.387422
   5 O     8.0000    0    15.999   -8.025112   -6.495033    1.217698
   6 H     1.0000    0     1.008   -7.565484   -2.188425   -1.179159
   7 H     1.0000    0     1.008  -10.617756   -3.436762   -1.679972
   8 H     1.0000    0     1.008   -7.810673   -7.601148    2.665602
   9 O     8.0000    0    15.999   -9.584672   -3.809296    4.076535

--------------------------------
INTERNAL COORDINATES (ANGSTROEM)
--------------------------------
 C      0   0   0     0.000000000000     0.00000000     0.00000000
 C      1   0   0     1.519822389748     0.00000000     0.00000000
 H      1   2   0     2.029310888282    97.91128967     0.00000000
 H      3   1   2     1.628913802666    66.33373974    93.37039807
 N      3   1   2     1.015346400441    42.06290665   128.12576073
 O      2   1   3     1.337564566763   112.27831406   155.95724356
 H      1   2   3     1.094043358835   108.13247892   145.83371056
 H      1   2   3     1.094015355890   108.13854561   262.00741784
 H      6   2   1     0.970848825581   110.61011441   180.01877776
 O      2   1   3     1.201961073632   124.62332946   336.00766254

---------------------------
INTERNAL COORDINATES (A.U.)
---------------------------
 C      0   0   0     0.000000000000     0.00000000     0.00000000
 C      1   0   0     2.872048088826     0.00000000     0.00000000
 H      1   2   0     3.834841819437    97.91128967     0.00000000
 H      3   1   2     3.078200982803    66.33373974    93.37039807
 N      3   1   2     1.918726627896    42.06290665   128.12576073
 O      2   1   3     2.527630717618   112.27831406   155.95724356
 H      1   2   3     2.067442326833   108.13247892   145.83371056
 H      1   2   3     2.067389408936   108.13854561   262.00741784
 H      6   2   1     1.834638397788   110.61011441   180.01877776
 O      2   1   3     2.271377252798   124.62332946   336.00766254

---------------------
BASIS SET INFORMATION
---------------------
There are 4 groups of distinct atoms

 Group   1 Type C   : 10s4p1d contracted to 3s2p1d pattern {631/31/1}
 Group   2 Type H   : 4s1p contracted to 2s1p pattern {31/1}
 Group   3 Type N   : 10s4p1d contracted to 3s2p1d pattern {631/31/1}
 Group   4 Type O   : 10s4p1d contracted to 3s2p1d pattern {631/31/1}

Atom   0C    basis set group =>   1
Atom   1C    basis set group =>   1
Atom   2H    basis set group =>   2
Atom   3H    basis set group =>   2
Atom   4N    basis set group =>   3
Atom   5O    basis set group =>   4
Atom   6H    basis set group =>   2
Atom   7H    basis set group =>   2
Atom   8H    basis set group =>   2
Atom   9O    basis set group =>   4
------------------------------------------------------------------------------
                             ORCA STARTUP CALCULATIONS
------------------------------------------------------------------------------
------------------------------------------------------------------------------
                   ___                                                        
                  /   \      - P O W E R E D   B Y -                         
                 /     \                                                     
                 |  |  |   _    _      __       _____    __    __             
                 |  |  |  | |  | |    /  \     |  _  \  |  |  /  |          
                  \  \/   | |  | |   /    \    | | | |  |  | /  /          
                 / \  \   | |__| |  /  /\  \   | |_| |  |  |/  /          
                |  |  |   |  __  | /  /__\  \  |    /   |      \           
                |  |  |   | |  | | |   __   |  |    \   |  |\   \          
                \     /   | |  | | |  |  |  |  | |\  \  |  | \   \       
                 \___/    |_|  |_| |__|  |__|  |_| \__\ |__|  \__/        
                                                                              
                      - O R C A' S   B I G   F R I E N D -                    
                                      &                                       
                       - I N T E G R A L  F E E D E R -                       
                                                                              
 v1 FN, 2020, v2 2021, v3 2022-2024                                           
------------------------------------------------------------------------------


----------------------
SHARK INTEGRAL PACKAGE
----------------------

Number of atoms                             ...     10
Number of basis functions                   ...     95
Number of shells                            ...     45
Maximum angular momentum                    ...      2
Integral batch strategy                     ... SHARK/LIBINT Hybrid
RI-J (if used) integral strategy            ... SPLIT-RIJ (Revised 2003 algorithm where possible)
Printlevel                                  ...      1
Contraction scheme used                     ... SEGMENTED contraction
Prescreening option                         ... SCHWARTZ
   Thresh                                   ... 2.500e-11
   Tcut                                     ... 2.500e-12
   Tpresel                                  ... 2.500e-12 
Coulomb Range Separation                    ... NOT USED
Exchange Range Separation                   ... NOT USED
Multipole approximations                    ... NOT USED
Finite Nucleus Model                        ... NOT USED
CABS basis                                  ... NOT available
Auxiliary Coulomb fitting basis             ... NOT available
Auxiliary J/K fitting basis                 ... NOT available
Auxiliary Correlation fitting basis         ... NOT available
Auxiliary 'external' fitting basis          ... NOT available

Checking pre-screening integrals            ... done (  0.0 sec) Dimension = 45
   => SHARK Basis and OBASIS are compatible. Storing Pre-screening
Shell pair information
Shell pair cut-off parameter TPreSel        ...   2.5e-12
Total number of shell pairs                 ...      1035
Shell pairs after pre-screening             ...      1003
Total number of primitive shell pairs       ...      5170
Primitive shell pairs kept                  ...      3743
          la=0 lb=0:    314 shell pairs
          la=1 lb=0:    360 shell pairs
          la=1 lb=1:    117 shell pairs
          la=2 lb=0:    123 shell pairs
          la=2 lb=1:     74 shell pairs
          la=2 lb=2:     15 shell pairs

Checking whether 4 symmetric matrices of dimension 95 fit in memory
:Max Core in MB      =   4096.00
 MB in use           =      2.63
 MB left             =   4093.37
 MB needed           =      0.14
 Data fit in memory  = YES
Calculating Nuclear repulsion               ... done (  0.0 sec) ENN=    179.915764063273 Eh

Diagonalization of the overlap matrix:
Smallest eigenvalue                        ... 4.362e-03
Time for diagonalization                   ...    0.001 sec
Threshold for overlap eigenvalues          ... 1.000e-07
Number of eigenvalues below threshold      ... 0
Time for construction of square roots      ...    0.000 sec
Total time needed                          ...    0.001 sec

-------------------
DFT GRID GENERATION
-------------------

General Integration Accuracy     IntAcc      ... 4.388
Radial Grid Type                 RadialGrid  ... OptM3 with GC (2021)
Angular Grid (max. ang.)         AngularGrid ... 4 (Lebedev-302)
Angular grid pruning method      GridPruning ... 4 (adaptive)
Weight generation scheme         WeightScheme... mBecke (2022)
Basis function cutoff            BFCut       ... 1.0000e-11
Integration weight cutoff        WCut        ... 1.0000e-14
Partially contracted basis set               ... off
Rotationally invariant grid construction     ... off
Angular grids for H and He will be reduced by one unit

Total number of grid points                  ...    46639
Total number of batches                      ...      735
Average number of points per batch           ...       63
Average number of grid points per atom       ...     4664
Grids setup in   0.1 sec
Initializing property integral containers    ... done (  0.0 sec)

SHARK setup successfully completed in   0.2 seconds

Maximum memory used throughout the entire STARTUP-calculation: 17.8 MB
-------------------------------------------------------------------------------
                                 ORCA GUESS
                   Start orbitals & Density for SCF / CASSCF
-------------------------------------------------------------------------------

------------
SCF SETTINGS
------------
Hamiltonian:
 Ab initio Hamiltonian  Method          .... Hartree-Fock(GTOs)


General Settings:
 Integral files         IntName         .... 0
 Hartree-Fock type      HFTyp           .... RHF
 Total Charge           Charge          ....    0
 Multiplicity           Mult            ....    1
 Number of Electrons    NEL             ....   40
 Basis Dimension        Dim             ....   95
 Nuclear Repulsion      ENuc            ....    179.9157640633 Eh

Convergence Acceleration:
 AO-DIIS                CNVDIIS         .... on
   Start iteration      DIISMaxIt       ....    12
   Startup error        DIISStart       ....  0.200000
   # of expansion vecs  DIISMaxEq       ....     5
   Bias factor          DIISBfac        ....   1.050
   Max. coefficient     DIISMaxC        ....  10.000
 MO-DIIS                CNVKDIIS        .... off
 Trust-Rad. Augm. Hess. CNVTRAH         .... auto
   Auto Start mean grad. ratio tolernc. ....  1.125000
   Auto Start start iteration           ....    50
   Auto Start num. interpolation iter.  ....    10
   Max. Number of Micro iterations      ....    24
   Max. Number of Macro iterations      .... Maxiter - #DIIS iter
   Number of Davidson start vectors     ....     2
   Converg. threshold    (grad. norm)   ....   1.000e-05
   Grad. Scal. Fac. for Micro threshold ....   0.100
   Minimum threshold for Micro iter.    ....   1.000e-02
   NR start threshold (gradient norm)   ....   1.000e-04
   Initial trust radius                 ....   0.400
   Minimum AH scaling param. (alpha)    ....   1.000
   Maximum AH scaling param. (alpha)    .... 1000.000
   Quad. conv. algorithm                .... NR
   White noise on init. David. guess    .... on
   Maximum white noise                  ....   0.010
   Pseudo random numbers                .... off
   Inactive MOs                         .... canonical
   Orbital update algorithm             .... Taylor
   Preconditioner                       .... Diag
   Full preconditioner red. dimension   ....   250
 SOSCF                 CNVSOSCF           .... on
   Start iteration     SOSCFMaxIt         ....   150
   Startup grad/error  SOSCFStart         ....  0.003300
   Hessian update      SOSCFHessUp        .... L-BFGS
   Autom. constraints  SOSCFAutoConstrain .... off
 Level Shifting         CNVShift        .... on
   Level shift para.    LevelShift      ....    0.2500
   Turn off err/grad.   ShiftErr        ....    0.0010
 Zerner damping         CNVZerner       .... off
 Static damping         CNVDamp         .... on
   Fraction old density DampFac         ....    0.7000
   Max. Damping (<1)    DampMax         ....    0.9800
   Min. Damping (>=0)   DampMin         ....    0.0000
   Turn off err/grad.   DampErr         ....    0.1000

SCF Procedure:
 Maximum # iterations   MaxIter         ....   125
 SCF integral mode      SCFMode         .... Direct
   Integral package                     .... SHARK and LIBINT hybrid scheme
 Reset frequency        DirectResetFreq ....    20
 Integral Threshold     Thresh          ....  2.500e-11 Eh
 Primitive CutOff       TCut            ....  2.500e-12 Eh

Convergence Tolerance:
 Convergence Check Mode ConvCheckMode   .... Total+1el-Energy
 Convergence forced     ConvForced      .... 1
 Energy Change          TolE            ....  1.000e-08 Eh
 1-El. energy change                    ....  1.000e-05 Eh
 Orbital Gradient       TolG            ....  1.000e-05
 Orbital Rotation angle TolX            ....  1.000e-05
 DIIS Error             TolErr          ....  5.000e-07

------------------------------
INITIAL GUESS: MODEL POTENTIAL
------------------------------
Loading Hartree-Fock densities                     ... done
Calculating cut-offs                               ... done
Initializing the effective Hamiltonian             ... done
Setting up the integral package (SHARK)            ... done
Starting the Coulomb interaction                   ... done (   0.0 sec)
Making the grid                                    ... done (   0.0 sec)
Mapping shells                                     ... done
Starting the XC term evaluation                    ... done (   0.0 sec)
Transforming the Hamiltonian                       ... done (   0.0 sec)
Diagonalizing the Hamiltonian                      ... done (   0.0 sec)
Back transforming the eigenvectors                 ... done (   0.0 sec)
Now organizing SCF variables                       ... done
                      ------------------
                      INITIAL GUESS DONE (   0.1 sec)
                      ------------------
             **** ENERGY FILE WAS UPDATED (0.en.tmp) ****
Finished Guess after   0.1 sec
Maximum memory used throughout the entire GUESS-calculation: 6.2 MB

-------------------------------------------------------------------------------------------
                                      ORCA LEAN-SCF
                              memory conserving SCF solver
-------------------------------------------------------------------------------------------

----------------------------------------D-I-I-S--------------------------------------------
Iteration    Energy (Eh)           Delta-E    RMSDP     MaxDP     DIISErr   Damp  Time(sec)
-------------------------------------------------------------------------------------------
               ***  Starting incremental Fock matrix formation  ***
    1    -282.6059629710117065     0.00e+00  3.62e-03  6.57e-02  2.57e-01  0.700   0.2
    2    -282.6938907127341167    -8.79e-02  2.63e-03  4.70e-02  1.58e-01  0.700   0.2
                               ***Turning on AO-DIIS***
    3    -282.7439804443695834    -5.01e-02  1.35e-03  2.09e-02  8.92e-02  0.700   0.2
    4    -282.7753143385575640    -3.13e-02  3.04e-03  4.64e-02  6.24e-02  0.000   0.2
    5    -282.8448825719760862    -6.96e-02  4.14e-04  6.10e-03  5.93e-03  0.000   0.2
                              *** Initializing SOSCF ***
---------------------------------------S-O-S-C-F--------------------------------------
Iteration    Energy (Eh)           Delta-E    RMSDP     MaxDP     MaxGrad    Time(sec)
--------------------------------------------------------------------------------------
    6    -282.8452079650224391    -3.25e-04  2.08e-04  2.48e-03  3.20e-03     0.2
               *** Restarting incremental Fock matrix formation ***
    7    -282.8452856844264716    -7.77e-05  1.30e-04  2.38e-03  1.91e-03     0.2
    8    -282.8453110759942888    -2.54e-05  1.54e-04  2.01e-03  5.27e-04     0.2
    9    -282.8453200429458434    -8.97e-06  2.78e-05  3.27e-04  2.50e-04     0.2
   10    -282.8453209363968313    -8.93e-07  8.36e-06  1.03e-04  5.74e-05     0.2
   11    -282.8453210123724375    -7.60e-08  4.05e-06  7.02e-05  2.09e-05     0.2
   12    -282.8453210235931010    -1.12e-08  8.10e-07  1.88e-05  1.06e-05     0.2
   13    -282.8453210246732397    -1.08e-09  2.01e-07  3.51e-06  1.24e-06     0.2
                 **** Energy Check signals convergence ****

               *****************************************************
               *                     SUCCESS                       *
               *           SCF CONVERGED AFTER  13 CYCLES          *
               *****************************************************

             **** ENERGY FILE WAS UPDATED (0.en.tmp) ****

----------------
TOTAL SCF ENERGY
----------------

Total Energy       :       -282.84532102499503 Eh           -7696.61247 eV

Components:
Nuclear Repulsion  :        179.91576406327272 Eh            4895.75684 eV
Electronic Energy  :       -462.76108508826775 Eh          -12592.36931 eV
One Electron Energy:       -743.55627492609040 Eh          -20233.19488 eV
Two Electron Energy:        280.79518983782265 Eh            7640.82557 eV

Virial components:
Potential Energy   :       -565.24134686456887 Eh          -15380.99900 eV
Kinetic Energy     :        282.39602583957384 Eh            7684.38653 eV
Virial Ratio       :          2.00159101100692

---------------
SCF CONVERGENCE
---------------

  Last Energy change         ...    1.0801e-09  Tolerance :   1.0000e-08
  Last MAX-Density change    ...    3.5105e-06  Tolerance :   1.0000e-07
  Last RMS-Density change    ...    2.0122e-07  Tolerance :   5.0000e-09
  Last DIIS Error            ...    3.2042e-03  Tolerance :   5.0000e-07
  Last Orbital Gradient      ...    1.2387e-06  Tolerance :   1.0000e-05
  Last Orbital Rotation      ...    1.6890e-06  Tolerance :   1.0000e-05


----------------
ORBITAL ENERGIES
----------------

  NO   OCC          E(Eh)            E(eV) 
   0   2.0000     -20.620050      -561.1001 
   1   2.0000     -20.557113      -559.3875 
   2   2.0000     -15.551044      -423.1654 
   3   2.0000     -11.386586      -309.8448 
   4   2.0000     -11.274702      -306.8002 
   5   2.0000      -1.470926       -40.0259 
   6   2.0000      -1.365631       -37.1607 
   7   2.0000      -1.192095       -32.4386 
   8   2.0000      -0.973040       -26.4778 
   9   2.0000      -0.819737       -22.3062 
  10   2.0000      -0.703298       -19.1377 
  11   2.0000      -0.696823       -18.9615 
  12   2.0000      -0.692788       -18.8517 
  13   2.0000      -0.626727       -17.0541 
  14   2.0000      -0.592642       -16.1266 
  15   2.0000      -0.578683       -15.7468 
  16   2.0000      -0.533451       -14.5159 
  17   2.0000      -0.482603       -13.1323 
  18   2.0000      -0.459571       -12.5056 
  19   2.0000      -0.405437       -11.0325 
  20   0.0000       0.184828         5.0294 
  21   0.0000       0.221176         6.0185 
  22   0.0000       0.226939         6.1753 
  23   0.0000       0.280393         7.6299 
  24   0.0000       0.293969         7.9993 
  25   0.0000       0.350054         9.5254 
  26   0.0000       0.411887        11.2080 
  27   0.0000       0.441225        12.0064 
  28   0.0000       0.491605        13.3773 
  29   0.0000       0.549248        14.9458 
  30   0.0000       0.747778        20.3481 
*Only the first 10 virtual orbitals were printed.

                    ********************************
                    * MULLIKEN POPULATION ANALYSIS *
                    ********************************

-----------------------
MULLIKEN ATOMIC CHARGES
-----------------------
   0 C :   -0.118155
   1 C :    0.758014
   2 H :    0.278482
   3 H :    0.278590
   4 N :   -0.681520
   5 O :   -0.632686
   6 H :    0.162131
   7 H :    0.162139
   8 H :    0.373481
   9 O :   -0.580477
Sum of atomic charges:   -0.0000000

--------------------------------
MULLIKEN REDUCED ORBITAL CHARGES
--------------------------------
  0 C s       :     3.218523  s :     3.218523
      pz      :     0.943231  p :     2.835777
      px      :     1.074455
      py      :     0.818092
      dz2     :     0.006207  d :     0.063855
      dxz     :     0.010478
      dyz     :     0.021462
      dx2y2   :     0.014410
      dxy     :     0.011298

  1 C s       :     2.953959  s :     2.953959
      pz      :     0.821521  p :     2.141297
      px      :     0.628933
      py      :     0.690844
      dz2     :     0.036404  d :     0.146729
      dxz     :     0.026293
      dyz     :     0.048196
      dx2y2   :     0.017475
      dxy     :     0.018361

  2 H s       :     0.695346  s :     0.695346
      pz      :     0.007722  p :     0.026172
      px      :     0.013881
      py      :     0.004569

  3 H s       :     0.695237  s :     0.695237
      pz      :     0.010579  p :     0.026173
      px      :     0.007587
      py      :     0.008007

  4 N s       :     3.601472  s :     3.601472
      pz      :     1.561481  p :     4.045326
      px      :     1.178325
      py      :     1.305520
      dz2     :     0.004053  d :     0.034723
      dxz     :     0.011724
      dyz     :     0.004168
      dx2y2   :     0.007936
      dxy     :     0.006841

  5 O s       :     3.832195  s :     3.832195
      pz      :     1.629248  p :     4.775237
      px      :     1.780193
      py      :     1.365796
      dz2     :     0.005491  d :     0.025254
      dxz     :     0.002745
      dyz     :     0.009613
      dx2y2   :     0.003438
      dxy     :     0.003967

  6 H s       :     0.825340  s :     0.825340
      pz      :     0.003429  p :     0.012529
      px      :     0.007672
      py      :     0.001428

  7 H s       :     0.825331  s :     0.825331
      pz      :     0.005526  p :     0.012530
      px      :     0.004218
      py      :     0.002786

  8 H s       :     0.584961  s :     0.584961
      pz      :     0.018809  p :     0.041558
      px      :     0.008694
      py      :     0.014055

  9 O s       :     3.870638  s :     3.870638
      pz      :     1.402996  p :     4.677011
      px      :     1.505129
      py      :     1.768887
      dz2     :     0.010828  d :     0.032827
      dxz     :     0.011702
      dyz     :     0.008095
      dx2y2   :     0.001372
      dxy     :     0.000831



                     *******************************
                     * LOEWDIN POPULATION ANALYSIS *
                     *******************************

----------------------
LOEWDIN ATOMIC CHARGES
----------------------
   0 C :   -0.068107
   1 C :    0.223357
   2 H :    0.134155
   3 H :    0.134203
   4 N :   -0.281919
   5 O :   -0.212360
   6 H :    0.088969
   7 H :    0.088977
   8 H :    0.201940
   9 O :   -0.309215

-------------------------------
LOEWDIN REDUCED ORBITAL CHARGES
-------------------------------
  0 C s       :     2.883652  s :     2.883652
      pz      :     1.026520  p :     3.060220
      px      :     1.074510
      py      :     0.959190
      dz2     :     0.012588  d :     0.124235
      dxz     :     0.018761
      dyz     :     0.044459
      dx2y2   :     0.027134
      dxy     :     0.021292

  1 C s       :     2.849113  s :     2.849113
      pz      :     1.042988  p :     2.609746
      px      :     0.699651
      py      :     0.867107
      dz2     :     0.079637  d :     0.317785
      dxz     :     0.052830
      dyz     :     0.107458
      dx2y2   :     0.036970
      dxy     :     0.040890

  2 H s       :     0.784491  s :     0.784491
      pz      :     0.025047  p :     0.081354
      px      :     0.040935
      py      :     0.015372

  3 H s       :     0.784437  s :     0.784437
      pz      :     0.033950  p :     0.081360
      px      :     0.022960
      py      :     0.024450

  4 N s       :     3.187777  s :     3.187777
      pz      :     1.531947  p :     4.033249
      px      :     1.177241
      py      :     1.324062
      dz2     :     0.005934  d :     0.060893
      dxz     :     0.016638
      dyz     :     0.008080
      dx2y2   :     0.016219
      dxy     :     0.014020

  5 O s       :     3.458510  s :     3.458510
      pz      :     1.601747  p :     4.706082
      px      :     1.739534
      py      :     1.364801
      dz2     :     0.008537  d :     0.047767
      dxz     :     0.003492
      dyz     :     0.018206
      dx2y2   :     0.008589
      dxy     :     0.008944

  6 H s       :     0.871292  s :     0.871292
      pz      :     0.011280  p :     0.039739
      px      :     0.022970
      py      :     0.005490

  7 H s       :     0.871279  s :     0.871279
      pz      :     0.017196  p :     0.039744
      px      :     0.013483
      py      :     0.009065

  8 H s       :     0.677685  s :     0.677685
      pz      :     0.054804  p :     0.120375
      px      :     0.026753
      py      :     0.038818

  9 O s       :     3.548303  s :     3.548303
      pz      :     1.489521  p :     4.703638
      px      :     1.480965
      py      :     1.733152
      dz2     :     0.024826  d :     0.057274
      dxz     :     0.015268
      dyz     :     0.013797
      dx2y2   :     0.001746
      dxy     :     0.001636



                      *****************************
                      * MAYER POPULATION ANALYSIS *
                      *****************************

  NA   - Mulliken gross atomic population
  ZA   - Total nuclear charge
  QA   - Mulliken gross atomic charge
  VA   - Mayer's total valence
  BVA  - Mayer's bonded valence
  FA   - Mayer's free valence

  ATOM       NA         ZA         QA         VA         BVA        FA
  0 C      6.1182     6.0000    -0.1182     3.7794     3.7794     0.0000
  1 C      5.2420     6.0000     0.7580     3.7185     3.7185    -0.0000
  2 H      0.7215     1.0000     0.2785     0.9033     0.9033    -0.0000
  3 H      0.7214     1.0000     0.2786     0.9033     0.9033    -0.0000
  4 N      7.6815     7.0000    -0.6815     2.7764     2.7764    -0.0000
  5 O      8.6327     8.0000    -0.6327     1.8228     1.8228     0.0000
  6 H      0.8379     1.0000     0.1621     0.9417     0.9417     0.0000
  7 H      0.8379     1.0000     0.1621     0.9417     0.9417     0.0000
  8 H      0.6265     1.0000     0.3735     0.8704     0.8704     0.0000
  9 O      8.5805     8.0000    -0.5805     1.9047     1.9047    -0.0000

  Mayer bond orders larger than 0.100000
B(  0-C ,  1-C ) :   0.9190 B(  0-C ,  4-N ) :   0.9815 B(  0-C ,  6-H ) :   0.9562 
B(  0-C ,  7-H ) :   0.9562 B(  1-C ,  5-O ) :   0.9745 B(  1-C ,  9-O ) :   1.8413 
B(  2-H ,  4-N ) :   0.9060 B(  3-H ,  4-N ) :   0.9060 B(  5-O ,  8-H ) :   0.8385 


-------
TIMINGS
-------

Total SCF time: 0 days 0 hours 0 min 2 sec 

Total time                  ....       2.903 sec
Sum of individual times     ....       2.752 sec  ( 94.8%)

SCF preparation             ....       0.013 sec  (  0.5%)
Fock matrix formation       ....       2.702 sec  ( 93.1%)
  Startup                   ....       0.000 sec  (  0.0% of F)
  Coulomb+Exchange Fock     ....       2.853 sec  (105.6% of F)
Diagonalization             ....       0.000 sec  (  0.0%)
Density matrix formation    ....       0.003 sec  (  0.1%)
Total Energy calculation    ....       0.000 sec  (  0.0%)
Population analysis         ....       0.001 sec  (  0.0%)
Orbital Transformation      ....       0.012 sec  (  0.4%)
Orbital Orthonormalization  ....       0.000 sec  (  0.0%)
DIIS solution               ....       0.017 sec  (  0.6%)
SOSCF solution              ....       0.004 sec  (  0.1%)
Finished LeanSCF after   2.9 sec

Maximum memory used throughout the entire LEANSCF-calculation: 9.3 MB

------------------------------------------------------------------------------
                                ORCA  MP2 
------------------------------------------------------------------------------

Freezing NCore=10 chemical core electrons
MP2 will be done in the AO integral direct mode
The Q1-step will be done using symmetric double matrices
Dimension of the basis                    ...   95
Memory devoted for MP2                    ... 4096 MB   
Memory needed for all in one shot         ...   51 MB
Number of MOs that can be treated together... 1238      
MP2 density construction                  ... relaxed
The MP2 gradient is requested => amplitudes will be stored on disk
Total number of MOs              ...   15
Number of MOs treated per batch  ...   15 
Number of batches necessary      ...    1 
OPERATORS   0/  0 PASS   0
-----------------------------------------------
 MP2 CORRELATION ENERGY   :     -0.789168472 Eh
-----------------------------------------------


---------------------
MP2 DENSITY FORMATION
---------------------

Completing the external part of the density      ... done
Storing the unrelaxed density                    ... done

Calculating G(D)                                 ... done
Completing the Lagrangian                        ... done
Solving the Z-vector equations                   ... 
-------------------
SHARK CP-SCF DRIVER
-------------------

Dimension of the orbital basis          ...     95
Dimension of the CPSCF-problem          ...   1500
Number of operators                     ...      1
Max. number of iterations               ...    128
Convergence Tolerance                   ... 1.0e-04
Number of perturbations                 ...      1
Perturbation type                       ... REAL

----------------------------
POPLE LINEAR EQUATION SOLVER
----------------------------

  ITERATION   0:   ||err||_max =   1.0959e-01 (   0.3 sec)
  ITERATION   1:   ||err||_max =   2.8177e-02 (   0.3 sec)
  ITERATION   2:   ||err||_max =   1.2186e-02 (   0.3 sec)
  ITERATION   3:   ||err||_max =   2.9421e-03 (   0.3 sec)
  ITERATION   4:   ||err||_max =   9.8077e-04 (   0.3 sec)
  ITERATION   5:   ||err||_max =   2.2729e-04 (   0.3 sec)
  ITERATION   6:   ||err||_max =   5.6362e-05 (   0.3 sec)
                                                 ... done
Finalizing the relaxed density                   ... done
Transforming P to the AO basis                   ... done
Storing the relaxed density                      ... done

------------------------------------
ENERGY WEIGHTED DENSITY FINALIZATION
------------------------------------

Gathering the parts of the W-matrix              ...                                                      done
Forming the Z-density                            ... done
Transforming Z to the AO basis                   ... done
Calculating G(Z)                                 ... done
Finalizing the W-matrix                          ...                                                      done
Transforming W to the AO basis and storing       ... done

                *********************************************
                * UNRELAXED MP2 DENSITY POPULATION ANALYSIS *
                *********************************************

------------------------------------------------------------------------------
                           ORCA POPULATION ANALYSIS
------------------------------------------------------------------------------
Input electron density              ... 0.pmp2ur
BaseName (.gbw .S,...)              ... 0

                    ********************************
                    * MULLIKEN POPULATION ANALYSIS *
                    ********************************

-----------------------
MULLIKEN ATOMIC CHARGES
-----------------------
   0 C :   -0.123474
   1 C :    0.725408
   2 H :    0.277198
   3 H :    0.277304
   4 N :   -0.674769
   5 O :   -0.619534
   6 H :    0.162770
   7 H :    0.162778
   8 H :    0.370339
   9 O :   -0.558021
Sum of atomic charges:   -0.0000000

--------------------------------
MULLIKEN REDUCED ORBITAL CHARGES
--------------------------------
  0 C s       :     3.215771  s :     3.215771
      pz      :     0.941006  p :     2.828959
      px      :     1.070079
      py      :     0.817875
      dz2     :     0.009428  d :     0.078743
      dxz     :     0.013653
      dyz     :     0.023999
      dx2y2   :     0.017341
      dxy     :     0.014323
  1 C s       :     2.955382  s :     2.955382
      pz      :     0.820799  p :     2.162118
      px      :     0.643818
      py      :     0.697502
      dz2     :     0.038599  d :     0.157091
      dxz     :     0.028302
      dyz     :     0.050306
      dx2y2   :     0.019469
      dxy     :     0.020415
  2 H s       :     0.694636  s :     0.694636
      pz      :     0.008521  p :     0.028165
      px      :     0.014214
      py      :     0.005430
  3 H s       :     0.694531  s :     0.694531
      pz      :     0.011234  p :     0.028165
      px      :     0.008219
      py      :     0.008713
  4 N s       :     3.597017  s :     3.597017
      pz      :     1.551066  p :     4.021441
      px      :     1.172978
      py      :     1.297396
      dz2     :     0.008582  d :     0.056312
      dxz     :     0.015926
      dyz     :     0.008774
      dx2y2   :     0.012071
      dxy     :     0.010959
  5 O s       :     3.828082  s :     3.828082
      pz      :     1.618933  p :     4.743349
      px      :     1.767310
      py      :     1.357106
      dz2     :     0.009885  d :     0.048103
      dxz     :     0.007251
      dyz     :     0.014150
      dx2y2   :     0.008172
      dxy     :     0.008644
  6 H s       :     0.822077  s :     0.822077
      pz      :     0.004358  p :     0.015153
      px      :     0.008355
      py      :     0.002440
  7 H s       :     0.822069  s :     0.822069
      pz      :     0.006342  p :     0.015153
      px      :     0.005067
      py      :     0.003745
  8 H s       :     0.586961  s :     0.586961
      pz      :     0.019047  p :     0.042699
      px      :     0.009312
      py      :     0.014340
  9 O s       :     3.866183  s :     3.866183
      pz      :     1.393760  p :     4.637504
      px      :     1.489569
      py      :     1.754176
      dz2     :     0.014895  d :     0.054333
      dxz     :     0.015840
      dyz     :     0.012652
      dx2y2   :     0.005728
      dxy     :     0.005219


                     *******************************
                     * LOEWDIN POPULATION ANALYSIS *
                     *******************************

----------------------
LOEWDIN ATOMIC CHARGES
----------------------
   0 C :   -0.071118
   1 C :    0.199558
   2 H :    0.133458
   3 H :    0.133505
   4 N :   -0.278042
   5 O :   -0.204057
   6 H :    0.089047
   7 H :    0.089055
   8 H :    0.199628
   9 O :   -0.291034

-------------------------------
LOEWDIN REDUCED ORBITAL CHARGES
-------------------------------
  0 C s       :     2.883543  s :     2.883543
      pz      :     1.021997  p :     3.046424
      px      :     1.068798
      py      :     0.955629
      dz2     :     0.016142  d :     0.141151
      dxz     :     0.022461
      dyz     :     0.047343
      dx2y2   :     0.030493
      dxy     :     0.024712
  1 C s       :     2.849849  s :     2.849849
      pz      :     1.039692  p :     2.621648
      px      :     0.712247
      py      :     0.869709
      dz2     :     0.082650  d :     0.328946
      dxz     :     0.054782
      dyz     :     0.109065
      dx2y2   :     0.039228
      dxy     :     0.043220
  2 H s       :     0.781566  s :     0.781566
      pz      :     0.026174  p :     0.084976
      px      :     0.042425
      py      :     0.016377
  3 H s       :     0.781515  s :     0.781515
      pz      :     0.035319  p :     0.084980
      px      :     0.024169
      py      :     0.025492
  4 N s       :     3.185897  s :     3.185897
      pz      :     1.521424  p :     4.007876
      px      :     1.171101
      py      :     1.315351
      dz2     :     0.010641  d :     0.084269
      dxz     :     0.021384
      dyz     :     0.013036
      dx2y2   :     0.020743
      dxy     :     0.018466
  5 O s       :     3.456611  s :     3.456611
      pz      :     1.591808  p :     4.675383
      px      :     1.727149
      py      :     1.356426
      dz2     :     0.013104  d :     0.072062
      dxz     :     0.007989
      dyz     :     0.023290
      dx2y2   :     0.013671
      dxy     :     0.014007
  6 H s       :     0.866774  s :     0.866774
      pz      :     0.012659  p :     0.044180
      px      :     0.024755
      py      :     0.006765
  7 H s       :     0.866761  s :     0.866761
      pz      :     0.018754  p :     0.044184
      px      :     0.014941
      py      :     0.010489
  8 H s       :     0.677559  s :     0.677559
      pz      :     0.055876  p :     0.122813
      px      :     0.027385
      py      :     0.039552
  9 O s       :     3.545312  s :     3.545312
      pz      :     1.479258  p :     4.664433
      px      :     1.466117
      py      :     1.719059
      dz2     :     0.030206  d :     0.081288
      dxz     :     0.020081
      dyz     :     0.018757
      dx2y2   :     0.006174
      dxy     :     0.006070


                      *****************************
                      * MAYER POPULATION ANALYSIS *
                      *****************************

  NA   - Mulliken gross atomic population
  ZA   - Total nuclear charge
  QA   - Mulliken gross atomic charge
  VA   - Mayer's total valence
  BVA  - Mayer's bonded valence
  FA   - Mayer's free valence

  ATOM       NA         ZA         QA         VA         BVA        FA
  0 C      6.1235     6.0000    -0.1235     3.8581     3.6029     0.2552
  1 C      5.2746     6.0000     0.7254     3.7813     3.4946     0.2867
  2 H      0.7228     1.0000     0.2772     0.9103     0.8656     0.0447
  3 H      0.7227     1.0000     0.2773     0.9103     0.8656     0.0447
  4 N      7.6748     7.0000    -0.6748     2.9679     2.6474     0.3206
  5 O      8.6195     8.0000    -0.6195     2.0801     1.7264     0.3537
  6 H      0.8372     1.0000     0.1628     0.9497     0.9040     0.0457
  7 H      0.8372     1.0000     0.1628     0.9497     0.9040     0.0457
  8 H      0.6297     1.0000     0.3703     0.8772     0.8334     0.0438
  9 O      8.5580     8.0000    -0.5580     2.1685     1.7733     0.3952

  Mayer bond orders larger than 0.100000
B(  0-C ,  1-C ) :   0.8710 B(  0-C ,  4-N ) :   0.9279 B(  0-C ,  6-H ) :   0.9206 
B(  0-C ,  7-H ) :   0.9207 B(  1-C ,  5-O ) :   0.9215 B(  1-C ,  9-O ) :   1.7225 
B(  2-H ,  4-N ) :   0.8697 B(  3-H ,  4-N ) :   0.8696 B(  5-O ,  8-H ) :   0.8040 



                *******************************************
                * RELAXED MP2 DENSITY POPULATION ANALYSIS *
                *******************************************

------------------------------------------------------------------------------
                           ORCA POPULATION ANALYSIS
------------------------------------------------------------------------------
Input electron density              ... 0.pmp2re
BaseName (.gbw .S,...)              ... 0

                    ********************************
                    * MULLIKEN POPULATION ANALYSIS *
                    ********************************

-----------------------
MULLIKEN ATOMIC CHARGES
-----------------------
   0 C :   -0.150625
   1 C :    0.544751
   2 H :    0.261211
   3 H :    0.261279
   4 N :   -0.613430
   5 O :   -0.523032
   6 H :    0.152763
   7 H :    0.152762
   8 H :    0.344662
   9 O :   -0.430341
Sum of atomic charges:   -0.0000000

--------------------------------
MULLIKEN REDUCED ORBITAL CHARGES
--------------------------------
  0 C s       :     3.200064  s :     3.200064
      pz      :     0.966111  p :     2.878013
      px      :     1.065301
      py      :     0.846600
      dz2     :     0.008958  d :     0.072548
      dxz     :     0.012903
      dyz     :     0.021325
      dx2y2   :     0.016059
      dxy     :     0.013304
  1 C s       :     2.974932  s :     2.974932
      pz      :     0.834104  p :     2.332716
      px      :     0.744916
      py      :     0.753696
      dz2     :     0.036506  d :     0.147601
      dxz     :     0.025595
      dyz     :     0.047160
      dx2y2   :     0.018561
      dxy     :     0.019779
  2 H s       :     0.711769  s :     0.711769
      pz      :     0.008510  p :     0.027020
      px      :     0.012766
      py      :     0.005744
  3 H s       :     0.711701  s :     0.711701
      pz      :     0.010657  p :     0.027020
      px      :     0.007833
      py      :     0.008530
  4 N s       :     3.576895  s :     3.576895
      pz      :     1.527477  p :     3.983135
      px      :     1.160676
      py      :     1.294982
      dz2     :     0.008342  d :     0.053399
      dxz     :     0.015067
      dyz     :     0.008873
      dx2y2   :     0.011142
      dxy     :     0.009975
  5 O s       :     3.811438  s :     3.811438
      pz      :     1.593554  p :     4.664996
      px      :     1.730595
      py      :     1.340847
      dz2     :     0.009448  d :     0.046598
      dxz     :     0.007285
      dyz     :     0.013569
      dx2y2   :     0.008070
      dxy     :     0.008226
  6 H s       :     0.832960  s :     0.832960
      pz      :     0.004274  p :     0.014277
      px      :     0.007447
      py      :     0.002556
  7 H s       :     0.832961  s :     0.832961
      pz      :     0.005850  p :     0.014278
      px      :     0.004728
      py      :     0.003699
  8 H s       :     0.614467  s :     0.614467
      pz      :     0.017682  p :     0.040870
      px      :     0.009625
      py      :     0.013563
  9 O s       :     3.842142  s :     3.842142
      pz      :     1.395308  p :     4.536620
      px      :     1.434869
      py      :     1.706443
      dz2     :     0.013926  d :     0.051580
      dxz     :     0.014379
      dyz     :     0.012374
      dx2y2   :     0.005617
      dxy     :     0.005285


                     *******************************
                     * LOEWDIN POPULATION ANALYSIS *
                     *******************************

----------------------
LOEWDIN ATOMIC CHARGES
----------------------
   0 C :   -0.094945
   1 C :    0.120289
   2 H :    0.131145
   3 H :    0.131172
   4 N :   -0.266577
   5 O :   -0.170007
   6 H :    0.089780
   7 H :    0.089788
   8 H :    0.189647
   9 O :   -0.220291

-------------------------------
LOEWDIN REDUCED ORBITAL CHARGES
-------------------------------
  0 C s       :     2.886693  s :     2.886693
      pz      :     1.036361  p :     3.073203
      px      :     1.071598
      py      :     0.965244
      dz2     :     0.015674  d :     0.135049
      dxz     :     0.022008
      dyz     :     0.044580
      dx2y2   :     0.029153
      dxy     :     0.023634
  1 C s       :     2.853595  s :     2.853595
      pz      :     1.031601  p :     2.703741
      px      :     0.785209
      py      :     0.886931
      dz2     :     0.082621  d :     0.322375
      dxz     :     0.051311
      dyz     :     0.107156
      dx2y2   :     0.038416
      dxy     :     0.042871
  2 H s       :     0.785138  s :     0.785138
      pz      :     0.026122  p :     0.083717
      px      :     0.040884
      py      :     0.016711
  3 H s       :     0.785107  s :     0.785107
      pz      :     0.034905  p :     0.083721
      px      :     0.023661
      py      :     0.025155
  4 N s       :     3.185989  s :     3.185989
      pz      :     1.512853  p :     3.998438
      px      :     1.171070
      py      :     1.314515
      dz2     :     0.010545  d :     0.082149
      dxz     :     0.020872
      dyz     :     0.013145
      dx2y2   :     0.019970
      dxy     :     0.017618
  5 O s       :     3.462232  s :     3.462232
      pz      :     1.581432  p :     4.634859
      px      :     1.699243
      py      :     1.354184
      dz2     :     0.012863  d :     0.072917
      dxz     :     0.008152
      dyz     :     0.023387
      dx2y2   :     0.014215
      dxy     :     0.014299
  6 H s       :     0.866371  s :     0.866371
      pz      :     0.012738  p :     0.043849
      px      :     0.024054
      py      :     0.007056
  7 H s       :     0.866360  s :     0.866360
      pz      :     0.018480  p :     0.043853
      px      :     0.014688
      py      :     0.010685
  8 H s       :     0.689672  s :     0.689672
      pz      :     0.054699  p :     0.120681
      px      :     0.027281
      py      :     0.038701
  9 O s       :     3.547495  s :     3.547495
      pz      :     1.481923  p :     4.591879
      px      :     1.423476
      py      :     1.686479
      dz2     :     0.029412  d :     0.080918
      dxz     :     0.020035
      dyz     :     0.019044
      dx2y2   :     0.006245
      dxy     :     0.006181


                      *****************************
                      * MAYER POPULATION ANALYSIS *
                      *****************************

  NA   - Mulliken gross atomic population
  ZA   - Total nuclear charge
  QA   - Mulliken gross atomic charge
  VA   - Mayer's total valence
  BVA  - Mayer's bonded valence
  FA   - Mayer's free valence

  ATOM       NA         ZA         QA         VA         BVA        FA
  0 C      6.1506     6.0000    -0.1506     3.9025     3.6500     0.2525
  1 C      5.4552     6.0000     0.5448     3.9843     3.7144     0.2699
  2 H      0.7388     1.0000     0.2612     0.9195     0.8748     0.0447
  3 H      0.7387     1.0000     0.2613     0.9196     0.8749     0.0447
  4 N      7.6134     7.0000    -0.6134     3.0387     2.7221     0.3166
  5 O      8.5230     8.0000    -0.5230     2.1886     1.8429     0.3457
  6 H      0.8472     1.0000     0.1528     0.9537     0.9080     0.0457
  7 H      0.8472     1.0000     0.1528     0.9538     0.9081     0.0457
  8 H      0.6553     1.0000     0.3447     0.8984     0.8558     0.0427
  9 O      8.4303     8.0000    -0.4303     2.3283     1.9477     0.3806

  Mayer bond orders larger than 0.100000
B(  0-C ,  1-C ) :   0.8682 B(  0-C ,  4-N ) :   0.9707 B(  0-C ,  6-H ) :   0.9150 
B(  0-C ,  7-H ) :   0.9150 B(  1-C ,  5-O ) :   0.9967 B(  1-C ,  9-O ) :   1.8460 
B(  2-H ,  4-N ) :   0.8741 B(  3-H ,  4-N ) :   0.8741 B(  5-O ,  8-H ) :   0.8111 



----------------------------------
MP2 DERIVATIVE INTEGRAL GENERATION
----------------------------------

Input SCF Electron Density              ... 0.scfp
Input Correlated Electron Density       ... 0.pmp2re
Input Energy Weighted Density           ... 0.wmp2.tmp
Input Wavefunction Amplitudes           ... 0.mp2tsaa.tmp

Nuclear repulsion gradient              ... done (  0.0 sec)
HCore & Overlap gradient  (SHARK)       ... done (  0.0 sec)
Analytic two-electron gradient terms    ... 
  Batch handling in the gradient evaluation:
  General contraction                   ... not used
  Memory available                      ... 4091.3 MB
  Memory per occupied orbital in Q2     ...    1.0 MB
  Memory per occupied orbital in Q3     ...    0.0 MB
  Total memory requirement per |i>      ...    1.1 MB
  Number of orbitals treated per batch  ...     15
  Number of batches to be done          ...      1
done (  1.7 sec)

---------------------------------------
MP2 TOTAL ENERGY:     -283.634489497 Eh
---------------------------------------

The final MP2 gradient
  0:  -0.00032976   0.00058079   0.00012819
  1:  -0.00119424  -0.00281468   0.01528304
  2:  -0.00303251   0.00013755  -0.00102497
  3:   0.00223643   0.00227897  -0.00013941
  4:   0.00161769  -0.00479542   0.00217099
  5:  -0.00983854   0.01737833   0.01670301
  6:   0.00220449   0.00213104   0.00072768
  7:  -0.00313315  -0.00007581  -0.00015912
  8:   0.00290662  -0.00604781  -0.00276139
  9:   0.00856297  -0.00877296  -0.03092803

-----------------------------------
NORM OF THE MP2 GRADIENT:  0.046381
-----------------------------------

Maximum memory used throughout the entire MP2-calculation: 63.0 MB

-------------------------   --------------------
FINAL SINGLE POINT ENERGY      -283.634489497140
-------------------------   --------------------

------------------------------------------------------------------------------
                         ORCA GEOMETRY RELAXATION STEP
------------------------------------------------------------------------------

Reading the OPT-File                    .... done
Getting information on internals        .... done
Copying old internal coords+grads       .... done
Making the new internal coordinates     .... (2022 redundants) done
Validating the new internal coordinates .... (2022 redundants) done
Calculating the B-matrix                .... done
Calculating the G,G- and P matrices     .... done
Transforming gradient to internals      .... done
Projecting the internal gradient        .... done
Number of atoms                         ....  10
Number of internal coordinates          ....  34
Current Energy                          ....  -283.634489497 Eh
Current gradient norm                   ....     0.046381497 Eh/bohr
Maximum allowed component of the step   ....  0.300
Current trust radius                    ....  0.300
Evaluating the initial hessian          ....  (Almloef) done
Projecting the Hessian                  .... done
Forming the augmented Hessian           .... done
Diagonalizing the augmented Hessian     .... done
Last element of RFO vector              ....  0.997498615
Lowest eigenvalues of augmented Hessian:
 -0.002272303  0.011195807  0.017767939  0.017800109  0.034272354
Length of the computed step             ....  0.070863279
The final length of the internal step   ....  0.070863279
Converting the step to Cartesian space:
 Initial RMS(Int)=    0.0121529520
Transforming coordinates:
 Iter   0:  RMS(Cart)=    0.0126793543 RMS(Int)=    1.0771709858
done
Storing new coordinates                 .... done

                                .--------------------.
          ----------------------|Geometry convergence|-------------------------
          Item                value                   Tolerance       Converged
          ---------------------------------------------------------------------
          RMS gradient        0.0070105752            0.0001000000      NO
          MAX gradient        0.0332140564            0.0003000000      NO
          RMS step            0.0121529520            0.0020000000      NO
          MAX step            0.0343254410            0.0040000000      NO
          -------------------------------------------------------------------------
          ........................................................
          Max(Bonds)      0.0157      Max(Angles)    1.97
          Max(Dihed)        1.11      Max(Improp)    0.00
          ---------------------------------------------------------------------

The optimization has not yet converged - more geometry cycles are needed


    ---------------------------------------------------------------------------
                         Redundant Internal Coordinates
                            (Angstroem and degrees)

        Definition                    Value    dE/dq     Step     New-Value
    ----------------------------------------------------------------------------
     1. B(C   1,C   0)                1.5198 -0.001098  0.0015    1.5213   
     2. B(N   4,H   2)                1.0153  0.002238 -0.0028    1.0126   
     3. B(N   4,C   0)                1.4456 -0.002177  0.0025    1.4481   
     4. B(N   4,H   3)                1.0154  0.002240 -0.0028    1.0126   
     5. B(O   5,C   1)                1.3376 -0.016564  0.0129    1.3504   
     6. B(H   6,C   0)                1.0940  0.001972 -0.0029    1.0911   
     7. B(H   7,C   0)                1.0940  0.001977 -0.0029    1.0911   
     8. B(H   8,O   5)                0.9708  0.001807 -0.0019    0.9689   
     9. B(O   9,C   1)                1.2020 -0.033214  0.0157    1.2177   
    10. A(N   4,C   0,H   7)          109.34 -0.001160    0.27    109.61   
    11. A(C   1,C   0,H   7)          108.14  0.001087   -0.14    108.00   
    12. A(C   1,C   0,N   4)          114.15 -0.001455    0.40    114.56   
    13. A(H   6,C   0,H   7)          107.55  0.001632   -0.75    106.79   
    14. A(C   1,C   0,H   6)          108.13  0.000951   -0.13    108.00   
    15. A(N   4,C   0,H   6)          109.32 -0.000828    0.27    109.59   
    16. A(C   0,C   1,O   9)          124.62 -0.001082    0.19    124.81   
    17. A(C   0,C   1,O   5)          112.28  0.006506   -0.87    111.41   
    18. A(O   5,C   1,O   9)          123.10 -0.005424    0.68    123.78   
    19. A(C   0,N   4,H   3)          109.86  0.001120   -0.44    109.41   
    20. A(C   0,N   4,H   2)          109.87  0.001132   -0.45    109.42   
    21. A(H   2,N   4,H   3)          106.67  0.000977   -0.78    105.89   
    22. A(C   1,O   5,H   8)          110.61  0.012893   -1.97    108.64   
    23. D(O   5,C   1,C   0,N   4)    179.89 -0.000048    0.02    179.91   
    24. D(O   9,C   1,C   0,N   4)     -0.06  0.000569   -0.28     -0.34   
    25. D(O   9,C   1,C   0,H   6)    121.84 -0.000763    0.24    122.08   
    26. D(O   5,C   1,C   0,H   6)    -58.21 -0.001380    0.54    -57.67   
    27. D(O   5,C   1,C   0,H   7)     57.96  0.001612   -0.49     57.48   
    28. D(H   2,N   4,C   0,H   6)   -179.89 -0.000697    0.36   -179.53   
    29. D(H   2,N   4,C   0,C   1)    -58.64 -0.001072    0.67    -57.98   
    30. D(H   3,N   4,C   0,H   6)    -62.83  0.001820   -1.11    -63.95   
    31. D(H   3,N   4,C   0,C   1)     58.41  0.001445   -0.81     57.60   
    32. D(H   2,N   4,C   0,H   7)     62.62 -0.001518    0.96     63.58   
    33. D(H   8,O   5,C   1,O   9)     -0.03 -0.000298    0.14      0.11   
    34. D(H   8,O   5,C   1,C   0)   -179.98  0.000305   -0.15   -180.13   
    ----------------------------------------------------------------------------

Geometry step timings:
Preparation and reading OPT file:      0.000 s ( 2.450 %)
Internal coordinates            :      0.000 s ( 2.004 %)
B/P matrices and projection     :      0.000 s (32.962 %)
Hessian update/contruction      :      0.000 s (12.918 %)
Making the step                 :      0.000 s (22.940 %)
Converting the step to Cartesian:      0.000 s ( 4.232 %)
Storing new data                :      0.000 s ( 2.450 %)
Checking convergence            :      0.000 s ( 2.673 %)
Final printing                  :      0.000 s (17.372 %)
Total time                      :      0.000 s

Time for energy+gradient        :      8.334 s
Time for complete geometry iter :      8.344 s

         *************************************************************
         *                GEOMETRY OPTIMIZATION CYCLE   2            *
         *************************************************************
---------------------------------
CARTESIAN COORDINATES (ANGSTROEM)
---------------------------------
  C     -4.978389   -1.322536   -0.150830
  C     -4.784783   -2.270127    1.023469
  H     -6.456265   -0.189721    0.642676
  H     -4.977350    0.412643    0.891220
  N     -5.558518   -0.042454    0.198084
  O     -4.243097   -3.441975    0.627189
  H     -4.006863   -1.167499   -0.622685
  H     -5.610080   -1.822392   -0.886749
  H     -4.135768   -4.011828    1.403462
  O     -5.073175   -2.013797    2.178392

----------------------------
CARTESIAN COORDINATES (A.U.)
----------------------------
  NO LB      ZA    FRAG     MASS         X           Y           Z
   0 C     6.0000    0    12.011   -9.407792   -2.499230   -0.285027
   1 C     6.0000    0    12.011   -9.041929   -4.289918    1.934076
   2 H     1.0000    0     1.008  -12.200572   -0.358521    1.214483
   3 H     1.0000    0     1.008   -9.405828    0.779783    1.684161
   4 N     7.0000    0    14.007  -10.504077   -0.080227    0.374325
   5 O     8.0000    0    15.999   -8.018292   -6.504390    1.185215
   6 H     1.0000    0     1.008   -7.571875   -2.206254   -1.176705
   7 H     1.0000    0     1.008  -10.601516   -3.443821   -1.675712
   8 H     1.0000    0     1.008   -7.815469   -7.581256    2.652158
   9 O     8.0000    0    15.999   -9.586911   -3.805525    4.116564

--------------------------------
INTERNAL COORDINATES (ANGSTROEM)
--------------------------------
 C      0   0   0     0.000000000000     0.00000000     0.00000000
 C      1   0   0     1.521311880415     0.00000000     0.00000000
 H      1   2   0     2.024113808900    97.98497965     0.00000000
 H      3   1   2     1.616108442269    66.46788447    93.31198666
 N      3   1   2     1.012570043031    42.43268343   128.85746148
 O      2   1   3     1.350440431901   111.41008559   156.08998714
 H      1   2   3     1.091121426473   107.99886515   146.24207529
 H      1   2   3     1.091085147953   107.99629913   261.38944450
 H      6   2   1     0.968943955200   108.64341159   179.86510950
 O      2   1   3     1.217670507657   124.81026926   335.83955258

---------------------------
INTERNAL COORDINATES (A.U.)
---------------------------
 C      0   0   0     0.000000000000     0.00000000     0.00000000
 C      1   0   0     2.874862818264     0.00000000     0.00000000
 H      1   2   0     3.825020762710    97.98497965     0.00000000
 H      3   1   2     3.054002358607    66.46788447    93.31198666
 N      3   1   2     1.913480072741    42.43268343   128.85746148
 O      2   1   3     2.551962576467   111.41008559   156.08998714
 H      1   2   3     2.061920674887   107.99886515   146.24207529
 H      1   2   3     2.061852118420   107.99629913   261.38944450
 H      6   2   1     1.831038714447   108.64341159   179.86510950
 O      2   1   3     2.301063780826   124.81026926   335.83955258

------------------------------------------------------------------------------
                   ___                                                        
                  /   \      - P O W E R E D   B Y -                         
                 /     \                                                     
                 |  |  |   _    _      __       _____    __    __             
                 |  |  |  | |  | |    /  \     |  _  \  |  |  /  |          
                  \  \/   | |  | |   /    \    | | | |  |  | /  /          
                 / \  \   | |__| |  /  /\  \   | |_| |  |  |/  /          
                |  |  |   |  __  | /  /__\  \  |    /   |      \           
                |  |  |   | |  | | |   __   |  |    \   |  |\   \          
                \     /   | |  | | |  |  |  |  | |\  \  |  | \   \       
                 \___/    |_|  |_| |__|  |__|  |_| \__\ |__|  \__/        
                                                                              
                      - O R C A' S   B I G   F R I E N D -                    
                                      &                                       
                       - I N T E G R A L  F E E D E R -                       
                                                                              
 v1 FN, 2020, v2 2021, v3 2022-2024                                           
------------------------------------------------------------------------------


----------------------
SHARK INTEGRAL PACKAGE
----------------------

Number of atoms                             ...     10
Number of basis functions                   ...     95
Number of shells                            ...     45
Maximum angular momentum                    ...      2
Integral batch strategy                     ... SHARK/LIBINT Hybrid
RI-J (if used) integral strategy            ... SPLIT-RIJ (Revised 2003 algorithm where possible)
Printlevel                                  ...      1
Contraction scheme used                     ... SEGMENTED contraction
Prescreening option                         ... SCHWARTZ
   Thresh                                   ... 2.500e-11
   Tcut                                     ... 2.500e-12
   Tpresel                                  ... 2.500e-12 
Coulomb Range Separation                    ... NOT USED
Exchange Range Separation                   ... NOT USED
Multipole approximations                    ... NOT USED
Finite Nucleus Model                        ... NOT USED
CABS basis                                  ... NOT available
Auxiliary Coulomb fitting basis             ... NOT available
Auxiliary J/K fitting basis                 ... NOT available
Auxiliary Correlation fitting basis         ... NOT available
Auxiliary 'external' fitting basis          ... NOT available

Checking pre-screening integrals            ... done (  0.0 sec) Dimension = 45
   => SHARK Basis and OBASIS are compatible. Storing Pre-screening
Shell pair information
[...]
  4 N      7.6699     7.0000    -0.6699     2.9718     2.6511     0.3207
  5 O      8.6210     8.0000    -0.6210     2.0830     1.7242     0.3588
  6 H      0.8339     1.0000     0.1661     0.9483     0.9027     0.0456
  7 H      0.8340     1.0000     0.1660     0.9484     0.9028     0.0456
  8 H      0.6299     1.0000     0.3701     0.8782     0.8337     0.0445
  9 O      8.5683     8.0000    -0.5683     2.1615     1.7582     0.4033

  Mayer bond orders larger than 0.100000
B(  0-C ,  1-C ) :   0.8711 B(  0-C ,  4-N ) :   0.9299 B(  0-C ,  6-H ) :   0.9188 
B(  0-C ,  7-H ) :   0.9189 B(  1-C ,  5-O ) :   0.9152 B(  1-C ,  9-O ) :   1.7018 
B(  2-H ,  4-N ) :   0.8697 B(  3-H ,  4-N ) :   0.8696 B(  5-O ,  8-H ) :   0.8049 



                *******************************************
                * RELAXED MP2 DENSITY POPULATION ANALYSIS *
                *******************************************

------------------------------------------------------------------------------
                           ORCA POPULATION ANALYSIS
------------------------------------------------------------------------------
Input electron density              ... 0.pmp2re
BaseName (.gbw .S,...)              ... 0

                    ********************************
                    * MULLIKEN POPULATION ANALYSIS *
                    ********************************

-----------------------
MULLIKEN ATOMIC CHARGES
-----------------------
   0 C :   -0.151779
   1 C :    0.546773
   2 H :    0.260228
   3 H :    0.260373
   4 N :   -0.608692
   5 O :   -0.524178
   6 H :    0.155658
   7 H :    0.155570
   8 H :    0.343626
   9 O :   -0.437578
Sum of atomic charges:    0.0000000

--------------------------------
MULLIKEN REDUCED ORBITAL CHARGES
--------------------------------
  0 C s       :     3.199785  s :     3.199785
      pz      :     0.965843  p :     2.879615
      px      :     1.067575
      py      :     0.846196
      dz2     :     0.008980  d :     0.072379
      dxz     :     0.012851
      dyz     :     0.021261
      dx2y2   :     0.016083
      dxy     :     0.013205
  1 C s       :     2.985697  s :     2.985697
      pz      :     0.823195  p :     2.325791
      px      :     0.745962
      py      :     0.756635
      dz2     :     0.034692  d :     0.141739
      dxz     :     0.025086
      dyz     :     0.046177
      dx2y2   :     0.017278
      dxy     :     0.018506
  2 H s       :     0.712708  s :     0.712708
      pz      :     0.008583  p :     0.027064
      px      :     0.012623
      py      :     0.005859
  3 H s       :     0.712564  s :     0.712564
      pz      :     0.010778  p :     0.027063
      px      :     0.007912
      py      :     0.008373
  4 N s       :     3.586954  s :     3.586954
      pz      :     1.512165  p :     3.967453
      px      :     1.161423
      py      :     1.293865
      dz2     :     0.008706  d :     0.054285
      dxz     :     0.015632
      dyz     :     0.008862
      dx2y2   :     0.011065
      dxy     :     0.010021
  5 O s       :     3.824422  s :     3.824422
      pz      :     1.568526  p :     4.652317
      px      :     1.732649
      py      :     1.351142
      dz2     :     0.010348  d :     0.047439
      dxz     :     0.007409
      dyz     :     0.013491
      dx2y2   :     0.007958
      dxy     :     0.008233
  6 H s       :     0.829963  s :     0.829963
      pz      :     0.004367  p :     0.014379
      px      :     0.007485
      py      :     0.002527
  7 H s       :     0.830051  s :     0.830051
      pz      :     0.005925  p :     0.014379
      px      :     0.004676
      py      :     0.003778
  8 H s       :     0.615557  s :     0.615557
      pz      :     0.018692  p :     0.040817
      px      :     0.009575
      py      :     0.012550
  9 O s       :     3.855502  s :     3.855502
      pz      :     1.387756  p :     4.531247
      px      :     1.435766
      py      :     1.707725
      dz2     :     0.013860  d :     0.050830
      dxz     :     0.014132
      dyz     :     0.012166
      dx2y2   :     0.005482
      dxy     :     0.005189


                     *******************************
                     * LOEWDIN POPULATION ANALYSIS *
                     *******************************

----------------------
LOEWDIN ATOMIC CHARGES
----------------------
   0 C :   -0.096119
   1 C :    0.139144
   2 H :    0.130865
   3 H :    0.130909
   4 N :   -0.265184
   5 O :   -0.180901
   6 H :    0.090957
   7 H :    0.090912
   8 H :    0.188348
   9 O :   -0.228931

-------------------------------
LOEWDIN REDUCED ORBITAL CHARGES
-------------------------------
  0 C s       :     2.885850  s :     2.885850
      pz      :     1.036526  p :     3.075831
      px      :     1.074157
      py      :     0.965148
      dz2     :     0.015723  d :     0.134439
      dxz     :     0.021904
      dyz     :     0.044395
      dx2y2   :     0.029065
      dxy     :     0.023351
  1 C s       :     2.862387  s :     2.862387
      pz      :     1.024404  p :     2.692146
      px      :     0.784047
      py      :     0.883695
      dz2     :     0.078229  d :     0.306323
      dxz     :     0.049707
      dyz     :     0.103605
      dx2y2   :     0.035184
      dxy     :     0.039598
  2 H s       :     0.785396  s :     0.785396
      pz      :     0.026453  p :     0.083739
      px      :     0.040251
      py      :     0.017035
  3 H s       :     0.785342  s :     0.785342
      pz      :     0.035467  p :     0.083749
      px      :     0.023705
      py      :     0.024577
  4 N s       :     3.195384  s :     3.195384
      pz      :     1.498903  p :     3.987144
      px      :     1.173314
      py      :     1.314927
      dz2     :     0.010934  d :     0.082655
      dxz     :     0.021606
      dyz     :     0.012994
      dx2y2   :     0.019660
      dxy     :     0.017461
  5 O s       :     3.481547  s :     3.481547
      pz      :     1.559935  p :     4.627613
      px      :     1.703564
      py      :     1.364114
      dz2     :     0.013870  d :     0.071741
      dxz     :     0.008058
      dyz     :     0.022429
      dx2y2   :     0.013497
      dxy     :     0.013886
  6 H s       :     0.864752  s :     0.864752
      pz      :     0.013013  p :     0.044292
      px      :     0.024263
      py      :     0.007015
  7 H s       :     0.864790  s :     0.864790
      pz      :     0.018747  p :     0.044297
      px      :     0.014563
      py      :     0.010988
  8 H s       :     0.690999  s :     0.690999
      pz      :     0.057678  p :     0.120653
      px      :     0.027158
      py      :     0.035817
  9 O s       :     3.561127  s :     3.561127
      pz      :     1.473160  p :     4.589187
      px      :     1.425672
      py      :     1.690356
      dz2     :     0.028903  d :     0.078616
      dxz     :     0.019457
      dyz     :     0.018315
      dx2y2   :     0.006010
      dxy     :     0.005932


                      *****************************
                      * MAYER POPULATION ANALYSIS *
                      *****************************

  NA   - Mulliken gross atomic population
  ZA   - Total nuclear charge
  QA   - Mulliken gross atomic charge
  VA   - Mayer's total valence
  BVA  - Mayer's bonded valence
  FA   - Mayer's free valence

  ATOM       NA         ZA         QA         VA         BVA        FA
  0 C      6.1518     6.0000    -0.1518     3.9018     3.6488     0.2531
  1 C      5.4532     6.0000     0.5468     3.9636     3.6872     0.2764
  2 H      0.7398     1.0000     0.2602     0.9191     0.8741     0.0449
  3 H      0.7396     1.0000     0.2604     0.9192     0.8743     0.0449
  4 N      7.6087     7.0000    -0.6087     3.0410     2.7244     0.3167
  5 O      8.5242     8.0000    -0.5242     2.1913     1.8413     0.3500
  6 H      0.8443     1.0000     0.1557     0.9525     0.9069     0.0456
  7 H      0.8444     1.0000     0.1556     0.9526     0.9070     0.0456
  8 H      0.6564     1.0000     0.3436     0.9005     0.8571     0.0433
  9 O      8.4376     8.0000    -0.4376     2.3240     1.9367     0.3872

  Mayer bond orders larger than 0.100000
B(  0-C ,  1-C ) :   0.8701 B(  0-C ,  4-N ) :   0.9718 B(  0-C ,  6-H ) :   0.9134 
B(  0-C ,  7-H ) :   0.9135 B(  1-C ,  5-O ) :   0.9880 B(  1-C ,  9-O ) :   1.8262 
B(  2-H ,  4-N ) :   0.8742 B(  3-H ,  4-N ) :   0.8741 B(  5-O ,  8-H ) :   0.8125 



----------------------------------
MP2 DERIVATIVE INTEGRAL GENERATION
----------------------------------

Input SCF Electron Density              ... 0.scfp
Input Correlated Electron Density       ... 0.pmp2re
Input Energy Weighted Density           ... 0.wmp2.tmp
Input Wavefunction Amplitudes           ... 0.mp2tsaa.tmp

Nuclear repulsion gradient              ... done (  0.0 sec)
HCore & Overlap gradient  (SHARK)       ... done (  0.0 sec)
Analytic two-electron gradient terms    ... 
  Batch handling in the gradient evaluation:
  General contraction                   ... not used
  Memory available                      ... 4091.0 MB
  Memory per occupied orbital in Q2     ...    1.0 MB
  Memory per occupied orbital in Q3     ...    0.0 MB
  Total memory requirement per |i>      ...    1.1 MB
  Number of orbitals treated per batch  ...     15
  Number of batches to be done          ...      1
done (  1.5 sec)

---------------------------------------
MP2 TOTAL ENERGY:     -283.636217450 Eh
---------------------------------------

The final MP2 gradient
  0:  -0.00002958   0.00006030   0.00000344
  1:  -0.00000827  -0.00001761   0.00007199
  2:  -0.00000620   0.00000429   0.00000174
  3:  -0.00000667  -0.00000135   0.00001522
  4:   0.00002103  -0.00002140  -0.00002208
  5:  -0.00001491   0.00002874   0.00000255
  6:   0.00000389  -0.00002026  -0.00000840
  7:   0.00001518  -0.00001819  -0.00000113
  8:   0.00001240  -0.00001911  -0.00001517
  9:   0.00001312   0.00000458  -0.00004815

-----------------------------------
NORM OF THE MP2 GRADIENT:  0.000131
-----------------------------------

Maximum memory used throughout the entire MP2-calculation: 63.3 MB

-------------------------   --------------------
FINAL SINGLE POINT ENERGY      -283.636217450161
-------------------------   --------------------

                                *** OPTIMIZATION RUN DONE ***


------------------------------------------------------------------------------
                              ORCA PROPERTY CALCULATIONS
------------------------------------------------------------------------------

GBWName                                 ... 0.gbw
Number of atoms                         ...     10
Number of basis functions               ...     95
Max core memory                         ...   4096 MB

Electric properties:
Dipole moment                           ... YES
Quadrupole moment                       ...  NO
Static polarizability (Dipole/Dipole)   ...  NO
Static polarizability (Dipole/Quad.)    ...  NO
Static polarizability (Quad./Quad.)     ...  NO
Static polarizability (Velocity)        ...  NO
Static hyperpolarizability              ...  NO

Atomic electric properties:
Dipole moment                           ...  NO
Quadrupole moment                       ...  NO
Static polarizability                   ...  NO

Choice of electric origin               ... Center of mass
Position of electric origin             ...    -9.301058    -3.472521     1.491989

General magnetic properties:
Magnetizability                         ...  NO

EPR properties:
g-Tensor (aka g-matrix)                 ...  NO
Zero-Field splitting spin-orbit         ...  NO
Zero-field splitting spin-spin          ...  NO
Hyperfine couplings                     ...  NO (   0 nuclei)
Quadrupole couplings                    ...  NO (   0 nuclei)
Contact density                         ...  NO (   0 nuclei)

NMR properties:
Chemical shifts                         ...  NO (   0 nuclei)
Spin-rotation constants                 ...  NO (   0 nuclei)
Spin-spin couplings                     ...  NO (   0 nuclei,    0 pairs)

Choice of magnetic origin               ... GIAO
Position of magnetic origin             ...     0.000000     0.000000     0.000000

Properties with geometric perturbations:
SCF Hessian                             ...  NO
IR spectrum                             ...  NO
VCD spectrum                            ...  NO
X-ray spectroscopy properties:
SCF XES/XAS/RIXS spectra                ...  NO

SCF SOC stabilization energy            ...  NO
Diagonal Born-Oppenheimer correction    ...  NO

-------------
DIPOLE MOMENT
-------------

Method             : SCF
Type of density    : Electron Density
Multiplicity       :   1
Irrep              :   0
Energy             :  -282.8430486051619255 Eh
Basis              : AO
                                X                 Y                 Z
Electronic contribution:      0.752200729      -2.717456838       2.196334621
Nuclear contribution   :     -0.542244364       2.246209315      -2.327571154
                        -----------------------------------------
Total Dipole Moment    :      0.209956366      -0.471247523      -0.131236533
                        -----------------------------------------
Magnitude (a.u.)       :      0.532333477
Magnitude (Debye)      :      1.353084168



--------------------
Rotational spectrum 
--------------------
 
Rotational constants in cm-1:             0.340565             0.129807             0.097055 
Rotational constants in MHz :         10209.892461          3891.517434          2909.629238 

Dipole components along the rotational axes: 
x,y,z [a.u.] :    -0.451634    -0.281776     0.002879 
x,y,z [Debye]:    -1.147962    -0.716217     0.007318 

 

-------------
DIPOLE MOMENT
-------------

Method             : MP2
Type of density    : Electron Density
Multiplicity       :   1
Level              : Unrelaxed density
Irrep              :   0
Energy             :     0.0000000000000000 Eh
Basis              : AO
                                X                 Y                 Z
Electronic contribution:      0.745379150      -2.713594754       2.228967608
Nuclear contribution   :     -0.542244364       2.246209315      -2.327571154
                        -----------------------------------------
Total Dipole Moment    :      0.203134786      -0.467385438      -0.098603547
                        -----------------------------------------
Magnitude (a.u.)       :      0.519071814
Magnitude (Debye)      :      1.319375700



--------------------
Rotational spectrum 
--------------------
 
Rotational constants in cm-1:             0.340565             0.129807             0.097055 
Rotational constants in MHz :         10209.892461          3891.517434          2909.629238 

Dipole components along the rotational axes: 
x,y,z [a.u.] :    -0.455733    -0.248466     0.002867 
x,y,z [Debye]:    -1.158380    -0.631549     0.007288 

 

-------------
DIPOLE MOMENT
-------------

Method             : MP2
Type of density    : Electron Density
Multiplicity       :   1
Level              : Relaxed density
Irrep              :   0
Energy             :     0.0000000000000000 Eh
Basis              : AO
                                X                 Y                 Z
Electronic contribution:      0.725664719      -2.716406312       2.358260549
Nuclear contribution   :     -0.542244364       2.246209315      -2.327571154
                        -----------------------------------------
Total Dipole Moment    :      0.183420356      -0.470196996       0.030689394
                        -----------------------------------------
Magnitude (a.u.)       :      0.505638291
Magnitude (Debye)      :      1.285230396



--------------------
Rotational spectrum 
--------------------
 
Rotational constants in cm-1:             0.340565             0.129807             0.097055 
Rotational constants in MHz :         10209.892461          3891.517434          2909.629238 

Dipole components along the rotational axes: 
x,y,z [a.u.] :    -0.490597    -0.122379     0.002879 
x,y,z [Debye]:    -1.246998    -0.311064     0.007319 

 

Dipole moment calculation done in   0.0 sec 

Maximum memory used throughout the entire PROP-calculation: 4.1 MB

--------------------------------
SUGGESTED CITATIONS FOR THIS RUN
--------------------------------

Below you find a list of papers that are relevant to this ORCA run
We neither can nor want to force you to cite these papers, but we appreciate if you do
You receive ORCA, which is the product of decades of hard work by many enthusiastic individuals, for free
The only thing we kindly ask in return is that you cite our papers,
We deeply appreciate it, if you show your appreciation for ORCA by not just citing the generic ORCA reference.

Please note that relegating all ORCA citations to the supporting information does *not* help us.
SI sections are not indexed - citations you put there will not count into any citation statistics
But we need these citations in order to attract the funding resources that allow us to do what we are doing

Therefore, if you are a happy ORCA user, please consider citing a few of the papers listed below in the main body of your paper

In addition to the list printed below, the program has created the file 0.bibtex that contains the list in bibtex format
You can import this file easily into all common literature databanks and citation aid programs


List of essential papers. We consider these as the minimum necessary citations

  1. Neese, F.
     Software update: the ORCA program system, version 6.0
     WIRES Comput. Molec. Sci. 2025 15(1), e70019
     doi.org/10.1002/wcms.7019

List of papers to cite with high priority. The work reported in these papers was absolutely
necessary for this run to complete.
Our perspective: the developers of density functionals and basis sets usually get cited in chemistry papers
Good! But without the algorithms to do something with them, the functionals or basis sets would not do anything.
Hence, in our opinion, the algorithm design and method developments papers are equally worthy of getting cited

  1. Neese, F.
     The SHARK Integral Generation and Digestion System
     J. Comp. Chem. 2022 44(3), 381
     doi.org/10.1002/jcc.26942

List of suggested additional citations. These are papers that are important in the 'surrounding' of 
of this run, or papers that preceded the highly important papers. If you like your results we are grateful for a citation.

  1. Neese, F.
     The ORCA program system
     WIRES Comput. Molec. Sci. 2012 2(1), 73-78
     doi.org/10.1002/wcms.81
  2. Neese, F.
     Software update: the ORCA program system, version 4.0
     WIRES Comput. Molec. Sci. 2018 8(1), 1-6
     doi.org/10.1002/wcms.1327
  3. Neese, F.; Wennmohs, F.; Becker, U.; Riplinger, C.
     The ORCA quantum chemistry program package
     J. Chem. Phys. 2020 152(22), 224108
     doi.org/10.1063/5.0004608
  4. Neese, F.
     Software update: The ORCA program system—Version 5.0
     WIRES Comput. Molec. Sci. 2022 12(1), e1606
     doi.org/10.1002/wcms.1606

List of optional additional citations

  1. Neese, F.
     Approximate second-order SCF convergence for spin unrestricted wavefunctions
     Chem. Phys. Lett. 2000 325(1-3), 93-98
     doi.org/10.1016/s0009-2614(00)00662-x

Timings for individual modules:

Sum of individual times          ...       50.196 sec (=   0.837 min)
Startup calculation              ...        1.255 sec (=   0.021 min)   2.5 %
SCF iterations                   ...       13.407 sec (=   0.223 min)  26.7 %
Property calculations            ...        0.030 sec (=   0.000 min)   0.1 %
MP2 module                       ...       35.499 sec (=   0.592 min)  70.7 %
Geometry relaxation              ...        0.005 sec (=   0.000 min)   0.0 %
                             ****ORCA TERMINATED NORMALLY****
TOTAL RUN TIME: 0 days 0 hours 0 minutes 50 seconds 323 msec
