
                                 *****************
                                 * O   R   C   A *
                                 *****************

                                            #,                                       
                                            ###                                      
                                            ####                                     
                                            #####                                    
                                            ######                                   
                                           ########,                                 
                                     ,,################,,,,,                         
                               ,,#################################,,                 
                          ,,##########################################,,             
                       ,#########################################, ''#####,          
                    ,#############################################,,   '####,        
                  ,##################################################,,,,####,       
                ,###########''''           ''''###############################       
              ,#####''   ,,,,##########,,,,          '''####'''          '####       
            ,##' ,,,,###########################,,,                        '##       
           ' ,,###''''                  '''############,,,                           
         ,,##''                                '''############,,,,        ,,,,,,###''
      ,#''                                            '''#######################'''  
     '                                                          ''''####''''         
             ,#######,   #######,   ,#######,      ##                                
            ,#'     '#,  ##    ##  ,#'     '#,    #''#        ,####,    ,#,          
            ##       ##  ##   ,#'  ##            #'  '#       #'       ,# #          
            ##       ##  #######   ##           ,######,      #####,      #          
            '#,     ,#'  ##    ##  '#,     ,#' ,#      #,     #,   #      #          
             '#######'   ##     ##  '#######'  #'      '#     '####' #    #          



                #########################################################
                #                        -***-                          #
                #          Department of theory and spectroscopy        #
                #                                                       #
                #                      Frank Neese                      #
                #                                                       #
                #     Directorship, Architecture, Infrastructure        #
                #                    SHARK, DRIVERS                     #
                #        Core code/Algorithms in most modules           #
                #                                                       #
                #        Max Planck Institute fuer Kohlenforschung      #
                #                Kaiser Wilhelm Platz 1                 #
                #                 D-45470 Muelheim/Ruhr                 #
                #                      Germany                          #
                #                                                       #
                #                  All rights reserved                  #
                #                        -***-                          #
                #########################################################


                         Program Version 6.1.0  -  RELEASE   -
                                (GIT: $679e74b$)
                          ($2025-06-10 18:02:51 +0200$)


 With contributions from (in alphabetic order):
[Max-Planck-Institut fuer Kohlenforschung]                               
  Daniel Aravena         : Magnetic Suceptibility                        
  Michael Atanasov       : Ab Initio Ligand Field Theory (pilot matlab implementation)
  Alexander A. Auer      : GIAO ZORA, VPT2 properties, NMR spectrum      
  Ute Becker             : All parallelization in ORCA, NUMFREQ, NUMCALC 
  Giovanni Bistoni       : ED, misc. LED, open-shell LED, HFLD           
  Dmytro Bykov           : pre 5.0 version of the SCF Hessian            
  Marcos Casanova-Páez   : Triplet and SCS-CIS(D). UHF-(DLPNO)-IP/EA/STEOM-CCSD. UHF-CVS-IP/STEOM-CCSD   
  Vijay G. Chilkuri      : MRCI spin determinant printing, contributions to CSF-ICE 
  Pauline Colinet        : FMM embedding                                 
  Dipayan Datta          : RHF DLPNO-CCSD density                        
  Achintya Kumar Dutta   : EOM-CC, STEOM-CC                              
  Nicolas Foglia         : Exact transition moments, OPA infrastructure, MCD improvements    
  Dmitry Ganyushin       : Spin-Orbit,Spin-Spin,Magnetic field MRCI      
  Miquel Garcia-Rates    : C-PCM and meta-GGA Hessian, CCSD/C-PCM, Gaussian charge scheme 
  Tiago L. C. Gouveia    : GS-ROHF, GS-ROCIS                             
  Yang Guo               : DLPNO-NEVPT2, F12-NEVPT2, CIM, IAO-localization        
  Andreas Hansen         : Spin unrestricted coupled pair/coupled cluster methods 
  Ingolf Harden          : AUTO-CI MPn and infrastructure                
  Benjamin Helmich-Paris : MC-RPA, TRAH-(SCF,CASSCF), AVAS, COSX integrals, SCF dyn. polar., MC-PDFT, srDFT 
  Lee Huntington         : MR-EOM, pCC                                   
  Robert Izsak           : Overlap fitted RIJCOSX, COSX-SCS-MP3, EOM     
  Riya Kayal             : Wick's Theorem for AUTO-CI, AUTO-CI UHF-CCSDT 
  Emily Kempfer          : AUTO-CI RHF CISDT and CCSDT, approximate NEVPT4
  Christian Kollmar      : KDIIS, OOCD, Brueckner-CCSD(T), CCSD density, CASPT2, CASPT2-K, improved NEVPT2 
  Axel Koslowski         : Symmetry handling                             
  Simone Kossmann        : meta-GGA functionals, TD-DFT gradient, OOMP2, (MP2 Hessian; deprecated post 5.0) 
  Lucas Lang             : DCDCAS, Hyperfine gauge corrections, ICE-SOC+SSC
  Marvin Lechner         : AUTO-CI (C++ implementation), FIC-MRCC        
  Spencer Leger          : CASSCF response                               
  Dagmar Lenk            : GEPOL surface, SMD, ORCA-2-JSON               
  Dimitrios Liakos       : Extrapolation schemes; Compound Job, Property file
  Dimitrios Manganas     : Further ROCIS development; embedding schemes. LFT, Crystal Embedding 
  Dimitrios Pantazis     : SARC Basis sets                               
  Anastasios Papadopoulos: AUTO-CI, single reference methods and gradients 
  Taras Petrenko         : pre 6.0 DFT Hessian and TD-DFT gradient,  ECA, NRVS 
  Petra Pikulova         : Analytic Raman intensities                    
  Peter Pinski           : DLPNO-MP2, DLPNO-MP2 Gradient                 
  Shashank Vittal Rao    : ES-AILFT, MagRelax                            
  Christoph Reimann      : Effective Core Potentials                     
  Marius Retegan         : Local ZFS, SOC                                
  Christoph Riplinger    : Optimizer, TS searches, QM/MM, DLPNO-CCSD(T), (RO)-DLPNO pert. Triples 
  Michael Roemelt        : Original ROCIS implementation, recursive CI coupling coefficients
  Masaaki Saitow         : Open-shell DLPNO-CCSD energy and density      
  Barbara Sandhoefer     : DKH picture change effects                    
  Yorick L. A. Schmerwitz: GMF and freeze-and-release deltaSCF, NEB S-IDPP initial path                    
  Kantharuban Sivalingam : CASSCF convergence/infrastructure, NEVPT2, NEVPT3, NEVPT4(SD), FIC-MRCI and CEPA variants
  Bernardo de Souza      : ESD, SOC TD-DFT                               
  Georgi L. Stoychev     : AutoAux, RI-MP2 NMR, DLPNO-MP2 response, X2C  
  Van Anh Tran           : RI-MP2 g-tensors                              
  Willem Van den Heuvel  : Paramagnetic NMR                              
  Zikuan Wang            : NOTCH, Electric field optimization            
  Frank Wennmohs         : Technical directorship and infrastructure     
  Hang Xu                : AUTO-CI-Response properties                   
                                                                         
[FACCTs GmbH]                                                            
  Markus Bursch, Nicolas Foglia, Miquel Garcia-Rates, Ingolf Harden, Hagen Neugebauer, Anastasios Papadopoulos, 
  Christoph Riplinger, Bernardo de Souza, Georgi L. Stoychev                                                    
                                                                 
  APM, various basis sets, CI-OPT, improved COSX, DLPNO-Multilevel,           
  DOCKER, DRACO, updates on ESD, Fragmentator, GOAT, IRC, LR-CPCM, L-BFGS, MBIS, meta-GGA TD-DFT gradient, ML-optimized integration grids, 
  MM, NACMEs, nearIR, NEB, NEB-TS, NL-DFT gradient (VV10), 2- and 3-layer-ONIOM, interface openCOSMO-RS, QMMM,   
  Crystal-QMMM, RESP, rigid body optimization, SF, symmetry and pop. for TD-DFT, various functionals, SOLVATOR                                   
                                                                         
[Other institutions]                                                     
  V. Asgeirsson          : NEB                                           
  Christoph Bannwarth    : sTDA-DFT, sTD-DFT, PBEh-3c, B97-3c, D3        
  Giovanni Bistoni       : ETS/NOCV, ADLD/ADEX, COVALED                  
  Martin Brehm           : Molecular dynamics                            
  Ronald Cardenas        : ETS/NOCV                                      
  Martina Colucci        : COVALED                                       
  Sebastian Ehlert       : rSCAN, r2SCAN, r2SCAN-3c, D4, dhf basis sets  
  Marvin Friede          : D4 for Fr, Ra, Ac-Lr                          
  Lars Goerigk           : TD-DFT with DH, B97 family of functionals     
  Stefan Grimme          : VdW corrections, initial TS optimization, DFT functionals, gCP, sTDA/sTD-DF 
  Waldemar Hujo          : DFT-NL                                        
  H. Jonsson             : NEB                                           
  Holger Kruse           : gCP                                           
  Marcel Mueller         : wB97X-3c, vDZP basis set                      
  Hagen Neugebauer       : wr2SCAN, Native XTB                           
  Gianluca Regni         : ADLD/ADEX                                     
  Tobias Risthaus        : pre 6.0 range-separated hybrid DFT and stability analysis
  Lukas Wittmann         : regularized MP2, r2SCAN double-hybrids, wr2SCAN        
                                                                         
We gratefully acknowledge several colleagues who have allowed us to      
interface, adapt or use parts of their codes:                            
  Ed Valeev, F. Pavosevic, A. Kumar             : LibInt (2-el integral package), F12 methods 
  Garnet Chan, S. Sharma, J. Yang, R. Olivares  : DMRG                   
  Ulf Ekstrom                                   : XCFun DFT Library      
  Mihaly Kallay                                 : mrcc  (arbitrary order and MRCC methods)
  Frank Weinhold                                : gennbo (NPA and NBO analysis)           
  Simon Mueller                                 : openCOSMO-RS                            
  Christopher J. Cramer and Donald G. Truhlar   : smd solvation model                     
  S Lehtola, MJT Oliveira, MAL Marques          : LibXC Library                           
  Liviu Ungur et al                             : ANISO software                          


 Your calculation uses the libint2 library for the computation of 2-el integrals
 For citations please refer to: http://libint.valeyev.net

 Your ORCA version has been built with support for libXC version: 7.0.0
 For citations please refer to: https://libxc.gitlab.io

 This ORCA versions uses:
   CBLAS   interface :  Fast vector & matrix operations
   LAPACKE interface :  Fast linear algebra routines
   SCALAPACK package :  Parallel linear algebra routines
   Shared memory     :  Shared parallel matrices
   BLAS/LAPACK       :  OpenBLAS 0.3.29  USE64BITINT DYNAMIC_ARCH NO_AFFINITY Haswell SINGLE_THREADED
        Core in use  :  Haswell
   Copyright (c) 2011-2014, The OpenBLAS Project


  ***********************************
  * Starting time: Wed Aug 13 12:00:06 2025
  * Host name:     CHEMLAB02
  * Process ID:    1530549
  * Working dir.:  /home/vivek/mm-project/vivek/B97-D/c/0
  ***********************************



***************************************
The coordinates will be read from file: /home/vivek/mm-project/vivek/xtb-goat/c/C_CONF/0.xyz
***************************************


Your calculation utilizes empirical dispersion correction


Warning: RI is on but no J-basis has been assigned. Assigning Def2/J (nothing to worry about!)
================================================================================

----- Orbital basis set information -----
Your calculation utilizes the basis: 6-31G**
   H-He, Li-Ne : W. J. Hehre, R. Ditchfield and J.A. Pople, J. Chem. Phys. 56, 2257 (1972).
                 Note: He and Ne are unpublished basis sets taken from the Gaussian program.
                 Note: Li and B from J. D. Dill and J. A. Pople, J. Chem. Phys. 62, 2921 (1975).
   Na - Ar     : M. M. Francl, W. J. Pietro, W. J. Hehre, J. S. Binkley, M. S. Gordon, 
                 D. J. DeFrees and J. A. Pople, J. Chem. Phys. 77, 3654 (1982).
   K - Zn      : V. A. Rassolov, J. A. Pople, M. A. Ratner, and T. L. Windus, J. Chem. Phys. 109, 1223 (1998).

----- AuxJ basis set information -----
Your calculation utilizes the auxiliary basis: def2/J
   H-Rn: F. Weigend, Phys. Chem. Chem. Phys. 8, 1057 (2006).
   Fr-Lr: K. Eichkorn, F. Weigend, O. Treutler, R. Ahlrichs; Theor. Chem. Acc. 97, 119 (1997).

================================================================================
                                        WARNINGS
                       Please study these warnings very carefully!
================================================================================


INFO   : The exchange functional is Grimme's B97(-D)
         As described in S. Grimme, J. Comput. Chem. 27, 1787 (2006).
         Note that this functional defaults to a pure GGA. 

INFO   : The correlation functional is Grimme's B97(-D)
         As described in S. Grimme, J. Comput. Chem. 27, 1787 (2006).

================================================================================
                                       INPUT FILE
================================================================================
NAME = 0.inp
|  1> ! B97-D 6-31G** 
|  2> 
|  3> * xyzfile 0 1 /home/vivek/mm-project/vivek/xtb-goat/c/C_CONF/0.xyz
|  4> 
|  5>                          ****END OF INPUT****
================================================================================

                       ****************************
                       * Single Point Calculation *
                       ****************************

---------------------------------
CARTESIAN COORDINATES (ANGSTROEM)
---------------------------------
  H     -1.442345    2.082440    1.646858
  C     -2.904842    0.985021    0.513520
  H     -2.808970    0.069002    1.093374
  H     -4.011893    3.029491    0.580771
  O     -0.111764    0.025462    0.971106
  C     -1.625748    1.824809    0.598650
  H     -1.041076    3.689384    0.005527
  S     -4.314432    1.900622    1.215686
  N     -1.796367    3.037786   -0.174506
  H     -1.768451    2.811914   -1.165438
  C     -0.469825    0.963612    0.094152
  H     -3.134294    0.743766   -0.525433
  O      0.052695    1.103547   -0.978957
  H      0.610578   -0.520322    0.619163

----------------------------
CARTESIAN COORDINATES (A.U.)
----------------------------
  NO LB      ZA    FRAG     MASS         X           Y           Z
   0 H     1.0000    0     1.008   -2.725637    3.935241    3.112111
   1 C     6.0000    0    12.011   -5.489356    1.861419    0.970413
   2 H     1.0000    0     1.008   -5.308184    0.130396    2.066177
   3 H     1.0000    0     1.008   -7.581379    5.724909    1.097499
   4 O     8.0000    0    15.999   -0.211204    0.048115    1.835125
   5 C     6.0000    0    12.011   -3.072218    3.448389    1.131284
   6 H     1.0000    0     1.008   -1.967349    6.971925    0.010444
   7 S    16.0000    0    32.060   -8.153095    3.591655    2.297313
   8 N     7.0000    0    14.007   -3.394641    5.740584   -0.329768
   9 H     1.0000    0     1.008   -3.341888    5.313747   -2.202358
  10 C     6.0000    0    12.011   -0.887841    1.820963    0.177921
  11 H     1.0000    0     1.008   -5.922958    1.405515   -0.992925
  12 O     8.0000    0    15.999    0.099579    2.085402   -1.849960
  13 H     1.0000    0     1.008    1.153824   -0.983265    1.170049

--------------------------------
INTERNAL COORDINATES (ANGSTROEM)
--------------------------------
 H      0   0   0     0.000000000000     0.00000000     0.00000000
 C      1   0   0     2.151204606006     0.00000000     0.00000000
 H      2   1   0     1.088352282913    95.09380855     0.00000000
 H      2   1   3     2.325929134244    81.94863680   139.85533291
 O      1   2   3     2.541307794758    78.63543150    54.41794084
 C      1   2   3     1.094875031533    42.41278861   125.73233856
 H      6   1   2     2.042125289346    90.87423687   140.27420648
 S      4   2   1     1.330034588344    51.39282899   251.24791388
 N      7   6   1     1.013634668511    41.52285283   226.34804532
 H      9   7   6     1.016731570359   107.18477146   240.76627740
 C      5   1   2     1.333185278806    57.63643890    70.55802219
 H      2   1   3     1.090997850954   139.24407203   231.24798423
 O     11   5   1     1.201736604104   123.54180231   161.24143421
 H      5   1   2     0.971350175442   160.13573280   129.82914282

---------------------------
INTERNAL COORDINATES (A.U.)
---------------------------
 H      0   0   0     0.000000000000     0.00000000     0.00000000
 C      1   0   0     4.065187563381     0.00000000     0.00000000
 H      2   1   0     2.056687751934    95.09380855     0.00000000
 H      2   1   3     4.395369070630    81.94863680   139.85533291
 O      1   2   3     4.802375754092    78.63543150    54.41794084
 C      1   2   3     2.069013960465    42.41278861   125.73233856
 H      6   1   2     3.859057528018    90.87423687   140.27420648
 S      4   2   1     2.513401120613    51.39282899   251.24791388
 N      7   6   1     1.915491923333    41.52285283   226.34804532
 H      9   7   6     1.921344219690   107.18477146   240.76627740
 C      5   1   2     2.519355062718    57.63643890    70.55802219
 H      2   1   3     2.061687150999   139.24407203   231.24798423
 O     11   5   1     2.270953066865   123.54180231   161.24143421
 H      5   1   2     1.835585811721   160.13573280   129.82914282

---------------------
BASIS SET INFORMATION
---------------------
There are 5 groups of distinct atoms

 Group   1 Type H   : 4s1p contracted to 2s1p pattern {31/1}
 Group   2 Type C   : 10s4p1d contracted to 3s2p1d pattern {631/31/1}
 Group   3 Type O   : 10s4p1d contracted to 3s2p1d pattern {631/31/1}
 Group   4 Type S   : 16s10p1d contracted to 4s3p1d pattern {6631/631/1}
 Group   5 Type N   : 10s4p1d contracted to 3s2p1d pattern {631/31/1}

Atom   0H    basis set group =>   1
Atom   1C    basis set group =>   2
Atom   2H    basis set group =>   1
Atom   3H    basis set group =>   1
Atom   4O    basis set group =>   3
Atom   5C    basis set group =>   2
Atom   6H    basis set group =>   1
Atom   7S    basis set group =>   4
Atom   8N    basis set group =>   5
Atom   9H    basis set group =>   1
Atom  10C    basis set group =>   2
Atom  11H    basis set group =>   1
Atom  12O    basis set group =>   3
Atom  13H    basis set group =>   1
---------------------------------
AUXILIARY/J BASIS SET INFORMATION
---------------------------------
There are 5 groups of distinct atoms

 Group   1 Type H   : 5s2p1d contracted to 3s1p1d pattern {311/2/1}
 Group   2 Type C   : 12s5p4d2f1g contracted to 6s4p3d1f1g pattern {711111/2111/211/2/1}
 Group   3 Type O   : 12s5p4d2f1g contracted to 6s4p3d1f1g pattern {711111/2111/211/2/1}
 Group   4 Type S   : 14s5p5d2f1g contracted to 8s4p3d1f1g pattern {71111111/2111/311/2/1}
 Group   5 Type N   : 12s5p4d2f1g contracted to 6s4p3d1f1g pattern {711111/2111/211/2/1}

Atom   0H    basis set group =>   1
Atom   1C    basis set group =>   2
Atom   2H    basis set group =>   1
Atom   3H    basis set group =>   1
Atom   4O    basis set group =>   3
Atom   5C    basis set group =>   2
Atom   6H    basis set group =>   1
Atom   7S    basis set group =>   4
Atom   8N    basis set group =>   5
Atom   9H    basis set group =>   1
Atom  10C    basis set group =>   2
Atom  11H    basis set group =>   1
Atom  12O    basis set group =>   3
Atom  13H    basis set group =>   1
------------------------------------------------------------------------------
                             ORCA STARTUP CALCULATIONS
                           -- RI-GTO INTEGRALS CHOSEN --
------------------------------------------------------------------------------
------------------------------------------------------------------------------
                   ___                                                        
                  /   \      - P O W E R E D   B Y -                         
                 /     \                                                     
                 |  |  |   _    _      __       _____    __    __             
                 |  |  |  | |  | |    /  \     |  _  \  |  |  /  |          
                  \  \/   | |  | |   /    \    | | | |  |  | /  /          
                 / \  \   | |__| |  /  /\  \   | |_| |  |  |/  /          
                |  |  |   |  __  | /  /__\  \  |    /   |      \           
                |  |  |   | |  | | |   __   |  |    \   |  |\   \          
                \     /   | |  | | |  |  |  |  | |\  \  |  | \   \       
                 \___/    |_|  |_| |__|  |__|  |_| \__\ |__|  \__/        
                                                                              
                      - O R C A' S   B I G   F R I E N D -                    
                                      &                                       
                       - I N T E G R A L  F E E D E R -                       
                                                                              
 v1 FN, 2020, v2 2021, v3 2022-2024                                           
------------------------------------------------------------------------------


----------------------
SHARK INTEGRAL PACKAGE
----------------------

Number of atoms                             ...     14
Number of basis functions                   ...    137
Number of shells                            ...     65
Maximum angular momentum                    ...      2
Integral batch strategy                     ... SHARK/LIBINT Hybrid
RI-J (if used) integral strategy            ... SPLIT-RIJ (Revised 2003 algorithm where possible)
Printlevel                                  ...      1
Contraction scheme used                     ... SEGMENTED contraction
Prescreening option                         ... SCHWARTZ
   Thresh                                   ... 1.000e-10
   Tcut                                     ... 1.000e-11
   Tpresel                                  ... 1.000e-11 
Coulomb Range Separation                    ... NOT USED
Exchange Range Separation                   ... NOT USED
Multipole approximations                    ... NOT USED
Finite Nucleus Model                        ... NOT USED
CABS basis                                  ... NOT available
Auxiliary Coulomb fitting basis             ... AVAILABLE
   # of basis functions in Aux-J            ...    422
   # of shells in Aux-J                     ...    142
   Maximum angular momentum in Aux-J        ...      4
Auxiliary J/K fitting basis                 ... NOT available
Auxiliary Correlation fitting basis         ... NOT available
Auxiliary 'external' fitting basis          ... NOT available

Checking pre-screening integrals            ... done (  0.0 sec) Dimension = 65
   => SHARK Basis and OBASIS are compatible. Storing Pre-screening
Shell pair information
Shell pair cut-off parameter TPreSel        ...   1.0e-11
Total number of shell pairs                 ...      2145
Shell pairs after pre-screening             ...      2001
Total number of primitive shell pairs       ...     11826
Primitive shell pairs kept                  ...      7385
          la=0 lb=0:    614 shell pairs
          la=1 lb=0:    737 shell pairs
          la=1 lb=1:    240 shell pairs
          la=2 lb=0:    236 shell pairs
          la=2 lb=1:    146 shell pairs
          la=2 lb=2:     28 shell pairs

Checking whether 4 symmetric matrices of dimension 137 fit in memory
:Max Core in MB      =   4096.00
 MB in use           =      6.19
 MB left             =   4089.81
 MB needed           =      0.29
 Data fit in memory  = YES
Calculating RI/J V-Matrix + Cholesky decomp.... done (  0.0 sec)
Calculating Nuclear repulsion               ... done (  0.0 sec) ENN=    376.584038281029 Eh

Diagonalization of the overlap matrix:
Smallest eigenvalue                        ... 3.395e-03
Time for diagonalization                   ...    0.001 sec
Threshold for overlap eigenvalues          ... 1.000e-07
Number of eigenvalues below threshold      ... 0
Time for construction of square roots      ...    0.000 sec
Total time needed                          ...    0.001 sec

-------------------
DFT GRID GENERATION
-------------------

General Integration Accuracy     IntAcc      ... 4.388
Radial Grid Type                 RadialGrid  ... OptM3 with GC (2021)
Angular Grid (max. ang.)         AngularGrid ... 4 (Lebedev-302)
Angular grid pruning method      GridPruning ... 4 (adaptive)
Weight generation scheme         WeightScheme... mBecke (2022)
Basis function cutoff            BFCut       ... 1.0000e-10
Integration weight cutoff        WCut        ... 1.0000e-14
Partially contracted basis set               ... off
Rotationally invariant grid construction     ... off
Angular grids for H and He will be reduced by one unit

Total number of grid points                  ...    66166
Total number of batches                      ...     1041
Average number of points per batch           ...       63
Average number of grid points per atom       ...     4726
Grids setup in   0.2 sec
Initializing property integral containers    ... done (  0.0 sec)

SHARK setup successfully completed in   0.3 seconds

Maximum memory used throughout the entire STARTUP-calculation: 27.8 MB
-------------------------------------------------------------------------------
                                 ORCA GUESS
                   Start orbitals & Density for SCF / CASSCF
-------------------------------------------------------------------------------

------------
SCF SETTINGS
------------
Hamiltonian:
 Density Functional     Method          .... DFT(GTOs)
 Exchange Functional    Exchange        .... B97(D)
 Correlation Functional Correlation     .... B97(D)
 Gradients option       PostSCFGGA      .... off
 RI-approximation to the Coulomb term is turned on
   Number of AuxJ basis functions       .... 422


General Settings:
 Integral files         IntName         .... 0
 Hartree-Fock type      HFTyp           .... RHF
 Total Charge           Charge          ....    0
 Multiplicity           Mult            ....    1
 Number of Electrons    NEL             ....   64
 Basis Dimension        Dim             ....  137
 Nuclear Repulsion      ENuc            ....    376.5840382810 Eh

Convergence Acceleration:
 AO-DIIS                CNVDIIS         .... on
   Start iteration      DIISMaxIt       ....    12
   Startup error        DIISStart       ....  0.200000
   # of expansion vecs  DIISMaxEq       ....     5
   Bias factor          DIISBfac        ....   1.050
   Max. coefficient     DIISMaxC        ....  10.000
 MO-DIIS                CNVKDIIS        .... off
 Trust-Rad. Augm. Hess. CNVTRAH         .... auto
   Auto Start mean grad. ratio tolernc. ....  1.125000
   Auto Start start iteration           ....    50
   Auto Start num. interpolation iter.  ....    10
   Max. Number of Micro iterations      ....    24
   Max. Number of Macro iterations      .... Maxiter - #DIIS iter
   Number of Davidson start vectors     ....     2
   Converg. threshold    (grad. norm)   ....   5.000e-05
   Grad. Scal. Fac. for Micro threshold ....   0.100
   Minimum threshold for Micro iter.    ....   1.000e-02
   NR start threshold (gradient norm)   ....   1.000e-04
   Initial trust radius                 ....   0.400
   Minimum AH scaling param. (alpha)    ....   1.000
   Maximum AH scaling param. (alpha)    .... 1000.000
   Quad. conv. algorithm                .... NR
   White noise on init. David. guess    .... on
   Maximum white noise                  ....   0.010
   Pseudo random numbers                .... off
   Inactive MOs                         .... canonical
   Orbital update algorithm             .... Taylor
   Preconditioner                       .... Diag
   Full preconditioner red. dimension   ....   250
 SOSCF                 CNVSOSCF           .... on
   Start iteration     SOSCFMaxIt         ....   150
   Startup grad/error  SOSCFStart         ....  0.003300
   Hessian update      SOSCFHessUp        .... L-BFGS
   Autom. constraints  SOSCFAutoConstrain .... off
 Level Shifting         CNVShift        .... on
   Level shift para.    LevelShift      ....    0.2500
   Turn off err/grad.   ShiftErr        ....    0.0010
 Zerner damping         CNVZerner       .... off
 Static damping         CNVDamp         .... on
   Fraction old density DampFac         ....    0.7000
   Max. Damping (<1)    DampMax         ....    0.9800
   Min. Damping (>=0)   DampMin         ....    0.0000
   Turn off err/grad.   DampErr         ....    0.1000

SCF Procedure:
 Maximum # iterations   MaxIter         ....   125
 SCF integral mode      SCFMode         .... Direct
   Integral package                     .... SHARK and LIBINT hybrid scheme
 Reset frequency        DirectResetFreq ....    20
 Integral Threshold     Thresh          ....  1.000e-10 Eh
 Primitive CutOff       TCut            ....  1.000e-11 Eh

Convergence Tolerance:
 Convergence Check Mode ConvCheckMode   .... Total+1el-Energy
 Convergence forced     ConvForced      .... 0
 Energy Change          TolE            ....  1.000e-06 Eh
 1-El. energy change                    ....  1.000e-03 Eh
 Orbital Gradient       TolG            ....  5.000e-05
 Orbital Rotation angle TolX            ....  5.000e-05
 DIIS Error             TolErr          ....  1.000e-06

------------------------------
INITIAL GUESS: MODEL POTENTIAL
------------------------------
Loading Hartree-Fock densities                     ... done
Calculating cut-offs                               ... done
Initializing the effective Hamiltonian             ... done
Setting up the integral package (SHARK)            ... done
Starting the Coulomb interaction                   ... done (   0.0 sec)
Making the grid                                    ... done (   0.1 sec)
Mapping shells                                     ... done
Starting the XC term evaluation                    ... done (   0.1 sec)
  promolecular density results
     # of electrons  =     63.998207041
     EX              =    -64.734962770
     EC              =     -2.962111593
     EX+EC           =    -67.697074363
Transforming the Hamiltonian                       ... done (   0.0 sec)
Diagonalizing the Hamiltonian                      ... done (   0.0 sec)
Back transforming the eigenvectors                 ... done (   0.0 sec)
Now organizing SCF variables                       ... done
                      ------------------
                      INITIAL GUESS DONE (   0.1 sec)
                      ------------------
             **** ENERGY FILE WAS UPDATED (0.en.tmp) ****
Finished Guess after   0.2 sec
Maximum memory used throughout the entire GUESS-calculation: 10.3 MB

-------------------------------------------------------------------------------------------
                                      ORCA LEAN-SCF
                              memory conserving SCF solver
-------------------------------------------------------------------------------------------

----------------------------------------D-I-I-S--------------------------------------------
Iteration    Energy (Eh)           Delta-E    RMSDP     MaxDP     DIISErr   Damp  Time(sec)
-------------------------------------------------------------------------------------------
               ***  Starting incremental Fock matrix formation  ***
    1    -721.4681940518117926     0.00e+00  4.24e-03  9.90e-02  2.60e-01  0.700   0.3
    2    -721.5899393928206109    -1.22e-01  2.60e-03  5.22e-02  9.51e-02  0.700   0.3
                               ***Turning on AO-DIIS***
    3    -721.6250827469144724    -3.51e-02  9.87e-04  2.00e-02  2.51e-02  0.700   0.3
    4    -721.6490521733188643    -2.40e-02  1.37e-03  3.50e-02  1.41e-02  0.000   0.3
    5    -721.7056406053110322    -5.66e-02  4.82e-04  1.02e-02  8.90e-03  0.000   0.3
                              *** Initializing SOSCF ***
---------------------------------------S-O-S-C-F--------------------------------------
Iteration    Energy (Eh)           Delta-E    RMSDP     MaxDP     MaxGrad    Time(sec)
--------------------------------------------------------------------------------------
    6    -721.7062284531740488    -5.88e-04  1.58e-04  2.12e-03  2.99e-03     0.3
               *** Restarting incremental Fock matrix formation ***
    7    -721.7062774197121371    -4.90e-05  1.20e-04  2.43e-03  5.05e-04     0.3
    8    -721.7062683170116770     9.10e-06  6.22e-05  1.78e-03  1.30e-03     0.2
    9    -721.7062825158217265    -1.42e-05  5.08e-05  8.55e-04  1.79e-04     0.2
   10    -721.7062819700405498     5.46e-07  2.49e-05  4.02e-04  1.83e-04     0.2
                 **** Energy Check signals convergence ****

               *****************************************************
               *                     SUCCESS                       *
               *           SCF CONVERGED AFTER  10 CYCLES          *
               *****************************************************

             **** ENERGY FILE WAS UPDATED (0.en.tmp) ****

----------------
TOTAL SCF ENERGY
----------------

Total Energy       :       -721.70628365511118 Eh          -19638.62639 eV

Components:
Nuclear Repulsion  :        376.58403828102917 Eh           10247.37265 eV
Electronic Energy  :      -1098.29032193614057 Eh          -29885.99903 eV
One Electron Energy:      -1739.29730223426373 Eh          -47328.68574 eV
Two Electron Energy:        641.00698029812327 Eh           17442.68670 eV

Virial components:
Potential Energy   :      -1441.20949311006734 Eh          -39217.30408 eV
Kinetic Energy     :        719.50320945495616 Eh           19578.67769 eV
Virial Ratio       :          2.00306193797499

DFT components:
N(Alpha)           :       32.000047616797 electrons
N(Beta)            :       32.000047616797 electrons
N(Total)           :       64.000095233594 electrons
E(X)               :      -65.656220499842 Eh       
E(C)               :       -2.954610386399 Eh       
E(XC)              :      -68.610830886242 Eh       

---------------
SCF CONVERGENCE
---------------

  Last Energy change         ...   -5.4578e-07  Tolerance :   1.0000e-06
  Last MAX-Density change    ...    4.0150e-04  Tolerance :   1.0000e-05
  Last RMS-Density change    ...    2.4907e-05  Tolerance :   1.0000e-06
  Last DIIS Error            ...    2.9906e-03  Tolerance :   1.0000e-06
  Last Orbital Gradient      ...    1.8290e-04  Tolerance :   5.0000e-05
  Last Orbital Rotation      ...    1.8596e-04  Tolerance :   5.0000e-05


----------------
ORBITAL ENERGIES
----------------

  NO   OCC          E(Eh)            E(eV) 
   0   2.0000     -88.016914     -2395.0620 
   1   2.0000     -18.826298      -512.2896 
   2   2.0000     -18.765204      -510.6272 
   3   2.0000     -14.004148      -381.0722 
   4   2.0000     -10.039655      -273.1929 
   5   2.0000      -9.962659      -271.0977 
   6   2.0000      -9.945215      -270.6231 
   7   2.0000      -7.703903      -209.6339 
   8   2.0000      -5.738177      -156.1437 
   9   2.0000      -5.733614      -156.0196 
  10   2.0000      -5.726759      -155.8330 
  11   2.0000      -1.033185       -28.1144 
  12   2.0000      -0.944643       -25.7051 
  13   2.0000      -0.832774       -22.6609 
  14   2.0000      -0.720770       -19.6132 
  15   2.0000      -0.655712       -17.8428 
  16   2.0000      -0.581437       -15.8217 
  17   2.0000      -0.542457       -14.7610 
  18   2.0000      -0.474803       -12.9200 
  19   2.0000      -0.453600       -12.3431 
  20   2.0000      -0.431859       -11.7515 
  21   2.0000      -0.408970       -11.1286 
  22   2.0000      -0.402467       -10.9517 
  23   2.0000      -0.374826       -10.1995 
  24   2.0000      -0.354025        -9.6335 
  25   2.0000      -0.340193        -9.2571 
  26   2.0000      -0.330317        -8.9884 
  27   2.0000      -0.289418        -7.8755 
  28   2.0000      -0.283228        -7.7070 
  29   2.0000      -0.235941        -6.4203 
  30   2.0000      -0.215156        -5.8547 
  31   2.0000      -0.190451        -5.1824 
  32   0.0000      -0.033066        -0.8998 
  33   0.0000       0.023871         0.6496 
  34   0.0000       0.041856         1.1390 
  35   0.0000       0.063019         1.7148 
  36   0.0000       0.075841         2.0637 
  37   0.0000       0.095795         2.6067 
  38   0.0000       0.117445         3.1958 
  39   0.0000       0.137555         3.7431 
  40   0.0000       0.147407         4.0111 
  41   0.0000       0.180037         4.8991 
  42   0.0000       0.188541         5.1305 
*Only the first 10 virtual orbitals were printed.

                    ********************************
                    * MULLIKEN POPULATION ANALYSIS *
                    ********************************

-----------------------
MULLIKEN ATOMIC CHARGES
-----------------------
   0 H :    0.148004
   1 C :   -0.338470
   2 H :    0.162348
   3 H :    0.097541
   4 O :   -0.449087
   5 C :   -0.046261
   6 H :    0.253553
   7 S :   -0.073617
   8 N :   -0.555413
   9 H :    0.254692
  10 C :    0.488235
  11 H :    0.146787
  12 O :   -0.410575
  13 H :    0.322264
Sum of atomic charges:    0.0000000

--------------------------------
MULLIKEN REDUCED ORBITAL CHARGES
--------------------------------
  0 H s       :     0.841029  s :     0.841029
      pz      :     0.006508  p :     0.010967
      px      :     0.002403
      py      :     0.002056

  1 C s       :     3.304356  s :     3.304356
      pz      :     1.074746  p :     2.997428
      px      :     0.901087
      py      :     1.021596
      dz2     :     0.009029  d :     0.036686
      dxz     :     0.005398
      dyz     :     0.007519
      dx2y2   :     0.007895
      dxy     :     0.006845

  2 H s       :     0.825897  s :     0.825897
      pz      :     0.003719  p :     0.011755
      px      :     0.002494
      py      :     0.005542

  3 H s       :     0.885229  s :     0.885229
      pz      :     0.005679  p :     0.017230
      px      :     0.004409
      py      :     0.007141

  4 O s       :     3.823399  s :     3.823399
      pz      :     1.631197  p :     4.602854
      px      :     1.531625
      py      :     1.440031
      dz2     :     0.005209  d :     0.022834
      dxz     :     0.005201
      dyz     :     0.006752
      dx2y2   :     0.002039
      dxy     :     0.003633

  5 C s       :     3.195815  s :     3.195815
      pz      :     0.997056  p :     2.793148
      px      :     0.944811
      py      :     0.851281
      dz2     :     0.012489  d :     0.057297
      dxz     :     0.006110
      dyz     :     0.011291
      dx2y2   :     0.009882
      dxy     :     0.017526

  6 H s       :     0.722463  s :     0.722463
      pz      :     0.005061  p :     0.023984
      px      :     0.010101
      py      :     0.008821

  7 S s       :     5.849436  s :     5.849436
      pz      :     3.664972  p :    10.166761
      px      :     3.407252
      py      :     3.094537
      dz2     :     0.004151  d :     0.057421
      dxz     :     0.009163
      dyz     :     0.016219
      dx2y2   :     0.014761
      dxy     :     0.013126

  8 N s       :     3.586726  s :     3.586726
      pz      :     1.165371  p :     3.940738
      px      :     1.574093
      py      :     1.201274
      dz2     :     0.009515  d :     0.027949
      dxz     :     0.001864
      dyz     :     0.004531
      dx2y2   :     0.004182
      dxy     :     0.007858

  9 H s       :     0.721454  s :     0.721454
      pz      :     0.011585  p :     0.023854
      px      :     0.007149
      py      :     0.005120

 10 C s       :     2.982431  s :     2.982431
      pz      :     0.760913  p :     2.403952
      px      :     0.853290
      py      :     0.789749
      dz2     :     0.030411  d :     0.125383
      dxz     :     0.028765
      dyz     :     0.037886
      dx2y2   :     0.015429
      dxy     :     0.012892

 11 H s       :     0.841589  s :     0.841589
      pz      :     0.006221  p :     0.011625
      px      :     0.002790
      py      :     0.002614

 12 O s       :     3.856118  s :     3.856118
      pz      :     1.378440  p :     4.526208
      px      :     1.527640
      py      :     1.620127
      dz2     :     0.009746  d :     0.028249
      dxz     :     0.007868
      dyz     :     0.006822
      dx2y2   :     0.001764
      dxy     :     0.002049

 13 H s       :     0.639809  s :     0.639809
      pz      :     0.009476  p :     0.037927
      px      :     0.016059
      py      :     0.012392



                     *******************************
                     * LOEWDIN POPULATION ANALYSIS *
                     *******************************

----------------------
LOEWDIN ATOMIC CHARGES
----------------------
   0 H :    0.092553
   1 C :   -0.211576
   2 H :    0.093075
   3 H :    0.054766
   4 O :   -0.133596
   5 C :   -0.058069
   6 H :    0.132722
   7 S :   -0.011077
   8 N :   -0.237179
   9 H :    0.131810
  10 C :    0.099748
  11 H :    0.078702
  12 O :   -0.217158
  13 H :    0.185279

-------------------------------
LOEWDIN REDUCED ORBITAL CHARGES
-------------------------------
  0 H s       :     0.867224  s :     0.867224
      pz      :     0.025823  p :     0.040223
      px      :     0.007344
      py      :     0.007056

  1 C s       :     2.955265  s :     2.955265
      pz      :     1.101594  p :     3.175932
      px      :     1.000930
      py      :     1.073408
      dz2     :     0.019276  d :     0.080378
      dxz     :     0.011694
      dyz     :     0.014956
      dx2y2   :     0.016584
      dxy     :     0.017868

  2 H s       :     0.865301  s :     0.865301
      pz      :     0.012709  p :     0.041624
      px      :     0.006926
      py      :     0.021990

  3 H s       :     0.892475  s :     0.892475
      pz      :     0.016782  p :     0.052759
      px      :     0.011088
      py      :     0.024889

  4 O s       :     3.467551  s :     3.467551
      pz      :     1.640836  p :     4.614686
      px      :     1.520883
      py      :     1.452967
      dz2     :     0.009438  d :     0.051359
      dxz     :     0.008859
      dyz     :     0.015947
      dx2y2   :     0.005654
      dxy     :     0.011461

  5 C s       :     2.884273  s :     2.884273
      pz      :     1.044620  p :     3.042533
      px      :     1.026203
      py      :     0.971710
      dz2     :     0.027006  d :     0.131263
      dxz     :     0.012529
      dyz     :     0.026238
      dx2y2   :     0.021951
      dxy     :     0.043540

  6 H s       :     0.788042  s :     0.788042
      pz      :     0.013166  p :     0.079236
      px      :     0.037328
      py      :     0.028742

  7 S s       :     5.644202  s :     5.644202
      pz      :     3.699058  p :    10.303113
      px      :     3.466334
      py      :     3.137720
      dz2     :     0.004529  d :     0.063763
      dxz     :     0.010193
      dyz     :     0.017430
      dx2y2   :     0.016276
      dxy     :     0.015335

  8 N s       :     3.192593  s :     3.192593
      pz      :     1.192942  p :     3.987411
      px      :     1.556755
      py      :     1.237713
      dz2     :     0.019348  d :     0.057175
      dxz     :     0.002838
      dyz     :     0.012412
      dx2y2   :     0.008084
      dxy     :     0.014493

  9 H s       :     0.788481  s :     0.788481
      pz      :     0.044274  p :     0.079709
      px      :     0.020715
      py      :     0.014721

 10 C s       :     2.855041  s :     2.855041
      pz      :     0.959265  p :     2.745139
      px      :     0.914551
      py      :     0.871323
      dz2     :     0.072538  d :     0.300071
      dxz     :     0.069013
      dyz     :     0.094449
      dx2y2   :     0.034672
      dxy     :     0.029400

 11 H s       :     0.879667  s :     0.879667
      pz      :     0.025442  p :     0.041631
      px      :     0.007813
      py      :     0.008376

 12 O s       :     3.554058  s :     3.554058
      pz      :     1.462082  p :     4.604604
      px      :     1.536653
      py      :     1.605869
      dz2     :     0.020829  d :     0.058496
      dxz     :     0.018910
      dyz     :     0.012183
      dx2y2   :     0.003380
      dxy     :     0.003195

 13 H s       :     0.699198  s :     0.699198
      pz      :     0.028857  p :     0.115524
      px      :     0.049954
      py      :     0.036712



                      *****************************
                      * MAYER POPULATION ANALYSIS *
                      *****************************

  NA   - Mulliken gross atomic population
  ZA   - Total nuclear charge
  QA   - Mulliken gross atomic charge
  VA   - Mayer's total valence
  BVA  - Mayer's bonded valence
  FA   - Mayer's free valence

  ATOM       NA         ZA         QA         VA         BVA        FA
  0 H      0.8520     1.0000     0.1480     0.9493     0.9493     0.0000
  1 C      6.3385     6.0000    -0.3385     3.8526     3.8526    -0.0000
  2 H      0.8377     1.0000     0.1623     0.9446     0.9446    -0.0000
  3 H      0.9025     1.0000     0.0975     0.9872     0.9872     0.0000
  4 O      8.4491     8.0000    -0.4491     2.0402     2.0402     0.0000
  5 C      6.0463     6.0000    -0.0463     3.8523     3.8523     0.0000
  6 H      0.7464     1.0000     0.2536     0.9165     0.9165     0.0000
  7 S     16.0736    16.0000    -0.0736     1.9702     1.9702     0.0000
  8 N      7.5554     7.0000    -0.5554     2.9316     2.9316     0.0000
  9 H      0.7453     1.0000     0.2547     0.9288     0.9288     0.0000
 10 C      5.5118     6.0000     0.4882     3.9645     3.9645     0.0000
 11 H      0.8532     1.0000     0.1468     0.9370     0.9370     0.0000
 12 O      8.4106     8.0000    -0.4106     2.1220     2.1220     0.0000
 13 H      0.6777     1.0000     0.3223     0.9138     0.9138    -0.0000

  Mayer bond orders larger than 0.100000
B(  0-H ,  5-C ) :   0.9217 B(  1-C ,  2-H ) :   0.9396 B(  1-C ,  5-C ) :   0.9612 
B(  1-C ,  7-S ) :   1.0041 B(  1-C , 11-H ) :   0.9357 B(  3-H ,  7-S ) :   0.9208 
B(  4-O , 10-C ) :   1.0910 B(  4-O , 13-H ) :   0.8494 B(  5-C ,  8-N ) :   1.0521 
B(  5-C , 10-C ) :   0.8931 B(  6-H ,  8-N ) :   0.9061 B(  8-N ,  9-H ) :   0.8930 
B( 10-C , 12-O ) :   1.9307 

-------
TIMINGS
-------

Total SCF time: 0 days 0 hours 0 min 2 sec 

Total time                  ....       2.914 sec
Sum of individual times     ....       2.671 sec  ( 91.7%)

SCF preparation             ....       0.023 sec  (  0.8%)
Fock matrix formation       ....       2.624 sec  ( 90.0%)
  Startup                   ....       0.000 sec  (  0.0% of F)
  Split-RI-J                ....       0.822 sec  ( 31.3% of F)
  XC integration            ....       2.035 sec  ( 77.6% of F)
    XC Preparation          ....       0.000 sec  (  0.0% of XC)
    Basis function eval.    ....       0.698 sec  ( 34.3% of XC)
    Density eval.           ....       0.409 sec  ( 20.1% of XC)
    XC-Functional eval.     ....       0.425 sec  ( 20.9% of XC)
    XC-Potential eval.      ....       0.451 sec  ( 22.2% of XC)
Diagonalization             ....       0.000 sec  (  0.0%)
Density matrix formation    ....       0.002 sec  (  0.1%)
Total Energy calculation    ....       0.000 sec  (  0.0%)
Population analysis         ....       0.002 sec  (  0.1%)
Orbital Transformation      ....       0.003 sec  (  0.1%)
Orbital Orthonormalization  ....       0.000 sec  (  0.0%)
DIIS solution               ....       0.012 sec  (  0.4%)
SOSCF solution              ....       0.005 sec  (  0.2%)
Finished LeanSCF after   2.9 sec

Maximum memory used throughout the entire LEANSCF-calculation: 14.8 MB



-------------------------------------------------------------------------------
                          DFT DISPERSION CORRECTION                            
-------------------------------------------------------------------------------
Active option DFTDOPT                   ...         2   
Final C6-coefficient scaling factor     ...     1.250
Final VDW-radii scaling factor          ...     1.100
Damping factor alpha                    ...    20.000
-------------------------   ----------------
Dispersion correction           -0.016579734
-------------------------   ----------------


-------------------------   --------------------
FINAL SINGLE POINT ENERGY      -721.722863389554
-------------------------   --------------------


------------------------------------------------------------------------------
                              ORCA PROPERTY CALCULATIONS
------------------------------------------------------------------------------

GBWName                                 ... 0.gbw
Number of atoms                         ...     14
Number of basis functions               ...    137
Max core memory                         ...   4096 MB

Electric properties:
Dipole moment                           ... YES
Quadrupole moment                       ...  NO
Static polarizability (Dipole/Dipole)   ...  NO
Static polarizability (Dipole/Quad.)    ...  NO
Static polarizability (Quad./Quad.)     ...  NO
Static polarizability (Velocity)        ...  NO
Static hyperpolarizability              ...  NO

Atomic electric properties:
Dipole moment                           ...  NO
Quadrupole moment                       ...  NO
Static polarizability                   ...  NO

Choice of electric origin               ... Center of mass
Position of electric origin             ...    -3.715262     2.789979     0.829284

General magnetic properties:
Magnetizability                         ...  NO

EPR properties:
g-Tensor (aka g-matrix)                 ...  NO
Zero-Field splitting spin-orbit         ...  NO
Zero-field splitting spin-spin          ...  NO
Hyperfine couplings                     ...  NO (   0 nuclei)
Quadrupole couplings                    ...  NO (   0 nuclei)
Contact density                         ...  NO (   0 nuclei)

NMR properties:
Chemical shifts                         ...  NO (   0 nuclei)
Spin-rotation constants                 ...  NO (   0 nuclei)
Spin-spin couplings                     ...  NO (   0 nuclei,    0 pairs)

Choice of magnetic origin               ... GIAO
Position of magnetic origin             ...     0.000000     0.000000     0.000000

Properties with geometric perturbations:
SCF Hessian                             ...  NO
IR spectrum                             ...  NO
VCD spectrum                            ...  NO
X-ray spectroscopy properties:
SCF XES/XAS/RIXS spectra                ...  NO

SCF SOC stabilization energy            ...  NO
Diagonal Born-Oppenheimer correction    ...  NO

-------------
DIPOLE MOMENT
-------------

Method             : SCF
Type of density    : Electron Density
Multiplicity       :   1
Irrep              :   0
Energy             :  -721.7062836551111786 Eh
Basis              : AO
                                X                 Y                 Z
Electronic contribution:      0.677040375      -1.696212306       0.740993825
Nuclear contribution   :      0.281722429       1.443147509      -0.805493720
                        -----------------------------------------
Total Dipole Moment    :      0.958762804      -0.253064796      -0.064499895
                        -----------------------------------------
Magnitude (a.u.)       :      0.993694189
Magnitude (Debye)      :      2.525769903



--------------------
Rotational spectrum 
--------------------
 
Rotational constants in cm-1:             0.145620             0.039773             0.033866 
Rotational constants in MHz :          4365.585428          1192.364578          1015.290009 

Dipole components along the rotational axes: 
x,y,z [a.u.] :    -0.974040     0.092665    -0.173456 
x,y,z [Debye]:    -2.475814     0.235537    -0.440889 

 

Dipole moment calculation done in   0.0 sec 

Maximum memory used throughout the entire PROP-calculation: 8.4 MB

--------------------------------
SUGGESTED CITATIONS FOR THIS RUN
--------------------------------

Below you find a list of papers that are relevant to this ORCA run
We neither can nor want to force you to cite these papers, but we appreciate if you do
You receive ORCA, which is the product of decades of hard work by many enthusiastic individuals, for free
The only thing we kindly ask in return is that you cite our papers,
We deeply appreciate it, if you show your appreciation for ORCA by not just citing the generic ORCA reference.

Please note that relegating all ORCA citations to the supporting information does *not* help us.
SI sections are not indexed - citations you put there will not count into any citation statistics
But we need these citations in order to attract the funding resources that allow us to do what we are doing

Therefore, if you are a happy ORCA user, please consider citing a few of the papers listed below in the main body of your paper

In addition to the list printed below, the program has created the file 0.bibtex that contains the list in bibtex format
You can import this file easily into all common literature databanks and citation aid programs


List of essential papers. We consider these as the minimum necessary citations

  1. Neese, F.
     Software update: the ORCA program system, version 6.0
     WIRES Comput. Molec. Sci. 2025 15(1), e70019
     doi.org/10.1002/wcms.7019

List of papers to cite with high priority. The work reported in these papers was absolutely
necessary for this run to complete.
Our perspective: the developers of density functionals and basis sets usually get cited in chemistry papers
Good! But without the algorithms to do something with them, the functionals or basis sets would not do anything.
Hence, in our opinion, the algorithm design and method developments papers are equally worthy of getting cited

  1. Neese, F.
     An improvement of the resolution of the identity approximation for the formation of the Coulomb matrix
     J. Comp. Chem. 2003 24(14), 1740-1747
     doi.org/10.1002/jcc.10318
  2. Grimme, S.
     Semiempirical GGA-type density functional constructed with a long-range dispersion correction
     J.Comput.Chem. 2006 27(15), 1787-1799
     doi.org/10.1002/jcc.20495
  3. Neese, F.
     The SHARK Integral Generation and Digestion System
     J. Comp. Chem. 2022 44(3), 381
     doi.org/10.1002/jcc.26942

List of suggested additional citations. These are papers that are important in the 'surrounding' of 
of this run, or papers that preceded the highly important papers. If you like your results we are grateful for a citation.

  1. Neese, F.
     The ORCA program system
     WIRES Comput. Molec. Sci. 2012 2(1), 73-78
     doi.org/10.1002/wcms.81
  2. Neese, F.
     Software update: the ORCA program system, version 4.0
     WIRES Comput. Molec. Sci. 2018 8(1), 1-6
     doi.org/10.1002/wcms.1327
  3. Neese, F.; Wennmohs, F.; Becker, U.; Riplinger, C.
     The ORCA quantum chemistry program package
     J. Chem. Phys. 2020 152(22), 224108
     doi.org/10.1063/5.0004608
  4. Neese, F.
     Software update: The ORCA program system—Version 5.0
     WIRES Comput. Molec. Sci. 2022 12(1), e1606
     doi.org/10.1002/wcms.1606

List of optional additional citations

  1. Neese, F.
     Approximate second-order SCF convergence for spin unrestricted wavefunctions
     Chem. Phys. Lett. 2000 325(1-3), 93-98
     doi.org/10.1016/s0009-2614(00)00662-x

Timings for individual modules:

Sum of individual times          ...        3.430 sec (=   0.057 min)
Startup calculation              ...        0.296 sec (=   0.005 min)   8.6 %
SCF iterations                   ...        3.105 sec (=   0.052 min)  90.5 %
Property calculations            ...        0.029 sec (=   0.000 min)   0.8 %
                             ****ORCA TERMINATED NORMALLY****
TOTAL RUN TIME: 0 days 0 hours 0 minutes 3 seconds 469 msec
