
                                 *****************
                                 * O   R   C   A *
                                 *****************

                                            #,                                       
                                            ###                                      
                                            ####                                     
                                            #####                                    
                                            ######                                   
                                           ########,                                 
                                     ,,################,,,,,                         
                               ,,#################################,,                 
                          ,,##########################################,,             
                       ,#########################################, ''#####,          
                    ,#############################################,,   '####,        
                  ,##################################################,,,,####,       
                ,###########''''           ''''###############################       
              ,#####''   ,,,,##########,,,,          '''####'''          '####       
            ,##' ,,,,###########################,,,                        '##       
           ' ,,###''''                  '''############,,,                           
         ,,##''                                '''############,,,,        ,,,,,,###''
      ,#''                                            '''#######################'''  
     '                                                          ''''####''''         
             ,#######,   #######,   ,#######,      ##                                
            ,#'     '#,  ##    ##  ,#'     '#,    #''#        ,####,    ,#,          
            ##       ##  ##   ,#'  ##            #'  '#       #'       ,# #          
            ##       ##  #######   ##           ,######,      #####,      #          
            '#,     ,#'  ##    ##  '#,     ,#' ,#      #,     #,   #      #          
             '#######'   ##     ##  '#######'  #'      '#     '####' #    #          



                #########################################################
                #                        -***-                          #
                #          Department of theory and spectroscopy        #
                #                                                       #
                #                      Frank Neese                      #
                #                                                       #
                #     Directorship, Architecture, Infrastructure        #
                #                    SHARK, DRIVERS                     #
                #        Core code/Algorithms in most modules           #
                #                                                       #
                #        Max Planck Institute fuer Kohlenforschung      #
                #                Kaiser Wilhelm Platz 1                 #
                #                 D-45470 Muelheim/Ruhr                 #
                #                      Germany                          #
                #                                                       #
                #                  All rights reserved                  #
                #                        -***-                          #
                #########################################################


                         Program Version 6.1.0  -  RELEASE   -
                                (GIT: $679e74b$)
                          ($2025-06-10 18:02:51 +0200$)


 With contributions from (in alphabetic order):
[Max-Planck-Institut fuer Kohlenforschung]                               
  Daniel Aravena         : Magnetic Suceptibility                        
  Michael Atanasov       : Ab Initio Ligand Field Theory (pilot matlab implementation)
  Alexander A. Auer      : GIAO ZORA, VPT2 properties, NMR spectrum      
  Ute Becker             : All parallelization in ORCA, NUMFREQ, NUMCALC 
  Giovanni Bistoni       : ED, misc. LED, open-shell LED, HFLD           
  Dmytro Bykov           : pre 5.0 version of the SCF Hessian            
  Marcos Casanova-Páez   : Triplet and SCS-CIS(D). UHF-(DLPNO)-IP/EA/STEOM-CCSD. UHF-CVS-IP/STEOM-CCSD   
  Vijay G. Chilkuri      : MRCI spin determinant printing, contributions to CSF-ICE 
  Pauline Colinet        : FMM embedding                                 
  Dipayan Datta          : RHF DLPNO-CCSD density                        
  Achintya Kumar Dutta   : EOM-CC, STEOM-CC                              
  Nicolas Foglia         : Exact transition moments, OPA infrastructure, MCD improvements    
  Dmitry Ganyushin       : Spin-Orbit,Spin-Spin,Magnetic field MRCI      
  Miquel Garcia-Rates    : C-PCM and meta-GGA Hessian, CCSD/C-PCM, Gaussian charge scheme 
  Tiago L. C. Gouveia    : GS-ROHF, GS-ROCIS                             
  Yang Guo               : DLPNO-NEVPT2, F12-NEVPT2, CIM, IAO-localization        
  Andreas Hansen         : Spin unrestricted coupled pair/coupled cluster methods 
  Ingolf Harden          : AUTO-CI MPn and infrastructure                
  Benjamin Helmich-Paris : MC-RPA, TRAH-(SCF,CASSCF), AVAS, COSX integrals, SCF dyn. polar., MC-PDFT, srDFT 
  Lee Huntington         : MR-EOM, pCC                                   
  Robert Izsak           : Overlap fitted RIJCOSX, COSX-SCS-MP3, EOM     
  Riya Kayal             : Wick's Theorem for AUTO-CI, AUTO-CI UHF-CCSDT 
  Emily Kempfer          : AUTO-CI RHF CISDT and CCSDT, approximate NEVPT4
  Christian Kollmar      : KDIIS, OOCD, Brueckner-CCSD(T), CCSD density, CASPT2, CASPT2-K, improved NEVPT2 
  Axel Koslowski         : Symmetry handling                             
  Simone Kossmann        : meta-GGA functionals, TD-DFT gradient, OOMP2, (MP2 Hessian; deprecated post 5.0) 
  Lucas Lang             : DCDCAS, Hyperfine gauge corrections, ICE-SOC+SSC
  Marvin Lechner         : AUTO-CI (C++ implementation), FIC-MRCC        
  Spencer Leger          : CASSCF response                               
  Dagmar Lenk            : GEPOL surface, SMD, ORCA-2-JSON               
  Dimitrios Liakos       : Extrapolation schemes; Compound Job, Property file
  Dimitrios Manganas     : Further ROCIS development; embedding schemes. LFT, Crystal Embedding 
  Dimitrios Pantazis     : SARC Basis sets                               
  Anastasios Papadopoulos: AUTO-CI, single reference methods and gradients 
  Taras Petrenko         : pre 6.0 DFT Hessian and TD-DFT gradient,  ECA, NRVS 
  Petra Pikulova         : Analytic Raman intensities                    
  Peter Pinski           : DLPNO-MP2, DLPNO-MP2 Gradient                 
  Shashank Vittal Rao    : ES-AILFT, MagRelax                            
  Christoph Reimann      : Effective Core Potentials                     
  Marius Retegan         : Local ZFS, SOC                                
  Christoph Riplinger    : Optimizer, TS searches, QM/MM, DLPNO-CCSD(T), (RO)-DLPNO pert. Triples 
  Michael Roemelt        : Original ROCIS implementation, recursive CI coupling coefficients
  Masaaki Saitow         : Open-shell DLPNO-CCSD energy and density      
  Barbara Sandhoefer     : DKH picture change effects                    
  Yorick L. A. Schmerwitz: GMF and freeze-and-release deltaSCF, NEB S-IDPP initial path                    
  Kantharuban Sivalingam : CASSCF convergence/infrastructure, NEVPT2, NEVPT3, NEVPT4(SD), FIC-MRCI and CEPA variants
  Bernardo de Souza      : ESD, SOC TD-DFT                               
  Georgi L. Stoychev     : AutoAux, RI-MP2 NMR, DLPNO-MP2 response, X2C  
  Van Anh Tran           : RI-MP2 g-tensors                              
  Willem Van den Heuvel  : Paramagnetic NMR                              
  Zikuan Wang            : NOTCH, Electric field optimization            
  Frank Wennmohs         : Technical directorship and infrastructure     
  Hang Xu                : AUTO-CI-Response properties                   
                                                                         
[FACCTs GmbH]                                                            
  Markus Bursch, Nicolas Foglia, Miquel Garcia-Rates, Ingolf Harden, Hagen Neugebauer, Anastasios Papadopoulos, 
  Christoph Riplinger, Bernardo de Souza, Georgi L. Stoychev                                                    
                                                                 
  APM, various basis sets, CI-OPT, improved COSX, DLPNO-Multilevel,           
  DOCKER, DRACO, updates on ESD, Fragmentator, GOAT, IRC, LR-CPCM, L-BFGS, MBIS, meta-GGA TD-DFT gradient, ML-optimized integration grids, 
  MM, NACMEs, nearIR, NEB, NEB-TS, NL-DFT gradient (VV10), 2- and 3-layer-ONIOM, interface openCOSMO-RS, QMMM,   
  Crystal-QMMM, RESP, rigid body optimization, SF, symmetry and pop. for TD-DFT, various functionals, SOLVATOR                                   
                                                                         
[Other institutions]                                                     
  V. Asgeirsson          : NEB                                           
  Christoph Bannwarth    : sTDA-DFT, sTD-DFT, PBEh-3c, B97-3c, D3        
  Giovanni Bistoni       : ETS/NOCV, ADLD/ADEX, COVALED                  
  Martin Brehm           : Molecular dynamics                            
  Ronald Cardenas        : ETS/NOCV                                      
  Martina Colucci        : COVALED                                       
  Sebastian Ehlert       : rSCAN, r2SCAN, r2SCAN-3c, D4, dhf basis sets  
  Marvin Friede          : D4 for Fr, Ra, Ac-Lr                          
  Lars Goerigk           : TD-DFT with DH, B97 family of functionals     
  Stefan Grimme          : VdW corrections, initial TS optimization, DFT functionals, gCP, sTDA/sTD-DF 
  Waldemar Hujo          : DFT-NL                                        
  H. Jonsson             : NEB                                           
  Holger Kruse           : gCP                                           
  Marcel Mueller         : wB97X-3c, vDZP basis set                      
  Hagen Neugebauer       : wr2SCAN, Native XTB                           
  Gianluca Regni         : ADLD/ADEX                                     
  Tobias Risthaus        : pre 6.0 range-separated hybrid DFT and stability analysis
  Lukas Wittmann         : regularized MP2, r2SCAN double-hybrids, wr2SCAN        
                                                                         
We gratefully acknowledge several colleagues who have allowed us to      
interface, adapt or use parts of their codes:                            
  Ed Valeev, F. Pavosevic, A. Kumar             : LibInt (2-el integral package), F12 methods 
  Garnet Chan, S. Sharma, J. Yang, R. Olivares  : DMRG                   
  Ulf Ekstrom                                   : XCFun DFT Library      
  Mihaly Kallay                                 : mrcc  (arbitrary order and MRCC methods)
  Frank Weinhold                                : gennbo (NPA and NBO analysis)           
  Simon Mueller                                 : openCOSMO-RS                            
  Christopher J. Cramer and Donald G. Truhlar   : smd solvation model                     
  S Lehtola, MJT Oliveira, MAL Marques          : LibXC Library                           
  Liviu Ungur et al                             : ANISO software                          


 Your calculation uses the libint2 library for the computation of 2-el integrals
 For citations please refer to: http://libint.valeyev.net

 Your ORCA version has been built with support for libXC version: 7.0.0
 For citations please refer to: https://libxc.gitlab.io

 This ORCA versions uses:
   CBLAS   interface :  Fast vector & matrix operations
   LAPACKE interface :  Fast linear algebra routines
   SCALAPACK package :  Parallel linear algebra routines
   Shared memory     :  Shared parallel matrices
   BLAS/LAPACK       :  OpenBLAS 0.3.29  USE64BITINT DYNAMIC_ARCH NO_AFFINITY Haswell SINGLE_THREADED
        Core in use  :  Haswell
   Copyright (c) 2011-2014, The OpenBLAS Project


  ***********************************
  * Starting time: Wed Aug  6 21:14:39 2025
  * Host name:     debian
  * Process ID:    64026
  * Working dir.:  /home/uni/mm-project/e
  ***********************************



***************************************
The coordinates will be read from file: e-input-coordinates.xyz
***************************************


Your calculation utilizes the semiempirical GFN2-xTB method
Please cite in your paper:
Bannwarth, C.; Ehlert S.; Grimme, S. J. Chem. Theory Comput. 2019, 15, 1652.
   

================================================================================

================================================================================
                                        WARNINGS
                       Please study these warnings very carefully!
================================================================================


================================================================================
 STARTING AUTOMATIC FRAGMENTATION: 
================================================================================

WARNING: Geometry Optimization
  ===> : Switching off AutoStart
         For restart on a previous wavefunction, please use MOREAD

WARNING: Found dipole moment calculation with XTB calculation
  ===> : Switching off dipole moment calculation


================================================================================
                                       INPUT FILE
================================================================================
NAME = e.inp
|  1> ! xtb goat
|  2> 
|  3> %pal
|  4>   nprocs=9
|  5> end
|  6> 
|  7> * xyzfile 0 1 e-input-coordinates.xyz
|  8> 
|  9>                          ****END OF INPUT****
================================================================================

                       *****************************
                       * Geometry Optimization Run *
                       *****************************


                       *********************************
                       *              GOAT             *
                       * Global Optimization Algorithm *
                       *********************************

Geometry optimization settings:
Update method            Update   .... BFGS
Choice of coordinates    CoordSys .... (2022) Redundant Internals
Initial Hessian          InHess   .... Almloef's Model
Max. no of cycles        MaxIter  .... 57

Convergence Tolerances:
Energy Change            TolE     ....  5.0000e-06 Eh
Max. Gradient            TolMAXG  ....  3.0000e-04 Eh/bohr
RMS Gradient             TolRMSG  ....  1.0000e-04 Eh/bohr
Max. Displacement        TolMAXD  ....  4.0000e-03 bohr
RMS Displacement         TolRMSD  ....  2.0000e-03 bohr
Strict Convergence                .... True

------------------------------------------------------------------------------
                        ORCA OPTIMIZATION COORDINATE SETUP
------------------------------------------------------------------------------

The optimization will be done in redundant internal coordinates (2022)
Making redundant internal coordinates   ...  (2022 redundants) done
Evaluating the initial hessian          ...  (Almloef) done
Evaluating the coordinates              ...  done
Calculating the B-matrix                .... done
Calculating the G-matrix                .... done
The number of degrees of freedom        ....   81

    -----------------------------------------------------------------
                    Redundant Internal Coordinates


    -----------------------------------------------------------------
         Definition                    Initial Value    Approx d2E/dq
    -----------------------------------------------------------------
      1. B(C   1,C   0)                  1.4946         0.425410   
      2. B(O   4,C   0)                  1.3525         0.642204   
      3. B(C   5,C   1)                  1.5137         0.396635   
      4. B(H   6,C   1)                  1.0925         0.356762   
      5. B(H   7,C   1)                  1.0925         0.356781   
      6. B(C   8,C   5)                  1.5085         0.404343   
      7. B(H   9,C   5)                  1.0959         0.352426   
      8. B(H  10,C   5)                  1.0959         0.352386   
      9. B(C  11,C   8)                  1.4887         0.434701   
     10. B(O  12,C  11)                  1.2215         1.039377   
     11. B(N  13,C   8)                  1.4475         0.453047   
     12. B(N  13,H   3)                  1.0185         0.419444   
     13. B(N  13,H   2)                  1.0187         0.419023   
     14. B(H  14,O   4)                  0.9809         0.481592   
     15. B(O  15,C  11)                  1.3524         0.642485   
     16. B(O  15,H   3)                  2.1997         0.010000   
     17. B(H  16,C   8)                  1.0920         0.357458   
     18. B(O  17,C   0)                  1.2212         1.040340   
     19. B(H  18,N  13)                  2.0014         0.011338   
     20. B(H  18,O  15)                  0.9816         0.480320   
     21. A(O   4,C   0,O  17)          124.8422         0.473646   
     22. A(C   1,C   0,O  17)          124.7873         0.442318   
     23. A(C   1,C   0,O   4)          110.3703         0.405772   
     24. A(C   0,C   1,H   6)          108.6072         0.330832   
     25. A(C   0,C   1,H   7)          108.9211         0.330835   
     26. A(C   5,C   1,H   7)          110.2203         0.327031   
     27. A(H   6,C   1,H   7)          109.6594         0.289993   
     28. A(C   0,C   1,C   5)          109.2788         0.375396   
     29. A(C   5,C   1,H   6)          110.1209         0.327028   
     30. A(C   0,O   4,H  14)          112.1056         0.367490   
     31. A(C   8,C   5,H  10)          109.2734         0.327401   
     32. A(C   1,C   5,H  10)          111.2118         0.326364   
     33. A(C   8,C   5,H   9)          109.5199         0.327407   
     34. A(H   9,C   5,H  10)          106.4277         0.288876   
     35. A(C   1,C   5,H   9)          110.3267         0.326371   
     36. A(C   1,C   5,C   8)          110.0067         0.372123   
     37. A(C   5,C   8,C  11)          108.1972         0.378057   
     38. A(N  13,C   8,H  16)          110.9677         0.332391   
     39. A(C  11,C   8,H  16)          109.6301         0.332125   
     40. A(C   5,C   8,H  16)          111.4643         0.328173   
     41. A(C  11,C   8,N  13)          106.5917         0.383154   
     42. A(C   5,C   8,N  13)          109.8315         0.378373   
     43. A(C   8,C  11,O  12)          124.8272         0.443975   
     44. A(O  12,C  11,O  15)          124.8095         0.473603   
     45. A(C   8,C  11,O  15)          110.3425         0.407357   
     46. A(H   3,N  13,C   8)          109.3241         0.338420   
     47. A(H   2,N  13,C   8)          109.3725         0.338364   
     48. A(H   2,N  13,H   3)          106.4764         0.300211   
     49. A(C  11,O  15,H  18)          112.0380         0.367351   
     50. D(C   5,C   1,C   0,O   4)   -179.1138         0.013373   
     51. D(C   5,C   1,C   0,O  17)      0.7056         0.013373   
     52. D(H   6,C   1,C   0,O   4)    -58.9614         0.013373   
     53. D(H   6,C   1,C   0,O  17)    120.8581         0.013373   
     54. D(H   7,C   1,C   0,O   4)     60.4233         0.013373   
     55. D(H  14,O   4,C   0,O  17)   -179.8340         0.030421   
     56. D(H  14,O   4,C   0,C   1)     -0.0146         0.030421   
     57. D(H   9,C   5,C   1,H   7)     53.7408         0.012490   
     58. D(H   9,C   5,C   1,H   6)    174.8566         0.012490   
     59. D(H   9,C   5,C   1,C   0)    -65.9242         0.012490   
     60. D(C   8,C   5,C   1,H   7)    -67.1957         0.012490   
     61. D(C   8,C   5,C   1,H   6)     53.9201         0.012490   
     62. D(C   8,C   5,C   1,C   0)    173.1393         0.012490   
     63. D(C  11,C   8,C   5,C   1)    172.6646         0.012962   
     64. D(C  11,C   8,C   5,H   9)     51.2449         0.012962   
     65. D(N  13,C   8,C   5,H  10)    179.0425         0.012962   
     66. D(N  13,C   8,C   5,H   9)    -64.7369         0.012962   
     67. D(N  13,C   8,C   5,C   1)     56.6827         0.012962   
     68. D(C  11,C   8,C   5,H  10)    -64.9757         0.012962   
     69. D(O  15,C  11,C   8,N  13)    -35.5195         0.013949   
     70. D(O  15,C  11,C   8,C   5)   -153.5913         0.013949   
     71. D(O  12,C  11,C   8,H  16)    -93.7505         0.013949   
     72. D(O  12,C  11,C   8,N  13)    146.0706         0.013949   
     73. D(O  12,C  11,C   8,C   5)     27.9988         0.013949   
     74. D(H   3,N  13,C   8,H  16)    -56.7541         0.018779   
     75. D(H   3,N  13,C   8,C  11)     62.5590         0.018779   
     76. D(H   3,N  13,C   8,C   5)    179.5502         0.018779   
     77. D(H   2,N  13,C   8,H  16)     59.4705         0.018779   
     78. D(H   2,N  13,C   8,C  11)    178.7836         0.018779   
     79. D(H   2,N  13,C   8,C   5)    -64.2252         0.018779   
     80. D(H  18,O  15,C  11,C   8)     -0.0731         0.033620   
     81. D(H  18,O  15,C  11,O  12)    178.3371         0.033620   
    -----------------------------------------------------------------

Number of atoms                         .... 19
Number of degrees of freedom            .... 81


         *************************************************************
         *                GEOMETRY OPTIMIZATION CYCLE   1            *
         *************************************************************
---------------------------------
CARTESIAN COORDINATES (ANGSTROEM)
---------------------------------
  C    -3.459396   -0.757869   -0.230315
  C    -2.591386    0.447012   -0.060789
  H    -1.539771    2.453957    0.971298
  H     0.021689    2.907011    1.113691
  O    -4.758635   -0.393117   -0.321108
  C    -1.143304    0.012936    0.016084
  H    -2.740711    1.107641   -0.918055
  H    -2.879567    0.964954    0.856974
  C    -0.241477    1.222127    0.018187
  H    -0.969800   -0.574834    0.924566
  H    -0.878155   -0.634601   -0.827348
  C     1.151330    0.762895    0.274250
  O     1.587609   -0.339399   -0.019976
  N    -0.596319    2.097471    1.115049
  H    -4.874393    0.578869   -0.258356
  O     1.874510    1.751646    0.847285
  H    -0.283203    1.753388   -0.934963
  O    -3.052311   -1.908026   -0.282901
  H     1.344315    2.567262    0.978324

----------------------------
CARTESIAN COORDINATES (A.U.)
----------------------------
  NO LB    ZA    FRAG    MASS        X           Y           Z
   0 C   6.0000    1    12.011   -6.537311   -1.432165   -0.435232
   1 C   6.0000    1    12.011   -4.897010    0.844730   -0.114875
   2 H   1.0000    1     1.008   -2.909745    4.637307    1.835487
   3 H   1.0000    1     1.008    0.040986    5.493455    2.104571
   4 O   8.0000    1    15.999   -8.992517   -0.742883   -0.606806
   5 C   6.0000    1    12.011   -2.160531    0.024445    0.030394
   6 H   1.0000    1     1.008   -5.179193    2.093138   -1.734873
   7 H   1.0000    1     1.008   -5.441593    1.823499    1.619446
   8 C   6.0000    1    12.011   -0.456325    2.309485    0.034368
   9 H   1.0000    1     1.008   -1.832656   -1.086279    1.747177
  10 H   1.0000    1     1.008   -1.659472   -1.199222   -1.563461
  11 C   6.0000    1    12.011    2.175698    1.441663    0.518257
  12 O   8.0000    1    15.999    3.000146   -0.641371   -0.037749
  13 N   7.0000    1    14.007   -1.126880    3.963646    2.107137
  14 H   1.0000    1     1.008   -9.211268    1.093904   -0.488222
  15 O   8.0000    1    15.999    3.542311    3.310131    1.601137
  16 H   1.0000    1     1.008   -0.535176    3.313423   -1.766824
  17 O   8.0000    1    15.999   -5.768032   -3.605647   -0.534605
  18 H   1.0000    1     1.008    2.540387    4.851422    1.848764

      -----------------------------------------------------------      
     |                   =====================                   |     
     |                           x T B                           |     
     |                   =====================                   |     
     |                         S. Grimme                         |     
     |          Mulliken Center for Theoretical Chemistry        |     
     |                    University of Bonn                     |     
      -----------------------------------------------------------      

   * xtb version 6.7.1 (edcfbbe) compiled by 'albert@albert-system' on 2024-07-22

   xtb is free software: you can redistribute it and/or modify it under
   the terms of the GNU Lesser General Public License as published by
   the Free Software Foundation, either version 3 of the License, or
   (at your option) any later version.
   
   xtb is distributed in the hope that it will be useful,
   but WITHOUT ANY WARRANTY; without even the implied warranty of
   MERCHANTABILITY or FITNESS FOR A PARTICULAR PURPOSE.  See the
   GNU Lesser General Public License for more details.
   
   Cite this work as:
   * C. Bannwarth, E. Caldeweyher, S. Ehlert, A. Hansen, P. Pracht,
     J. Seibert, S. Spicher, S. Grimme, WIREs Comput. Mol. Sci., 2020, 11,
     e01493. DOI: 10.1002/wcms.1493
   
   for GFN2-xTB:
   * C. Bannwarth, S. Ehlert and S. Grimme., J. Chem. Theory Comput., 2019,
     15, 1652-1671. DOI: 10.1021/acs.jctc.8b01176
   for GFN1-xTB:
   * S. Grimme, C. Bannwarth, P. Shushkov, J. Chem. Theory Comput., 2017,
     13, 1989-2009. DOI: 10.1021/acs.jctc.7b00118
   for GFN0-xTB:
   * P. Pracht, E. Caldeweyher, S. Ehlert, S. Grimme, ChemRxiv, 2019, preprint.
     DOI: 10.26434/chemrxiv.8326202.v1
   for GFN-FF:
   * S. Spicher and S. Grimme, Angew. Chem. Int. Ed., 2020, 59, 15665-15673.
     DOI: 10.1002/anie.202004239
   
   for ALPB and GBSA implicit solvation:
   * S. Ehlert, M. Stahn, S. Spicher, S. Grimme, J. Chem. Theory Comput.,
     2021, 17, 4250-4261. DOI: 10.1021/acs.jctc.1c00471
   
   for ddCOSMO and CPCM-X implicit solvation:
   * M. Stahn, S. Ehlert, S. Grimme, J. Phys. Chem. A,
     2023, XX, XXXX-XXXX. DOI: 10.1021/acs.jpca.3c04382
   
   for DFT-D4:
   * E. Caldeweyher, C. Bannwarth and S. Grimme, J. Chem. Phys., 2017,
     147, 034112. DOI: 10.1063/1.4993215
   * E. Caldeweyher, S. Ehlert, A. Hansen, H. Neugebauer, S. Spicher,
     C. Bannwarth and S. Grimme, J. Chem. Phys., 2019, 150, 154122.
     DOI: 10.1063/1.5090222
   * E. Caldeweyher, J.-M. Mewes, S. Ehlert and S. Grimme, Phys. Chem. Chem. Phys.
     2020, 22, 8499-8512. DOI: 10.1039/D0CP00502A
   
   for sTDA-xTB:
   * S. Grimme and C. Bannwarth, J. Chem. Phys., 2016, 145, 054103.
     DOI: 10.1063/1.4959605
   
   in the mass-spec context:
   * V. Asgeirsson, C. Bauer and S. Grimme, Chem. Sci., 2017, 8, 4879.
     DOI: 10.1039/c7sc00601b
   * J. Koopman and S. Grimme, ACS Omega 2019, 4, 12, 15120-15133.
     DOI: 10.1021/acsomega.9b02011
   
   for metadynamics refer to:
   * S. Grimme, J. Chem. Theory Comput., 2019, 155, 2847-2862
     DOI: 10.1021/acs.jctc.9b00143
   
   for SPH calculations refer to:
   * S. Spicher and S. Grimme, J. Chem. Theory Comput., 2021, 17, 1701-1714
     DOI: 10.1021/acs.jctc.0c01306
   
   for ONIOM refer to:
   * C. Plett, A. Katbashev, S. Ehlert, S. Grimme, M. Bursch,
     Phys. Chem. Chem. Phys., 2023, 25, 17860-17868. DOI: 10.1039/D3CP02178E
   
   for DIPRO refer to:
   * J. Kohn, N. Gildemeister, S. Grimme, D. Fazzi, A. Hansen,
     J. Chem. Phys., 2023, just accepted.
   
   for PTB refer to:
   * S. Grimme, M. Mueller, A. Hansen, J. Chem. Phys., 2023, 158, 124111.
     DOI: 10.1063/5.0137838
   
   with help from (in alphabetical order)
   P. Atkinson, C. Bannwarth, F. Bohle, G. Brandenburg, E. Caldeweyher
   M. Checinski, S. Dohm, S. Ehlert, S. Ehrlich, I. Gerasimov, C. Hölzer
   A. Katbashev, J. Kohn, J. Koopman, C. Lavigne, S. Lehtola, F. März, M. Müller,
   F. Musil, H. Neugebauer, J. Pisarek, C. Plett, P. Pracht, F. Pultar,
   J. Seibert, P. Shushkov, S. Spicher, M. Stahn, M. Steiner, T. Strunk,
   J. Stückrath, T. Rose, and J. Unsleber
   
 * started run on 2025/08/06 at 21:14:40.157     
   ID    Z sym.   atoms
    1    6 C      1, 2, 6, 9, 12
    2    1 H      3, 4, 7, 8, 10, 11, 15, 17, 19
    3    8 O      5, 13, 16, 18
    4    7 N      14

           -------------------------------------------------
          |                Calculation Setup                |
           -------------------------------------------------

          program call               : /home/uni/orca_6_1_0/otool_xtb e_XTB.xyz --grad -c 0 -u 0 -P 9 --namespace e --input e_XTB.input.tmp --acc 0.200000
          calculation namespace      : e
          coordinate file            : e_XTB.xyz
          omp threads                :                     9


           -------------------------------------------------
          |                 G F N 2 - x T B                 |
           -------------------------------------------------

        Reference                      10.1021/acs.jctc.8b01176
      * Hamiltonian:
        H0-scaling (s, p, d)           1.850000    2.230000    2.230000
        zeta-weighting                 0.500000
      * Dispersion:
        s8                             2.700000
        a1                             0.520000
        a2                             5.000000
        s9                             5.000000
      * Repulsion:
        kExp                           1.500000    1.000000
        rExp                           1.000000
      * Coulomb:
        alpha                          2.000000
        third order                    shell-resolved
        anisotropic                    true
        a3                             3.000000
        a5                             4.000000
        cn-shift                       1.200000
        cn-exp                         4.000000
        max-rad                        5.000000


          ...................................................
          :                      SETUP                      :
          :.................................................:
          :  # basis functions                  49          :
          :  # atomic orbitals                  49          :
          :  # shells                           29          :
          :  # electrons                        58          :
          :  max. iterations                   250          :
          :  Hamiltonian                  GFN2-xTB          :
          :  restarted?                      false          :
          :  GBSA solvation                  false          :
          :  PC potential                    false          :
          :  electronic temp.          300.0000000     K    :
          :  accuracy                    0.2000000          :
          :  -> integral cutoff          0.3198970E+02      :
          :  -> integral neglect         0.2000000E-08      :
          :  -> SCF convergence          0.2000000E-06 Eh   :
          :  -> wf. convergence          0.2000000E-04 e    :
          :  Broyden damping             0.4000000          :
          :  net charge                          0          :
          :  unpaired electrons                  0          :
          ...................................................

 iter      E             dE          RMSdq      gap      omega  full diag
   1    -34.6743993 -0.346744E+02  0.484E+00    4.08       0.0  T
   2    -34.7464264 -0.720271E-01  0.249E+00    4.15       1.0  T
   3    -34.7515237 -0.509731E-02  0.145E+00    4.54       1.0  T
   4    -34.7572439 -0.572021E-02  0.211E-01    4.32       1.0  T
   5    -34.7575089 -0.265011E-03  0.830E-02    4.29       1.0  T
   6    -34.7575270 -0.180657E-04  0.262E-02    4.28       1.0  T
   7    -34.7575294 -0.238587E-05  0.993E-03    4.28       2.3  T
   8    -34.7575295 -0.113964E-06  0.385E-03    4.28       6.0  T
   9    -34.7575296 -0.950033E-07  0.134E-03    4.28      17.1  T
  10    -34.7575296 -0.373497E-08  0.679E-04    4.28      33.8  T
  11    -34.7575296 -0.340240E-08  0.205E-04    4.28     112.0  T
  12    -34.7575296 -0.127592E-09  0.109E-04    4.28     210.4  T
  13    -34.7575296 -0.643468E-10  0.238E-05    4.28     962.4  T

   *** convergence criteria satisfied after 13 iterations ***

         #    Occupation            Energy/Eh            Energy/eV
      -------------------------------------------------------------
         1        2.0000           -0.7551114             -20.5476
       ...           ...                  ...                  ...
        23        2.0000           -0.4855130             -13.2115
        24        2.0000           -0.4828429             -13.1388
        25        2.0000           -0.4788020             -13.0289
        26        2.0000           -0.4637416             -12.6191
        27        2.0000           -0.4328537             -11.7785
        28        2.0000           -0.4253923             -11.5755
        29        2.0000           -0.4102817             -11.1643 (HOMO)
        30                         -0.2529757              -6.8838 (LUMO)
        31                         -0.2516464              -6.8476
        32                         -0.0593842              -1.6159
        33                          0.0154434               0.4202
        34                          0.0482690               1.3135
       ...                                ...                  ...
        49                          0.5831336              15.8679
      -------------------------------------------------------------
                  HL-Gap            0.1573061 Eh            4.2805 eV
             Fermi-level           -0.3316287 Eh           -9.0241 eV

 SCC (total)                   0 d,  0 h,  0 min,  0.016 sec
 SCC setup                      ...        0 min,  0.000 sec (  1.693%)
 Dispersion                     ...        0 min,  0.001 sec (  3.375%)
 classical contributions        ...        0 min,  0.000 sec (  2.152%)
 integral evaluation            ...        0 min,  0.001 sec (  3.147%)
 iterations                     ...        0 min,  0.013 sec ( 78.345%)
 molecular gradient             ...        0 min,  0.002 sec ( 10.349%)
 printout                       ...        0 min,  0.000 sec (  0.766%)

         :::::::::::::::::::::::::::::::::::::::::::::::::::::
         ::                     SUMMARY                     ::
         :::::::::::::::::::::::::::::::::::::::::::::::::::::
         :: total energy             -34.445196677173 Eh    ::
         :: gradient norm              0.099483387436 Eh/a0 ::
         :: HOMO-LUMO gap              4.280516030991 eV    ::
         ::.................................................::
         :: SCC energy               -34.757515754778 Eh    ::
         :: -> isotropic ES            0.107414608491 Eh    ::
         :: -> anisotropic ES          0.011429787262 Eh    ::
         :: -> anisotropic XC          0.005299250792 Eh    ::
         :: -> dispersion             -0.013077578797 Eh    ::
         :: repulsion energy           0.312319077605 Eh    ::
         :: add. restraining           0.000000000000 Eh    ::
         :: total charge              -0.000000000000 e     ::
         :::::::::::::::::::::::::::::::::::::::::::::::::::::


Property printout bound to 'properties.out'

           -------------------------------------------------
          | TOTAL ENERGY              -34.445196677173 Eh   |
          | GRADIENT NORM               0.099483387436 Eh/α |
          | HOMO-LUMO GAP               4.280516030991 eV   |
           -------------------------------------------------

------------------------------------------------------------------------
 * finished run on 2025/08/06 at 21:14:40.183     
------------------------------------------------------------------------
 total:
 * wall-time:     0 d,  0 h,  0 min,  0.025 sec
 *  cpu-time:     0 d,  0 h,  0 min,  0.042 sec
 * ratio c/w:     1.650 speedup
 SCF:
 * wall-time:     0 d,  0 h,  0 min,  0.016 sec
 *  cpu-time:     0 d,  0 h,  0 min,  0.030 sec
 * ratio c/w:     1.870 speedup


-------------------------   --------------------
FINAL SINGLE POINT ENERGY       -34.445196677170
-------------------------   --------------------


-------------
DIPOLE MOMENT
-------------
                                X             Y             Z
Total Dipole Moment    :     -1.31400       3.67100      -0.09800
                        -----------------------------------------
Magnitude (a.u.)       :      3.90031
Magnitude (Debye)      :      9.91381


------------------
CARTESIAN GRADIENT
------------------

   1   C   :   -0.002992661    0.033590291    0.001979881
   2   C   :   -0.008417643    0.003208783    0.000583261
   3   H   :   -0.003545095    0.000295142   -0.003619769
   4   H   :    0.014959214   -0.006314809   -0.004086482
   5   O   :    0.003837216    0.004187828    0.000641041
   6   C   :   -0.001108386    0.006669242    0.001596216
   7   H   :    0.000795687   -0.001648294    0.001113029
   8   H   :    0.001727853    0.001093114    0.000005243
   9   C   :    0.010347630    0.002129975   -0.006044748
  10   H   :    0.001495996   -0.003161449    0.002374582
  11   H   :    0.002562124   -0.002455792   -0.002262276
  12   C   :   -0.035785784    0.022792857    0.006847872
  13   O   :    0.009892431   -0.043408709   -0.013686908
  14   N   :    0.016098284   -0.014426502   -0.002120075
  15   H   :   -0.001429732    0.013019783    0.000733264
  16   O   :   -0.014823591    0.013135905    0.005456371
  17   H   :   -0.000435552    0.000058515    0.010773015
  18   O   :    0.024285990   -0.042541309   -0.001046554
  19   H   :   -0.017463984    0.013775431    0.000763036

Difference to translation invariance:
           :    0.0000000000   -0.0000000000   -0.0000000000

Difference to rotation invariance:
           :    0.0000000045    0.0000000409    0.0000000152

Norm of the Cartesian gradient     ...    0.0994833874
RMS gradient                       ...    0.0131768966
MAX gradient                       ...    0.0434087093
------------------------------------------------------------------------------
                         ORCA GEOMETRY RELAXATION STEP
------------------------------------------------------------------------------

Reading the OPT-File                    .... done
Getting information on internals        .... done
Copying old internal coords+grads       .... done
Making the new internal coordinates     .... (2022 redundants) done
Validating the new internal coordinates .... (2022 redundants) done
Calculating the B-matrix                .... done
Calculating the G,G- and P matrices     .... done
Transforming gradient to internals      .... done
Projecting the internal gradient        .... done
Number of atoms                         ....  19
Number of internal coordinates          ....  81
Current Energy                          ....   -34.445196677 Eh
Current gradient norm                   ....     0.099483387 Eh/bohr
Maximum allowed component of the step   ....  0.300
Current trust radius                    ....  0.300
Evaluating the initial hessian          ....  (Almloef) done
Projecting the Hessian                  .... done
Forming the augmented Hessian           .... done
Diagonalizing the augmented Hessian     .... done
Last element of RFO vector              ....  0.894879655
Lowest eigenvalues of augmented Hessian:
 -0.028785745  0.012496114  0.012959861  0.013371612  0.013715388
Length of the computed step             ....  0.498734683
Warning: the length of the step is outside the trust region - taking restricted step instead
The input lambda is                     ....     0.011490
   iter:   5  x=   -0.002629  g=  314.158359 f(x)=     1.938150
   iter:  10  x=   -0.074478  g=    1.801473 f(x)=     0.017138
The output lambda is                    ....    -0.076152 (14 iterations)
The final length of the internal step   ....  0.300000000
Converting the step to Cartesian space:
 Initial RMS(Int)=    0.0333333333
Transforming coordinates:
 Iter   0:  RMS(Cart)=    0.0979346227 RMS(Int)=    0.6948006683
 Iter   5:  RMS(Cart)=    0.0000000355 RMS(Int)=    0.0000000240
done
Storing new coordinates                 .... done

                                .--------------------.
          ----------------------|Geometry convergence|-------------------------
          Item                value                   Tolerance       Converged
          ---------------------------------------------------------------------
          RMS gradient        0.0113961995            0.0001000000      NO
          MAX gradient        0.0482069938            0.0003000000      NO
          RMS step            0.0333333333            0.0020000000      NO
          MAX step            0.1876224391            0.0040000000      NO
          -------------------------------------------------------------------------
          ........................................................
          Max(Bonds)      0.0993      Max(Angles)    3.02
          Max(Dihed)        2.46      Max(Improp)    0.00
          ---------------------------------------------------------------------

    ---------------------------------------------------------------------------
                         Redundant Internal Coordinates
                            (Angstroem and degrees)

        Definition                    Value    dE/dq     Step     New-Value
    ----------------------------------------------------------------------------
     1. B(C   1,C   0)                1.4946 -0.020682  0.0218    1.5165   
     2. B(O   4,C   0)                1.3525  0.002236 -0.0016    1.3509   
     3. B(C   5,C   1)                1.5137 -0.014110  0.0158    1.5295   
     4. B(H   6,C   1)                1.0925 -0.001979  0.0024    1.0950   
     5. B(H   7,C   1)                1.0925  0.000067 -0.0001    1.0924   
     6. B(C   8,C   5)                1.5085 -0.022006  0.0242    1.5327   
     7. B(H   9,C   5)                1.0959  0.003901 -0.0048    1.0910   
     8. B(H  10,C   5)                1.0959  0.003812 -0.0047    1.0912   
     9. B(C  11,C   8)                1.4887 -0.026231  0.0332    1.5219   
    10. B(O  12,C  11)                1.2215  0.046004 -0.0218    1.1996   
    11. B(N  13,C   8)                1.4475 -0.011828  0.0149    1.4624   
    12. B(N  13,H   3)                1.0185  0.002121 -0.0027    1.0158   
    13. B(N  13,H   2)                1.0187  0.003897 -0.0042    1.0146   
    14. B(H  14,O   4)                0.9809  0.013118 -0.0124    0.9684   
    15. B(O  15,C  11)                1.3524  0.014200 -0.0095    1.3429   
    16. B(O  15,H   3)                2.1997 -0.020708  0.0993    2.2990   
    17. B(H  16,C   8)                1.0920 -0.009358  0.0114    1.1034   
    18. B(O  17,C   0)                1.2212  0.048207 -0.0228    1.1984   
    19. B(H  18,N  13)                2.0014 -0.013373  0.0692    2.0705   
    20. B(H  18,O  15)                0.9816  0.016463 -0.0163    0.9653   
    21. A(O   4,C   0,O  17)          124.84  0.021534   -2.35    122.50   
    22. A(C   1,C   0,O  17)          124.79  0.001316   -0.25    124.53   
    23. A(C   1,C   0,O   4)          110.37 -0.022847    2.60    112.97   
    24. A(C   0,C   1,H   6)          108.61  0.003356   -0.39    108.21   
    25. A(C   0,C   1,H   7)          108.92  0.004684   -0.65    108.27   
    26. A(C   5,C   1,H   7)          110.22  0.001211   -0.11    110.11   
    27. A(H   6,C   1,H   7)          109.66 -0.000562   -0.20    109.46   
    28. A(C   0,C   1,C   5)          109.28 -0.011019    1.56    110.84   
    29. A(C   5,C   1,H   6)          110.12  0.002348   -0.20    109.92   
    30. A(C   0,O   4,H  14)          112.11 -0.000202    0.03    112.13   
    31. A(C   8,C   5,H  10)          109.27  0.002484   -0.49    108.79   
    32. A(C   1,C   5,H  10)          111.21  0.009169   -1.27    109.94   
    33. A(C   8,C   5,H   9)          109.52  0.005891   -0.57    108.95   
    34. A(H   9,C   5,H  10)          106.43 -0.001121   -0.18    106.25   
    35. A(C   1,C   5,H   9)          110.33  0.006294   -0.64    109.69   
    36. A(C   1,C   5,C   8)          110.01 -0.021843    3.02    113.02   
    37. A(C   5,C   8,C  11)          108.20 -0.004142    0.16    108.36   
    38. A(N  13,C   8,H  16)          110.97 -0.003097    0.19    111.16   
    39. A(C  11,C   8,H  16)          109.63  0.003031   -0.98    108.65   
    40. A(C   5,C   8,H  16)          111.46  0.006233   -1.10    110.36   
    41. A(C  11,C   8,N  13)          106.59  0.007576    0.53    107.12   
    42. A(C   5,C   8,N  13)          109.83 -0.009559    1.27    111.10   
    43. A(C   8,C  11,O  12)          124.83 -0.002606   -0.45    124.37   
    44. A(O  12,C  11,O  15)          124.81  0.014013   -2.17    122.64   
    45. A(C   8,C  11,O  15)          110.34 -0.011490    2.65    112.99   
    46. A(H   3,N  13,C   8)          109.32  0.002674    0.42    109.75   
    47. A(H   2,N  13,C   8)          109.37 -0.006421    0.85    110.23   
    48. A(H   2,N  13,H   3)          106.48 -0.000687    0.02    106.50   
    49. A(C  11,O  15,H  18)          112.04  0.007446   -0.57    111.47   
    50. D(C   5,C   1,C   0,O   4)   -179.11  0.000038   -0.13   -179.24   
    51. D(C   5,C   1,C   0,O  17)      0.71  0.000759   -0.25      0.46   
    52. D(H   6,C   1,C   0,O   4)    -58.96 -0.001627    0.31    -58.65   
    53. D(H   6,C   1,C   0,O  17)    120.86 -0.000906    0.19    121.05   
    54. D(H   7,C   1,C   0,O   4)     60.42  0.002366   -0.54     59.89   
    55. D(H  14,O   4,C   0,O  17)   -179.83 -0.000238    0.00   -179.83   
    56. D(H  14,O   4,C   0,C   1)     -0.01  0.000440   -0.11     -0.13   
    57. D(H   9,C   5,C   1,H   7)     53.74 -0.001546    0.28     54.02   
    58. D(H   9,C   5,C   1,H   6)    174.86  0.000068   -0.18    174.68   
    59. D(H   9,C   5,C   1,C   0)    -65.92 -0.001178    0.18    -65.75   
    60. D(C   8,C   5,C   1,H   7)    -67.20  0.001239   -0.56    -67.76   
    61. D(C   8,C   5,C   1,H   6)     53.92  0.002854   -1.02     52.90   
    62. D(C   8,C   5,C   1,C   0)    173.14  0.001607   -0.66    172.47   
    63. D(C  11,C   8,C   5,C   1)    172.66 -0.000806    1.68    174.35   
    64. D(C  11,C   8,C   5,H   9)     51.24  0.001528    0.92     52.16   
    65. D(N  13,C   8,C   5,H  10)    179.04 -0.003396    0.32    179.36   
    66. D(N  13,C   8,C   5,H   9)    -64.74 -0.000009   -0.49    -65.23   
    67. D(N  13,C   8,C   5,C   1)     56.68 -0.002344    0.27     56.96   
    68. D(C  11,C   8,C   5,H  10)    -64.98 -0.001859    1.73    -63.25   
    69. D(O  15,C  11,C   8,N  13)    -35.52 -0.008664    2.46    -33.06   
    70. D(O  15,C  11,C   8,C   5)   -153.59  0.000627    0.61   -152.98   
    71. D(O  12,C  11,C   8,H  16)    -93.75 -0.003277    1.43    -92.32   
    72. D(O  12,C  11,C   8,N  13)    146.07 -0.005683    1.44    147.51   
    73. D(O  12,C  11,C   8,C   5)     28.00  0.003608   -0.41     27.58   
    74. D(H   3,N  13,C   8,H  16)    -56.75  0.000208   -0.38    -57.14   
    75. D(H   3,N  13,C   8,C  11)     62.56  0.006739   -1.14     61.41   
    76. D(H   3,N  13,C   8,C   5)    179.55  0.001105   -0.00    179.55   
    77. D(H   2,N  13,C   8,H  16)     59.47 -0.002729    0.37     59.84   
    78. D(H   2,N  13,C   8,C  11)    178.78  0.003802   -0.39    178.39   
    79. D(H   2,N  13,C   8,C   5)    -64.23 -0.001832    0.75    -63.48   
    80. D(H  18,O  15,C  11,C   8)     -0.07 -0.002116    1.09      1.01   
    81. D(H  18,O  15,C  11,O  12)    178.34 -0.005417    2.14    180.48   
    ----------------------------------------------------------------------------

Geometry step timings:
Preparation and reading OPT file:      0.000 s ( 0.905 %)
Internal coordinates            :      0.000 s ( 0.962 %)
B/P matrices and projection     :      0.000 s (27.998 %)
Hessian update/contruction      :      0.000 s ( 8.880 %)
Making the step                 :      0.001 s (41.912 %)
Converting the step to Cartesian:      0.000 s ( 3.281 %)
Storing new data                :      0.000 s ( 0.962 %)
Checking convergence            :      0.000 s ( 1.131 %)
Final printing                  :      0.000 s (13.914 %)
Total time                      :      0.002 s

Time for energy+gradient        :      0.030 s
Time for complete geometry iter :      0.032 s

         *************************************************************
         *                GEOMETRY OPTIMIZATION CYCLE   2            *
         *************************************************************
---------------------------------
CARTESIAN COORDINATES (ANGSTROEM)
---------------------------------
  C    -3.506374   -0.796159   -0.248721
  C    -2.639209    0.434252   -0.065048
  H    -1.485321    2.557058    0.996766
  H     0.083696    2.970377    1.110771
  O    -4.821009   -0.503676   -0.353822
  C    -1.161930    0.049481    0.029461
  H    -2.798145    1.096020   -0.922794
  H    -2.954462    0.941863    0.849484
  C    -0.225522    1.262856    0.031496
  H    -0.990898   -0.531519    0.936969
  H    -0.892676   -0.600709   -0.804474
  C     1.194838    0.771044    0.269712
  O     1.594009   -0.319223   -0.032124
  N    -0.552539    2.178710    1.123855
  H    -4.989124    0.448022   -0.291842
  O     1.977864    1.694271    0.850432
  H    -0.261896    1.777307   -0.943986
  O    -3.090173   -1.918589   -0.303382
  H     1.489894    2.507936    1.029144

----------------------------
CARTESIAN COORDINATES (A.U.)
----------------------------
  NO LB    ZA    FRAG    MASS        X           Y           Z
   0 C   6.0000    1    12.011   -6.626086   -1.504522   -0.470015
   1 C   6.0000    1    12.011   -4.987381    0.820618   -0.122924
   2 H   1.0000    1     1.008   -2.806849    4.832139    1.883614
   3 H   1.0000    1     1.008    0.158162    5.613199    2.099053
   4 O   8.0000    1    15.999   -9.110386   -0.951810   -0.668627
   5 C   6.0000    1    12.011   -2.195730    0.093505    0.055673
   6 H   1.0000    1     1.008   -5.287728    2.071178   -1.743828
   7 H   1.0000    1     1.008   -5.583125    1.779863    1.605292
   8 C   6.0000    1    12.011   -0.426175    2.386452    0.059518
   9 H   1.0000    1     1.008   -1.872526   -1.004426    1.770614
  10 H   1.0000    1     1.008   -1.686913   -1.135175   -1.520235
  11 C   6.0000    1    12.011    2.257917    1.457063    0.509683
  12 O   8.0000    1    15.999    3.012241   -0.603243   -0.060706
  13 N   7.0000    1    14.007   -1.044147    4.117166    2.123778
  14 H   1.0000    1     1.008   -9.428077    0.846639   -0.551501
  15 O   8.0000    1    15.999    3.737621    3.201708    1.607083
  16 H   1.0000    1     1.008   -0.494911    3.358624   -1.783875
  17 O   8.0000    1    15.999   -5.839581   -3.625608   -0.573309
  18 H   1.0000    1     1.008    2.815492    4.739312    1.944801

      -----------------------------------------------------------      
     |                   =====================                   |     
     |                           x T B                           |     
     |                   =====================                   |     
     |                         S. Grimme                         |     
     |          Mulliken Center for Theoretical Chemistry        |     
     |                    University of Bonn                     |     
      -----------------------------------------------------------      

   * xtb version 6.7.1 (edcfbbe) compiled by 'albert@albert-system' on 2024-07-22

   xtb is free software: you can redistribute it and/or modify it under
   the terms of the GNU Lesser General Public License as published by
   the Free Software Foundation, either version 3 of the License, or
   (at your option) any later version.
   
   xtb is distributed in the hope that it will be useful,
   but WITHOUT ANY WARRANTY; without even the implied warranty of
   MERCHANTABILITY or FITNESS FOR A PARTICULAR PURPOSE.  See the
   GNU Lesser General Public License for more details.
   
   Cite this work as:
   * C. Bannwarth, E. Caldeweyher, S. Ehlert, A. Hansen, P. Pracht,
     J. Seibert, S. Spicher, S. Grimme, WIREs Comput. Mol. Sci., 2020, 11,
     e01493. DOI: 10.1002/wcms.1493
   
   for GFN2-xTB:
   * C. Bannwarth, S. Ehlert and S. Grimme., J. Chem. Theory Comput., 2019,
     15, 1652-1671. DOI: 10.1021/acs.jctc.8b01176
   for GFN1-xTB:
   * S. Grimme, C. Bannwarth, P. Shushkov, J. Chem. Theory Comput., 2017,
     13, 1989-2009. DOI: 10.1021/acs.jctc.7b00118
   for GFN0-xTB:
   * P. Pracht, E. Caldeweyher, S. Ehlert, S. Grimme, ChemRxiv, 2019, preprint.
     DOI: 10.26434/chemrxiv.8326202.v1
   for GFN-FF:
   * S. Spicher and S. Grimme, Angew. Chem. Int. Ed., 2020, 59, 15665-15673.
     DOI: 10.1002/anie.202004239
   
   for ALPB and GBSA implicit solvation:
   * S. Ehlert, M. Stahn, S. Spicher, S. Grimme, J. Chem. Theory Comput.,
     2021, 17, 4250-4261. DOI: 10.1021/acs.jctc.1c00471
   
   for ddCOSMO and CPCM-X implicit solvation:
   * M. Stahn, S. Ehlert, S. Grimme, J. Phys. Chem. A,
     2023, XX, XXXX-XXXX. DOI: 10.1021/acs.jpca.3c04382
   
   for DFT-D4:
   * E. Caldeweyher, C. Bannwarth and S. Grimme, J. Chem. Phys., 2017,
     147, 034112. DOI: 10.1063/1.4993215
   * E. Caldeweyher, S. Ehlert, A. Hansen, H. Neugebauer, S. Spicher,
     C. Bannwarth and S. Grimme, J. Chem. Phys., 2019, 150, 154122.
     DOI: 10.1063/1.5090222
   * E. Caldeweyher, J.-M. Mewes, S. Ehlert and S. Grimme, Phys. Chem. Chem. Phys.
     2020, 22, 8499-8512. DOI: 10.1039/D0CP00502A
   
   for sTDA-xTB:
   * S. Grimme and C. Bannwarth, J. Chem. Phys., 2016, 145, 054103.
     DOI: 10.1063/1.4959605
   
   in the mass-spec context:
   * V. Asgeirsson, C. Bauer and S. Grimme, Chem. Sci., 2017, 8, 4879.
     DOI: 10.1039/c7sc00601b
   * J. Koopman and S. Grimme, ACS Omega 2019, 4, 12, 15120-15133.
     DOI: 10.1021/acsomega.9b02011
   
   for metadynamics refer to:
   * S. Grimme, J. Chem. Theory Comput., 2019, 155, 2847-2862
     DOI: 10.1021/acs.jctc.9b00143
   
   for SPH calculations refer to:
   * S. Spicher and S. Grimme, J. Chem. Theory Comput., 2021, 17, 1701-1714
     DOI: 10.1021/acs.jctc.0c01306
   
   for ONIOM refer to:
   * C. Plett, A. Katbashev, S. Ehlert, S. Grimme, M. Bursch,
     Phys. Chem. Chem. Phys., 2023, 25, 17860-17868. DOI: 10.1039/D3CP02178E
   
   for DIPRO refer to:
   * J. Kohn, N. Gildemeister, S. Grimme, D. Fazzi, A. Hansen,
     J. Chem. Phys., 2023, just accepted.
   
   for PTB refer to:
   * S. Grimme, M. Mueller, A. Hansen, J. Chem. Phys., 2023, 158, 124111.
     DOI: 10.1063/5.0137838
   
   with help from (in alphabetical order)
   P. Atkinson, C. Bannwarth, F. Bohle, G. Brandenburg, E. Caldeweyher
   M. Checinski, S. Dohm, S. Ehlert, S. Ehrlich, I. Gerasimov, C. Hölzer
   A. Katbashev, J. Kohn, J. Koopman, C. Lavigne, S. Lehtola, F. März, M. Müller,
   F. Musil, H. Neugebauer, J. Pisarek, C. Plett, P. Pracht, F. Pultar,
   J. Seibert, P. Shushkov, S. Spicher, M. Stahn, M. Steiner, T. Strunk,
   J. Stückrath, T. Rose, and J. Unsleber
   
 * started run on 2025/08/06 at 21:14:40.190     
   ID    Z sym.   atoms
    1    6 C      1, 2, 6, 9, 12
    2    1 H      3, 4, 7, 8, 10, 11, 15, 17, 19
    3    8 O      5, 13, 16, 18
    4    7 N      14

           -------------------------------------------------
          |                Calculation Setup                |
           -------------------------------------------------

          program call               : /home/uni/orca_6_1_0/otool_xtb e_XTB.xyz --grad -c 0 -u 0 -P 9 --namespace e --input e_XTB.input.tmp --acc 0.200000
          calculation namespace      : e
          coordinate file            : e_XTB.xyz
          omp threads                :                     9


           -------------------------------------------------
          |                 G F N 2 - x T B                 |
           -------------------------------------------------

        Reference                      10.1021/acs.jctc.8b01176
      * Hamiltonian:
        H0-scaling (s, p, d)           1.850000    2.230000    2.230000
        zeta-weighting                 0.500000
      * Dispersion:
        s8                             2.700000
        a1                             0.520000
        a2                             5.000000
        s9                             5.000000
      * Repulsion:
        kExp                           1.500000    1.000000
        rExp                           1.000000
      * Coulomb:
        alpha                          2.000000
        third order                    shell-resolved
        anisotropic                    true
        a3                             3.000000
        a5                             4.000000
        cn-shift                       1.200000
        cn-exp                         4.000000
        max-rad                        5.000000

q/qsh data taken from xtbrestart
CAMM data taken from xtbrestart

          ...................................................
          :                      SETUP                      :
          :.................................................:
          :  # basis functions                  49          :
          :  # atomic orbitals                  49          :
          :  # shells                           29          :
          :  # electrons                        58          :
          :  max. iterations                   250          :
          :  Hamiltonian                  GFN2-xTB          :
          :  restarted?                       true          :
          :  GBSA solvation                  false          :
          :  PC potential                    false          :
          :  electronic temp.          300.0000000     K    :
          :  accuracy                    0.2000000          :
          :  -> integral cutoff          0.3198970E+02      :
          :  -> integral neglect         0.2000000E-08      :
          :  -> SCF convergence          0.2000000E-06 Eh   :
          :  -> wf. convergence          0.2000000E-04 e    :
          :  Broyden damping             0.4000000          :
          :  net charge                          0          :
          :  unpaired electrons                  0          :
          ...................................................

 iter      E             dE          RMSdq      gap      omega  full diag
   1    -34.7788298 -0.347788E+02  0.323E-01    4.50       0.0  T
   2    -34.7789416 -0.111818E-03  0.203E-01    4.44       1.0  T
   3    -34.7789421 -0.475251E-06  0.377E-02    4.42       1.0  T
   4    -34.7789536 -0.115375E-04  0.127E-02    4.42       1.8  T
   5    -34.7789541 -0.479137E-06  0.590E-03    4.42       3.9  T
   6    -34.7789542 -0.539366E-07  0.225E-03    4.43      10.2  T
   7    -34.7789542 -0.996254E-08  0.800E-04    4.42      28.7  T
   8    -34.7789542 -0.156797E-08  0.231E-04    4.42      99.4  T
   9    -34.7789542 -0.281851E-09  0.112E-04    4.42     204.9  T
  10    -34.7789542 -0.265459E-10  0.260E-05    4.42     883.5  T

   *** convergence criteria satisfied after 10 iterations ***

         #    Occupation            Energy/Eh            Energy/eV
      -------------------------------------------------------------
         1        2.0000           -0.7548955             -20.5418
       ...           ...                  ...                  ...
        23        2.0000           -0.4847520             -13.1908
        24        2.0000           -0.4830984             -13.1458
        25        2.0000           -0.4790833             -13.0365
        26        2.0000           -0.4623775             -12.5819
        27        2.0000           -0.4327562             -11.7759
        28        2.0000           -0.4253005             -11.5730
        29        2.0000           -0.4079192             -11.1000 (HOMO)
        30                         -0.2453139              -6.6753 (LUMO)
        31                         -0.2440348              -6.6405
        32                         -0.0418133              -1.1378
        33                          0.0166695               0.4536
        34                          0.0398846               1.0853
       ...                                ...                  ...
        49                          0.6386474              17.3785
      -------------------------------------------------------------
                  HL-Gap            0.1626053 Eh            4.4247 eV
             Fermi-level           -0.3266165 Eh           -8.8877 eV

 SCC (total)                   0 d,  0 h,  0 min,  0.013 sec
 SCC setup                      ...        0 min,  0.000 sec (  0.707%)
 Dispersion                     ...        0 min,  0.001 sec (  5.170%)
 classical contributions        ...        0 min,  0.000 sec (  0.291%)
 integral evaluation            ...        0 min,  0.000 sec (  3.510%)
 iterations                     ...        0 min,  0.010 sec ( 79.220%)
 molecular gradient             ...        0 min,  0.001 sec ( 10.048%)
 printout                       ...        0 min,  0.000 sec (  0.929%)

         :::::::::::::::::::::::::::::::::::::::::::::::::::::
         ::                     SUMMARY                     ::
         :::::::::::::::::::::::::::::::::::::::::::::::::::::
         :: total energy             -34.459666048288 Eh    ::
         :: gradient norm              0.034147628046 Eh/a0 ::
         :: HOMO-LUMO gap              4.424715033782 eV    ::
         ::.................................................::
         :: SCC energy               -34.778943460815 Eh    ::
         :: -> isotropic ES            0.104339407668 Eh    ::
         :: -> anisotropic ES          0.010608858842 Eh    ::
         :: -> anisotropic XC          0.004796924069 Eh    ::
         :: -> dispersion             -0.012868870418 Eh    ::
         :: repulsion energy           0.319277412527 Eh    ::
         :: add. restraining           0.000000000000 Eh    ::
         :: total charge              -0.000000000000 e     ::
         :::::::::::::::::::::::::::::::::::::::::::::::::::::


Property printout bound to 'properties.out'

           -------------------------------------------------
          | TOTAL ENERGY              -34.459666048288 Eh   |
          | GRADIENT NORM               0.034147628046 Eh/α |
          | HOMO-LUMO GAP               4.424715033782 eV   |
           -------------------------------------------------

------------------------------------------------------------------------
 * finished run on 2025/08/06 at 21:14:40.209     
------------------------------------------------------------------------
 total:
 * wall-time:     0 d,  0 h,  0 min,  0.019 sec
 *  cpu-time:     0 d,  0 h,  0 min,  0.033 sec
 * ratio c/w:     1.723 speedup
 SCF:
 * wall-time:     0 d,  0 h,  0 min,  0.013 sec
 *  cpu-time:     0 d,  0 h,  0 min,  0.024 sec
 * ratio c/w:     1.901 speedup


-------------------------   --------------------
FINAL SINGLE POINT ENERGY       -34.459666048290
-------------------------   --------------------


-------------
DIPOLE MOMENT
-------------
                                X             Y             Z
Total Dipole Moment    :     -1.26500       3.60800      -0.05200
                        -----------------------------------------
Magnitude (a.u.)       :      3.82369
Magnitude (Debye)      :      9.71904


------------------
CARTESIAN GRADIENT
------------------

   1   C   :   -0.002700835    0.006680899    0.000537648
   2   C   :   -0.006450205    0.001413163    0.001262080
   3   H   :   -0.000213468    0.001126848   -0.001580855
   4   H   :    0.008937128   -0.006046619   -0.001519461
   5   O   :   -0.000887125    0.002313800   -0.000039703
   6   C   :    0.000270342   -0.000692378   -0.000198274
   7   H   :    0.000617656   -0.000670380   -0.000308453
   8   H   :    0.000792320   -0.000278896    0.000051533
   9   C   :    0.007897548    0.001213291   -0.006368513
  10   H   :    0.000983512   -0.001800744   -0.000367781
  11   H   :    0.000509186   -0.001452923    0.000130272
  12   C   :   -0.010334486    0.005293006    0.001830016
  13   O   :    0.001929450   -0.011343139   -0.002543555
  14   N   :    0.008086150   -0.002697028    0.003346712
  15   H   :    0.000425315    0.002684604    0.000160296
  16   O   :   -0.009550928    0.010046710    0.004910228
  17   H   :   -0.000625244    0.002245722    0.003449698
  18   O   :    0.007858066   -0.009790219   -0.000089884
  19   H   :   -0.007544382    0.001754282   -0.002662004

Difference to translation invariance:
           :    0.0000000000    0.0000000000   -0.0000000000

Difference to rotation invariance:
           :   -0.0000000740    0.0000000168    0.0000000229

Norm of the Cartesian gradient     ...    0.0341476280
RMS gradient                       ...    0.0045229638
MAX gradient                       ...    0.0113431387
------------------------------------------------------------------------------
                         ORCA GEOMETRY RELAXATION STEP
------------------------------------------------------------------------------

Reading the OPT-File                    .... done
Getting information on internals        .... done
Copying old internal coords+grads       .... done
Making the new internal coordinates     .... (2022 redundants) done
Validating the new internal coordinates .... (2022 redundants) done
Calculating the B-matrix                .... done
Calculating the G,G- and P matrices     .... done
Transforming gradient to internals      .... done
Projecting the internal gradient        .... done
Number of atoms                         ....  19
Number of internal coordinates          ....  81
Current Energy                          ....   -34.459666048 Eh
Current gradient norm                   ....     0.034147628 Eh/bohr
Maximum allowed component of the step   ....  0.300
Current trust radius                    ....  0.300
Updating the Hessian (BFGS)             .... done
Forming the augmented Hessian           .... done
Diagonalizing the augmented Hessian     .... done
Last element of RFO vector              ....  0.906800449
Lowest eigenvalues of augmented Hessian:
 -0.008503839  0.012496373  0.012976312  0.013370175  0.013429925
Length of the computed step             ....  0.464887432
Warning: the length of the step is outside the trust region - taking restricted step instead
The input lambda is                     ....     0.011495
   iter:   5  x=   -0.014579  g=   19.341382 f(x)=     0.174202
   iter:  10  x=   -0.026706  g=    3.345317 f(x)=     0.000000
The output lambda is                    ....    -0.026706 (11 iterations)
The final length of the internal step   ....  0.300000000
Converting the step to Cartesian space:
 Initial RMS(Int)=    0.0333333333
Transforming coordinates:
 Iter   0:  RMS(Cart)=    0.0489441044 RMS(Int)=    0.9855127368
 Iter   5:  RMS(Cart)=    0.0000000719 RMS(Int)=    0.0000000573
done
Storing new coordinates                 .... done
The predicted energy change is          ....    -0.004194414
Previously predicted energy change      ....    -0.014369722
Actually observed energy change         ....    -0.014469371
Ratio of predicted to observed change   ....     1.006934633
New trust radius                        ....     0.450000000

                                .--------------------.
          ----------------------|Geometry convergence|-------------------------
          Item                value                   Tolerance       Converged
          ---------------------------------------------------------------------
          Energy change      -0.0144693711            0.0000050000      NO
          RMS gradient        0.0032606436            0.0001000000      NO
          MAX gradient        0.0119084315            0.0003000000      NO
          RMS step            0.0333333333            0.0020000000      NO
          MAX step            0.2241551914            0.0040000000      NO
          -------------------------------------------------------------------------
          ........................................................
          Max(Bonds)      0.1186      Max(Angles)    1.91
          Max(Dihed)        3.32      Max(Improp)    0.00
          ---------------------------------------------------------------------

    ---------------------------------------------------------------------------
                         Redundant Internal Coordinates
                            (Angstroem and degrees)

        Definition                    Value    dE/dq     Step     New-Value
    ----------------------------------------------------------------------------
     1. B(C   1,C   0)                1.5165 -0.004287  0.0055    1.5219   
     2. B(O   4,C   0)                1.3509  0.001522 -0.0016    1.3493   
     3. B(C   5,C   1)                1.5295  0.000828 -0.0024    1.5270   
     4. B(H   6,C   1)                1.0950 -0.000253  0.0003    1.0953   
     5. B(H   7,C   1)                1.0924 -0.000315  0.0006    1.0930   
     6. B(C   8,C   5)                1.5327  0.000393 -0.0022    1.5305   
     7. B(H   9,C   5)                1.0910  0.000807 -0.0012    1.0899   
     8. B(H  10,C   5)                1.0912  0.000892 -0.0013    1.0898   
     9. B(C  11,C   8)                1.5219 -0.007297  0.0151    1.5369   
    10. B(O  12,C  11)                1.1996  0.011591 -0.0072    1.1924   
    11. B(N  13,C   8)                1.4625  0.000263  0.0012    1.4637   
    12. B(N  13,H   3)                1.0157 -0.000106  0.0000    1.0157   
    13. B(N  13,H   2)                1.0146  0.000814 -0.0011    1.0135   
    14. B(H  14,O   4)                0.9684  0.002575 -0.0030    0.9655   
    15. B(O  15,C  11)                1.3427  0.005138 -0.0037    1.3390   
    16. B(O  15,H   3)                2.2987 -0.011908  0.1186    2.4173   
    17. B(H  16,C   8)                1.1034 -0.001982  0.0029    1.1063   
    18. B(O  17,C   0)                1.1984  0.011903 -0.0074    1.1909   
    19. B(H  18,N  13)                2.0710 -0.008165  0.0647    2.1357   
    20. B(H  18,O  15)                0.9655  0.001754 -0.0026    0.9629   
    21. A(O   4,C   0,O  17)          122.50  0.007615   -1.10    121.40   
    22. A(C   1,C   0,O  17)          124.53 -0.001420    0.20    124.74   
    23. A(C   1,C   0,O   4)          112.97 -0.006195    0.90    113.87   
    24. A(C   0,C   1,H   6)          108.21  0.000667   -0.09    108.12   
    25. A(C   0,C   1,H   7)          108.26  0.000895   -0.16    108.10   
    26. A(C   5,C   1,H   7)          110.11 -0.000092    0.05    110.16   
    27. A(H   6,C   1,H   7)          109.46  0.000454   -0.24    109.22   
    28. A(C   0,C   1,C   5)          110.84 -0.001802    0.31    111.15   
    29. A(C   5,C   1,H   6)          109.92 -0.000076    0.12    110.04   
    30. A(C   0,O   4,H  14)          112.13 -0.001610    0.32    112.45   
    31. A(C   8,C   5,H  10)          108.78  0.001399   -0.29    108.49   
    32. A(C   1,C   5,H  10)          109.94  0.001625   -0.41    109.53   
    33. A(C   8,C   5,H   9)          108.95  0.000931   -0.09    108.86   
    34. A(H   9,C   5,H  10)          106.24 -0.001573    0.53    106.78   
    35. A(C   1,C   5,H   9)          109.68  0.000768   -0.10    109.58   
    36. A(C   1,C   5,C   8)          113.02 -0.003066    0.33    113.35   
    37. A(C   5,C   8,C  11)          108.34 -0.000791   -0.29    108.04   
    38. A(N  13,C   8,H  16)          111.16 -0.001915    0.28    111.43   
    39. A(C  11,C   8,H  16)          108.65  0.002144   -0.74    107.91   
    40. A(C   5,C   8,H  16)          110.35  0.002422   -0.89    109.46   
    41. A(C  11,C   8,N  13)          107.11  0.000189    1.79    108.89   
    42. A(C   5,C   8,N  13)          111.11 -0.002000   -0.04    111.06   
    43. A(C   8,C  11,O  12)          124.39  0.000069   -0.71    123.68   
    44. A(O  12,C  11,O  15)          122.66  0.004081   -1.20    121.46   
    45. A(C   8,C  11,O  15)          112.94 -0.004163    1.91    114.85   
    46. A(H   3,N  13,C   8)          109.78  0.000678    0.39    110.16   
    47. A(H   2,N  13,C   8)          110.21 -0.001702    0.26    110.48   
    48. A(H   2,N  13,H   3)          106.48 -0.000522    0.04    106.51   
    49. A(C  11,O  15,H  18)          111.40  0.000867    0.50    111.90   
    50. D(C   5,C   1,C   0,O   4)   -179.24  0.000264   -0.35   -179.59   
    51. D(C   5,C   1,C   0,O  17)      0.46  0.000378   -0.19      0.27   
    52. D(H   6,C   1,C   0,O   4)    -58.65 -0.000500   -0.07    -58.72   
    53. D(H   6,C   1,C   0,O  17)    121.05 -0.000385    0.09    121.14   
    54. D(H   7,C   1,C   0,O   4)     59.89  0.000906   -0.49     59.40   
    55. D(H  14,O   4,C   0,O  17)   -179.83  0.000046   -0.17   -180.00   
    56. D(H  14,O   4,C   0,C   1)     -0.12  0.000128   -0.01     -0.14   
    57. D(H   9,C   5,C   1,H   7)     54.02 -0.000179   -0.03     53.99   
    58. D(H   9,C   5,C   1,H   6)    174.68  0.000277   -0.22    174.46   
    59. D(H   9,C   5,C   1,C   0)    -65.75 -0.000083   -0.05    -65.80   
    60. D(C   8,C   5,C   1,H   7)    -67.76  0.000168   -0.08    -67.84   
    61. D(C   8,C   5,C   1,H   6)     52.90  0.000624   -0.27     52.63   
    62. D(C   8,C   5,C   1,C   0)    172.47  0.000265   -0.11    172.37   
    63. D(C  11,C   8,C   5,C   1)    174.35 -0.001926    2.11    176.46   
    64. D(C  11,C   8,C   5,H   9)     52.16 -0.001513    2.07     54.23   
    65. D(N  13,C   8,C   5,H  10)    179.36  0.000492   -0.32    179.04   
    66. D(N  13,C   8,C   5,H   9)    -65.23 -0.000116    0.11    -65.12   
    67. D(N  13,C   8,C   5,C   1)     56.96 -0.000529    0.16     57.12   
    68. D(C  11,C   8,C   5,H  10)    -63.25 -0.000905    1.63    -61.61   
    69. D(O  15,C  11,C   8,N  13)    -33.03 -0.004132    2.28    -30.75   
    70. D(O  15,C  11,C   8,C   5)   -152.96 -0.001432    1.53   -151.43   
    71. D(O  12,C  11,C   8,H  16)    -92.32 -0.003598    3.32    -89.00   
    72. D(O  12,C  11,C   8,N  13)    147.52 -0.002608    2.36    149.88   
    73. D(O  12,C  11,C   8,C   5)     27.59  0.000092    1.60     29.19   
    74. D(H   3,N  13,C   8,H  16)    -57.13 -0.000022    0.56    -56.57   
    75. D(H   3,N  13,C   8,C  11)     61.42  0.001613    0.90     62.32   
    76. D(H   3,N  13,C   8,C   5)    179.56 -0.000339    1.53    181.09   
    77. D(H   2,N  13,C   8,H  16)     59.84 -0.001260    0.97     60.82   
    78. D(H   2,N  13,C   8,C  11)    178.39  0.000375    1.31    179.71   
    79. D(H   2,N  13,C   8,C   5)    -63.47 -0.001577    1.95    -61.52   
    80. D(H  18,O  15,C  11,C   8)      1.03 -0.002583    2.67      3.71   
    81. D(H  18,O  15,C  11,O  12)   -179.51 -0.004102    2.60   -176.91   
    ----------------------------------------------------------------------------

Geometry step timings:
Preparation and reading OPT file:      0.000 s ( 0.752 %)
Internal coordinates            :      0.000 s ( 0.926 %)
B/P matrices and projection     :      0.001 s (30.035 %)
Hessian update/contruction      :      0.000 s ( 9.491 %)
Making the step                 :      0.001 s (40.451 %)
Converting the step to Cartesian:      0.000 s ( 2.836 %)
Storing new data                :      0.000 s ( 0.868 %)
Checking convergence            :      0.000 s ( 1.157 %)
Final printing                  :      0.000 s (13.426 %)
Total time                      :      0.002 s

Time for energy+gradient        :      0.024 s
Time for complete geometry iter :      0.026 s

         *************************************************************
         *                GEOMETRY OPTIMIZATION CYCLE   3            *
         *************************************************************
---------------------------------
CARTESIAN COORDINATES (ANGSTROEM)
---------------------------------
  C    -3.505683   -0.800248   -0.245030
  C    -2.638942    0.438198   -0.068218
  H    -1.507367    2.560565    1.001109
  H     0.050427    3.015838    1.090712
  O    -4.823184   -0.532665   -0.359984
  C    -1.162403    0.065598    0.045172
  H    -2.795988    1.090336   -0.934032
  H    -2.967335    0.956133    0.836563
  C    -0.228405    1.278006    0.038488
  H    -0.997866   -0.500864    0.961612
  H    -0.886714   -0.587815   -0.782355
  C     1.207332    0.772178    0.247265
  O     1.588159   -0.303380   -0.099094
  N    -0.564420    2.207883    1.118193
  H    -5.013164    0.412573   -0.309532
  O     2.025250    1.644746    0.847226
  H    -0.274500    1.772755   -0.949955
  O    -3.093531   -1.916876   -0.285381
  H     1.559360    2.446363    1.109139

----------------------------
CARTESIAN COORDINATES (A.U.)
----------------------------
  NO LB    ZA    FRAG    MASS        X           Y           Z
   0 C   6.0000    1    12.011   -6.624780   -1.512250   -0.463040
   1 C   6.0000    1    12.011   -4.986878    0.828075   -0.128913
   2 H   1.0000    1     1.008   -2.848511    4.838767    1.891821
   3 H   1.0000    1     1.008    0.095292    5.699108    2.061147
   4 O   8.0000    1    15.999   -9.114496   -1.006591   -0.680272
   5 C   6.0000    1    12.011   -2.196624    0.123962    0.085362
   6 H   1.0000    1     1.008   -5.283651    2.060436   -1.765064
   7 H   1.0000    1     1.008   -5.607451    1.806829    1.580876
   8 C   6.0000    1    12.011   -0.431623    2.415081    0.072731
   9 H   1.0000    1     1.008   -1.885693   -0.946496    1.817182
  10 H   1.0000    1     1.008   -1.675647   -1.110809   -1.478436
  11 C   6.0000    1    12.011    2.281526    1.459205    0.467263
  12 O   8.0000    1    15.999    3.001186   -0.573306   -0.187261
  13 N   7.0000    1    14.007   -1.066599    4.172294    2.113079
  14 H   1.0000    1     1.008   -9.473508    0.779650   -0.584931
  15 O   8.0000    1    15.999    3.827168    3.108120    1.601025
  16 H   1.0000    1     1.008   -0.518730    3.350021   -1.795155
  17 O   8.0000    1    15.999   -5.845926   -3.622371   -0.539292
  18 H   1.0000    1     1.008    2.946763    4.622956    2.095969

      -----------------------------------------------------------      
     |                   =====================                   |     
     |                           x T B                           |     
     |                   =====================                   |     
     |                         S. Grimme                         |     
     |          Mulliken Center for Theoretical Chemistry        |     
     |                    University of Bonn                     |     
      -----------------------------------------------------------      

   * xtb version 6.7.1 (edcfbbe) compiled by 'albert@albert-system' on 2024-07-22

   xtb is free software: you can redistribute it and/or modify it under
   the terms of the GNU Lesser General Public License as published by
   the Free Software Foundation, either version 3 of the License, or
   (at your option) any later version.
   
   xtb is distributed in the hope that it will be useful,
   but WITHOUT ANY WARRANTY; without even the implied warranty of
   MERCHANTABILITY or FITNESS FOR A PARTICULAR PURPOSE.  See the
   GNU Lesser General Public License for more details.
   
   Cite this work as:
   * C. Bannwarth, E. Caldeweyher, S. Ehlert, A. Hansen, P. Pracht,
[...]
        26        2.0000           -0.4760691             -12.9545
        27        2.0000           -0.4410082             -12.0004
        28        2.0000           -0.4322553             -11.7623
        29        2.0000           -0.4126774             -11.2295 (HOMO)
        30                         -0.2487317              -6.7683 (LUMO)
        31                         -0.2415090              -6.5718
        32                         -0.0106253              -0.2891
        33                          0.0213641               0.5813
        34                          0.0345744               0.9408
       ...                                ...                  ...
        49                          0.6401646              17.4198
      -------------------------------------------------------------
                  HL-Gap            0.1639457 Eh            4.4612 eV
             Fermi-level           -0.3307046 Eh           -8.9989 eV

 SCC (total)                   0 d,  0 h,  0 min,  0.013 sec
 SCC setup                      ...        0 min,  0.000 sec (  1.569%)
 Dispersion                     ...        0 min,  0.000 sec (  3.101%)
 classical contributions        ...        0 min,  0.000 sec (  2.405%)
 integral evaluation            ...        0 min,  0.001 sec (  5.719%)
 iterations                     ...        0 min,  0.009 sec ( 72.054%)
 molecular gradient             ...        0 min,  0.002 sec ( 13.614%)
 printout                       ...        0 min,  0.000 sec (  1.347%)

         :::::::::::::::::::::::::::::::::::::::::::::::::::::
         ::                     SUMMARY                     ::
         :::::::::::::::::::::::::::::::::::::::::::::::::::::
         :: total energy             -34.482470245545 Eh    ::
         :: gradient norm              0.000189509420 Eh/a0 ::
         :: HOMO-LUMO gap              4.461189693977 eV    ::
         ::.................................................::
         :: SCC energy               -34.801537548630 Eh    ::
         :: -> isotropic ES            0.103725785183 Eh    ::
         :: -> anisotropic ES          0.002736519854 Eh    ::
         :: -> anisotropic XC          0.004251358681 Eh    ::
         :: -> dispersion             -0.012900082285 Eh    ::
         :: repulsion energy           0.319067303085 Eh    ::
         :: add. restraining           0.000000000000 Eh    ::
         :: total charge              -0.000000000000 e     ::
         :::::::::::::::::::::::::::::::::::::::::::::::::::::


Property printout bound to 'properties.out'

           -------------------------------------------------
          | TOTAL ENERGY              -34.482470245545 Eh   |
          | GRADIENT NORM               0.000189509420 Eh/α |
          | HOMO-LUMO GAP               4.461189693977 eV   |
           -------------------------------------------------

------------------------------------------------------------------------
 * finished run on 2025/08/06 at 21:14:41.349     
------------------------------------------------------------------------
 total:
 * wall-time:     0 d,  0 h,  0 min,  0.020 sec
 *  cpu-time:     0 d,  0 h,  0 min,  0.038 sec
 * ratio c/w:     1.861 speedup
 SCF:
 * wall-time:     0 d,  0 h,  0 min,  0.013 sec
 *  cpu-time:     0 d,  0 h,  0 min,  0.029 sec
 * ratio c/w:     2.184 speedup


-------------------------   --------------------
FINAL SINGLE POINT ENERGY       -34.482470245540
-------------------------   --------------------


-------------
DIPOLE MOMENT
-------------
                                X             Y             Z
Total Dipole Moment    :      0.04700       1.75000       0.06100
                        -----------------------------------------
Magnitude (a.u.)       :      1.75169
Magnitude (Debye)      :      4.45245

                                *** OPTIMIZATION RUN DONE ***

		     ------------------------------
			                   _   
			                  | |  
			  __ _  ___   __ _| |_ 
			 / _` |/ _ \ / _` | __|
			| (_| | (_) | (_| | |_ 
			 \__, |\___/ \__,_|\__|
			 __/ |                
			|___/                 

		      A Global Optimizer Algorithm
		     ------------------------------

Global parameters
-----------------
  GOAT version                               ... default
  Minimum global steps                       ... 3
  Number of base workers                     ... 4
  Split workers by                           ... 2
  Final number of workers                    ... 8
  Number of available CPUs                   ... 9
  Parameter list (worker : temperature)      ...  0 : 2903.97,  1 : 1451.98, 
                                                  2 :  725.99,  3 :  363.00, 
                                                  4 : 2903.97,  5 : 1451.98, 
                                                  6 :  725.99,  7 :  363.00 
  GradComp (mean : sigma)                    ... 1.00 : 0.50
  Number of fragments                        ... 1
  Number of atoms                            ... 19
  Flexibility parameter                      ... 0.71
  Optimizations per global step              ... 232
  Optimizations per worker                   ... 29

Filtering criteria
------------------
  RMSD                                       ... 0.125 Angs (atom. pos.)
  EnDiff                                     ... 0.100 kcal/mol
  RotConst                                   ... 1.00-2.50 %
  Maximum Conf. Energy                       ... 6.000 kcal/mol

Thermodynamics
--------------
  Ensemble temperature                       ... 298.15 K
  Degeneracy of conformers                   ... 1
  *No rotamers will be included in Gconf

------------------------------------------------------------------------------
   Iter  MinTemp     MaxEn       GradComp    NOpt   NProcs    Output
------------------------------------------------------------------------------
List of participating nodes    ...  e.goat.0.hostnames

   1     1451.98     57.00    1.00 : 0.50      29        1    e.goat.0.1.out
   0     2903.97     57.00    1.00 : 0.50      29        1    e.goat.0.0.out
   5     1451.98     57.00    1.00 : 0.50      29        1    e.goat.0.5.out
   2      725.99     57.00    1.00 : 0.50      29        1    e.goat.0.2.out
   6      725.99     57.00    1.00 : 0.50      29        1    e.goat.0.6.out
   3      363.00     57.00    1.00 : 0.50      29        1    e.goat.0.3.out
   4     2903.97     57.00    1.00 : 0.50      29        1    e.goat.0.4.out
   7      363.00     57.00    1.00 : 0.50      29        1    e.goat.0.7.out

			     GOAT Global Iter 1
		Iter    Min En       Sconf       Gconf   
		        Hartree      cal/(molK)  kcal/mol
		=========================================

		   1    -34.498259   5.064       -0.882

List of participating nodes    ...  e.goat.1.hostnames

   1     1451.98     57.00    1.00 : 0.50      29        1    e.goat.1.1.out
   0     2903.97     57.00    1.00 : 0.50      29        1    e.goat.1.0.out
   7      363.00     57.00    1.00 : 0.50      29        1    e.goat.1.7.out
   3      363.00     57.00    1.00 : 0.50      29        1    e.goat.1.3.out
   2      725.99     57.00    1.00 : 0.50      29        1    e.goat.1.2.out
   4     2903.97     57.00    1.00 : 0.50      29        1    e.goat.1.4.out
   6      725.99     57.00    1.00 : 0.50      29        1    e.goat.1.6.out
   5     1451.98     57.00    1.00 : 0.50      29        1    e.goat.1.5.out

			     GOAT Global Iter 2
		Iter    Min En       Sconf       Gconf   
		        Hartree      cal/(molK)  kcal/mol
		=========================================

		   1    -34.498259   5.064       -0.882
		   2    -34.499479   5.578       -0.643

List of participating nodes    ...  e.goat.2.hostnames

   0     2903.97     57.00    1.00 : 0.50      29        1    e.goat.2.0.out
   1     1451.98     57.00    1.00 : 0.50      29        1    e.goat.2.1.out
   7      363.00     57.00    1.00 : 0.50      29        1    e.goat.2.7.out
   4     2903.97     57.00    1.00 : 0.50      29        1    e.goat.2.4.out
   3      363.00     57.00    1.00 : 0.50      29        1    e.goat.2.3.out
   2      725.99     57.00    1.00 : 0.50      29        1    e.goat.2.2.out
   6      725.99     57.00    1.00 : 0.50      29        1    e.goat.2.6.out
   5     1451.98     57.00    1.00 : 0.50      29        1    e.goat.2.5.out

			     GOAT Global Iter 3
		Iter    Min En       Sconf       Gconf   
		        Hartree      cal/(molK)  kcal/mol
		=========================================

		   1    -34.498259   5.064       -0.882
		   2    -34.499479   5.578       -0.643
		   3    -34.499479   6.039       -0.755

		Global minimum found!
		Writing structure to e.globalminimum.xyz

		# Final ensemble info #
		Conformer     Energy     Degen.   % total   % cumul.  
		              (kcal/mol)
		------------------------------------------------------
		        0     0.000	     1      27.96      27.96
		        1     0.506	     1      11.91      39.87
		        2     0.766	     1       7.68      47.54
		        3     0.942	     1       5.70      53.24
		        4     0.947	     1       5.65      58.90
		        5     1.071	     1       4.59      63.49
		        6     1.211	     1       3.62      67.11
		        7     1.328	     1       2.97      70.08
		        8     1.458	     1       2.39      72.46
		        9     1.462	     1       2.37      74.84
		       10     1.716	     1       1.55      76.38
		       11     1.819	     1       1.30      77.68
		       12     1.903	     1       1.13      78.81
		       13     1.905	     1       1.12      79.93
		       14     1.928	     1       1.08      81.01
		       15     2.091	     1       0.82      81.83
		       16     2.097	     1       0.81      82.64
		       17     2.100	     1       0.81      83.45
		       18     2.234	     1       0.64      84.09
		       19     2.243	     1       0.63      84.73
		       20     2.248	     1       0.63      85.36
		       21     2.270	     1       0.61      85.96
		       22     2.295	     1       0.58      86.54
		       23     2.320	     1       0.56      87.10
		       24     2.331	     1       0.55      87.65
		       25     2.331	     1       0.55      88.19
		       26     2.336	     1       0.54      88.74
		       27     2.374	     1       0.51      89.24
		       28     2.390	     1       0.49      89.74
		       29     2.447	     1       0.45      90.19
		       30     2.448	     1       0.45      90.64
		       31     2.499	     1       0.41      91.05
		       32     2.525	     1       0.39      91.44
		       33     2.558	     1       0.37      91.82
		       34     2.598	     1       0.35      92.17
		       35     2.602	     1       0.35      92.51
		       36     2.602	     1       0.35      92.86
		       37     2.610	     1       0.34      93.20
		       38     2.618	     1       0.34      93.54
		       39     2.703	     1       0.29      93.83
		       40     2.719	     1       0.28      94.11
		       41     2.807	     1       0.25      94.36
		       42     2.857	     1       0.23      94.58
		       43     2.861	     1       0.22      94.81
		       44     2.919	     1       0.20      95.01
		       45     2.976	     1       0.18      95.19
		       46     3.012	     1       0.17      95.37
		       47     3.014	     1       0.17      95.54
		       48     3.015	     1       0.17      95.71
		       49     3.038	     1       0.17      95.88
		       50     3.041	     1       0.16      96.04
		       51     3.046	     1       0.16      96.21
		       52     3.064	     1       0.16      96.36
		       53     3.087	     1       0.15      96.52
		       54     3.093	     1       0.15      96.67
		       55     3.104	     1       0.15      96.82
		       56     3.108	     1       0.15      96.96
		       57     3.181	     1       0.13      97.09
		       58     3.192	     1       0.13      97.22
		       59     3.218	     1       0.12      97.34
		       60     3.238	     1       0.12      97.46
		       61     3.240	     1       0.12      97.58
		       62     3.242	     1       0.12      97.70
		       63     3.344	     1       0.10      97.80
		       64     3.387	     1       0.09      97.89
		       65     3.408	     1       0.09      97.98
		       66     3.425	     1       0.09      98.06
		       67     3.434	     1       0.09      98.15
		       68     3.444	     1       0.08      98.23
		       69     3.452	     1       0.08      98.32
		       70     3.456	     1       0.08      98.40
		       71     3.470	     1       0.08      98.48
		       72     3.475	     1       0.08      98.56
		       73     3.517	     1       0.07      98.63
		       74     3.540	     1       0.07      98.70
		       75     3.581	     1       0.07      98.77
		       76     3.595	     1       0.06      98.83
		       77     3.645	     1       0.06      98.89
		       78     3.663	     1       0.06      98.95
		       79     3.749	     1       0.05      99.00
		       80     3.795	     1       0.05      99.05
		       81     3.797	     1       0.05      99.09
		       82     3.829	     1       0.04      99.14
		       83     3.833	     1       0.04      99.18
		       84     3.842	     1       0.04      99.22
		       85     3.867	     1       0.04      99.26
		       86     3.885	     1       0.04      99.30
		       87     3.910	     1       0.04      99.34
		       88     3.913	     1       0.04      99.38
		       89     3.933	     1       0.04      99.42
		       90     3.938	     1       0.04      99.45
		       91     3.951	     1       0.04      99.49
		       92     3.969	     1       0.03      99.52
		       93     3.985	     1       0.03      99.56
		       94     4.012	     1       0.03      99.59
		       95     4.053	     1       0.03      99.62
		       96     4.093	     1       0.03      99.65
		       97     4.095	     1       0.03      99.67
		       98     4.096	     1       0.03      99.70
		       99     4.107	     1       0.03      99.73
		      100     4.173	     1       0.02      99.75
		      101     4.205	     1       0.02      99.78
		      102     4.269	     1       0.02      99.80
		      103     4.397	     1       0.02      99.81
		      104     4.405	     1       0.02      99.83
		      105     4.444	     1       0.02      99.85
		      106     4.454	     1       0.02      99.86
		      107     4.520	     1       0.01      99.87
		      108     4.727	     1       0.01      99.88
		      109     4.734	     1       0.01      99.89
		      110     4.735	     1       0.01      99.90
		      111     4.753	     1       0.01      99.91
		      112     4.773	     1       0.01      99.92
		      113     4.811	     1       0.01      99.93
		      114     4.836	     1       0.01      99.94
		      115     4.840	     1       0.01      99.94
		      116     4.862	     1       0.01      99.95
		      117     4.975	     1       0.01      99.96
		      118     5.023	     1       0.01      99.96
		      119     5.025	     1       0.01      99.97
		      120     5.077	     1       0.01      99.98
		      121     5.115	     1       0.00      99.98
		      122     5.144	     1       0.00      99.99
		      123     5.483	     1       0.00      99.99
		      124     5.588	     1       0.00      99.99
		      125     5.589	     1       0.00      99.99
		      126     5.636	     1       0.00      99.99
		      127     5.867	     1       0.00     100.00
		      128     5.872	     1       0.00     100.00
		      129     5.886	     1       0.00     100.00
		      130     5.997	     1       0.00     100.00

		Conformers below 3 kcal/mol: 46
		Lowest energy conformer    : -34.499479 Eh
		Sconf at 298.15 K          :  6.04 cal/(molK)
		Gconf at 298.15 K          : -0.76 kcal/mol

		Writing final ensemble to e.finalensemble.xyz

--------------------------------
SUGGESTED CITATIONS FOR THIS RUN
--------------------------------

Below you find a list of papers that are relevant to this ORCA run
We neither can nor want to force you to cite these papers, but we appreciate if you do
You receive ORCA, which is the product of decades of hard work by many enthusiastic individuals, for free
The only thing we kindly ask in return is that you cite our papers,
We deeply appreciate it, if you show your appreciation for ORCA by not just citing the generic ORCA reference.

Please note that relegating all ORCA citations to the supporting information does *not* help us.
SI sections are not indexed - citations you put there will not count into any citation statistics
But we need these citations in order to attract the funding resources that allow us to do what we are doing

Therefore, if you are a happy ORCA user, please consider citing a few of the papers listed below in the main body of your paper

In addition to the list printed below, the program has created the file e.bibtex that contains the list in bibtex format
You can import this file easily into all common literature databanks and citation aid programs


List of essential papers. We consider these as the minimum necessary citations

  1. Bannwarth, C.; Ehlert, S.; Grimme, S.
     GFN2-xTB—An Accurate and Broadly Parametrized Self-Consistent Tight-Binding Quantum Chemical Method with Multipole Electrostatics and Density-Dependent Dispersion Contributions
     J. Chem. Theory Comput. 2019 15(3), 1652-1671
     doi.org/10.1021/acs.jctc.8b01176
  2. Neese, F.
     Software update: the ORCA program system, version 6.0
     WIRES Comput. Molec. Sci. 2025 15(1), e70019
     doi.org/10.1002/wcms.7019
  3. de Souza, B.
     GOAT: A Global Optimization Algorithm for Molecules and Atomic Clusters
     Angewandte Chemie 2025 64(18), e202500393
     doi.org/10.1002/anie.202500393

List of papers to cite with high priority. The work reported in these papers was absolutely
necessary for this run to complete.
Our perspective: the developers of density functionals and basis sets usually get cited in chemistry papers
Good! But without the algorithms to do something with them, the functionals or basis sets would not do anything.
Hence, in our opinion, the algorithm design and method developments papers are equally worthy of getting cited

  1. Bannwarth, C.; Caldeweyher, E.; Ehlert, S.; Hansen, A.; Pracht, P.; Seibert, J.; Spicher, S.; Grimme, S.
     Extended tight-binding quantum chemistry methods
     WIRES Comput. Molec. Sci. 2020 11(2), e1493
     doi.org/10.1002/wcms.1493

List of suggested additional citations. These are papers that are important in the 'surrounding' of 
of this run, or papers that preceded the highly important papers. If you like your results we are grateful for a citation.

  1. Neese, F.
     The ORCA program system
     WIRES Comput. Molec. Sci. 2012 2(1), 73-78
     doi.org/10.1002/wcms.81
  2. Neese, F.
     Software update: the ORCA program system, version 4.0
     WIRES Comput. Molec. Sci. 2018 8(1), 1-6
     doi.org/10.1002/wcms.1327
  3. Neese, F.; Wennmohs, F.; Becker, U.; Riplinger, C.
     The ORCA quantum chemistry program package
     J. Chem. Phys. 2020 152(22), 224108
     doi.org/10.1063/5.0004608
  4. Neese, F.
     Software update: The ORCA program system—Version 5.0
     WIRES Comput. Molec. Sci. 2022 12(1), e1606
     doi.org/10.1002/wcms.1606

List of optional additional citations

  1. Neese, F.
     Approximate second-order SCF convergence for spin unrestricted wavefunctions
     Chem. Phys. Lett. 2000 325(1-3), 93-98
     doi.org/10.1016/s0009-2614(00)00662-x

Timings for individual modules:

Sum of individual times          ...      169.245 sec (=   2.821 min)
Geometry relaxation              ...        0.079 sec (=   0.001 min)   0.0 %
GOAT                             ...      168.155 sec (=   2.803 min)  99.4 %
XTB module                       ...        1.011 sec (=   0.017 min)   0.6 %
                             ****ORCA TERMINATED NORMALLY****
TOTAL RUN TIME: 0 days 0 hours 2 minutes 50 seconds 351 msec
