
                                 *****************
                                 * O   R   C   A *
                                 *****************

                                            #,                                       
                                            ###                                      
                                            ####                                     
                                            #####                                    
                                            ######                                   
                                           ########,                                 
                                     ,,################,,,,,                         
                               ,,#################################,,                 
                          ,,##########################################,,             
                       ,#########################################, ''#####,          
                    ,#############################################,,   '####,        
                  ,##################################################,,,,####,       
                ,###########''''           ''''###############################       
              ,#####''   ,,,,##########,,,,          '''####'''          '####       
            ,##' ,,,,###########################,,,                        '##       
           ' ,,###''''                  '''############,,,                           
         ,,##''                                '''############,,,,        ,,,,,,###''
      ,#''                                            '''#######################'''  
     '                                                          ''''####''''         
             ,#######,   #######,   ,#######,      ##                                
            ,#'     '#,  ##    ##  ,#'     '#,    #''#        ,####,    ,#,          
            ##       ##  ##   ,#'  ##            #'  '#       #'       ,# #          
            ##       ##  #######   ##           ,######,      #####,      #          
            '#,     ,#'  ##    ##  '#,     ,#' ,#      #,     #,   #      #          
             '#######'   ##     ##  '#######'  #'      '#     '####' #    #          



                #########################################################
                #                        -***-                          #
                #          Department of theory and spectroscopy        #
                #                                                       #
                #                      Frank Neese                      #
                #                                                       #
                #     Directorship, Architecture, Infrastructure        #
                #                    SHARK, DRIVERS                     #
                #        Core code/Algorithms in most modules           #
                #                                                       #
                #        Max Planck Institute fuer Kohlenforschung      #
                #                Kaiser Wilhelm Platz 1                 #
                #                 D-45470 Muelheim/Ruhr                 #
                #                      Germany                          #
                #                                                       #
                #                  All rights reserved                  #
                #                        -***-                          #
                #########################################################


                         Program Version 6.1.0  -  RELEASE   -
                                (GIT: $679e74b$)
                          ($2025-06-10 18:02:51 +0200$)


 With contributions from (in alphabetic order):
[Max-Planck-Institut fuer Kohlenforschung]                               
  Daniel Aravena         : Magnetic Suceptibility                        
  Michael Atanasov       : Ab Initio Ligand Field Theory (pilot matlab implementation)
  Alexander A. Auer      : GIAO ZORA, VPT2 properties, NMR spectrum      
  Ute Becker             : All parallelization in ORCA, NUMFREQ, NUMCALC 
  Giovanni Bistoni       : ED, misc. LED, open-shell LED, HFLD           
  Dmytro Bykov           : pre 5.0 version of the SCF Hessian            
  Marcos Casanova-Páez   : Triplet and SCS-CIS(D). UHF-(DLPNO)-IP/EA/STEOM-CCSD. UHF-CVS-IP/STEOM-CCSD   
  Vijay G. Chilkuri      : MRCI spin determinant printing, contributions to CSF-ICE 
  Pauline Colinet        : FMM embedding                                 
  Dipayan Datta          : RHF DLPNO-CCSD density                        
  Achintya Kumar Dutta   : EOM-CC, STEOM-CC                              
  Nicolas Foglia         : Exact transition moments, OPA infrastructure, MCD improvements    
  Dmitry Ganyushin       : Spin-Orbit,Spin-Spin,Magnetic field MRCI      
  Miquel Garcia-Rates    : C-PCM and meta-GGA Hessian, CCSD/C-PCM, Gaussian charge scheme 
  Tiago L. C. Gouveia    : GS-ROHF, GS-ROCIS                             
  Yang Guo               : DLPNO-NEVPT2, F12-NEVPT2, CIM, IAO-localization        
  Andreas Hansen         : Spin unrestricted coupled pair/coupled cluster methods 
  Ingolf Harden          : AUTO-CI MPn and infrastructure                
  Benjamin Helmich-Paris : MC-RPA, TRAH-(SCF,CASSCF), AVAS, COSX integrals, SCF dyn. polar., MC-PDFT, srDFT 
  Lee Huntington         : MR-EOM, pCC                                   
  Robert Izsak           : Overlap fitted RIJCOSX, COSX-SCS-MP3, EOM     
  Riya Kayal             : Wick's Theorem for AUTO-CI, AUTO-CI UHF-CCSDT 
  Emily Kempfer          : AUTO-CI RHF CISDT and CCSDT, approximate NEVPT4
  Christian Kollmar      : KDIIS, OOCD, Brueckner-CCSD(T), CCSD density, CASPT2, CASPT2-K, improved NEVPT2 
  Axel Koslowski         : Symmetry handling                             
  Simone Kossmann        : meta-GGA functionals, TD-DFT gradient, OOMP2, (MP2 Hessian; deprecated post 5.0) 
  Lucas Lang             : DCDCAS, Hyperfine gauge corrections, ICE-SOC+SSC
  Marvin Lechner         : AUTO-CI (C++ implementation), FIC-MRCC        
  Spencer Leger          : CASSCF response                               
  Dagmar Lenk            : GEPOL surface, SMD, ORCA-2-JSON               
  Dimitrios Liakos       : Extrapolation schemes; Compound Job, Property file
  Dimitrios Manganas     : Further ROCIS development; embedding schemes. LFT, Crystal Embedding 
  Dimitrios Pantazis     : SARC Basis sets                               
  Anastasios Papadopoulos: AUTO-CI, single reference methods and gradients 
  Taras Petrenko         : pre 6.0 DFT Hessian and TD-DFT gradient,  ECA, NRVS 
  Petra Pikulova         : Analytic Raman intensities                    
  Peter Pinski           : DLPNO-MP2, DLPNO-MP2 Gradient                 
  Shashank Vittal Rao    : ES-AILFT, MagRelax                            
  Christoph Reimann      : Effective Core Potentials                     
  Marius Retegan         : Local ZFS, SOC                                
  Christoph Riplinger    : Optimizer, TS searches, QM/MM, DLPNO-CCSD(T), (RO)-DLPNO pert. Triples 
  Michael Roemelt        : Original ROCIS implementation, recursive CI coupling coefficients
  Masaaki Saitow         : Open-shell DLPNO-CCSD energy and density      
  Barbara Sandhoefer     : DKH picture change effects                    
  Yorick L. A. Schmerwitz: GMF and freeze-and-release deltaSCF, NEB S-IDPP initial path                    
  Kantharuban Sivalingam : CASSCF convergence/infrastructure, NEVPT2, NEVPT3, NEVPT4(SD), FIC-MRCI and CEPA variants
  Bernardo de Souza      : ESD, SOC TD-DFT                               
  Georgi L. Stoychev     : AutoAux, RI-MP2 NMR, DLPNO-MP2 response, X2C  
  Van Anh Tran           : RI-MP2 g-tensors                              
  Willem Van den Heuvel  : Paramagnetic NMR                              
  Zikuan Wang            : NOTCH, Electric field optimization            
  Frank Wennmohs         : Technical directorship and infrastructure     
  Hang Xu                : AUTO-CI-Response properties                   
                                                                         
[FACCTs GmbH]                                                            
  Markus Bursch, Nicolas Foglia, Miquel Garcia-Rates, Ingolf Harden, Hagen Neugebauer, Anastasios Papadopoulos, 
  Christoph Riplinger, Bernardo de Souza, Georgi L. Stoychev                                                    
                                                                 
  APM, various basis sets, CI-OPT, improved COSX, DLPNO-Multilevel,           
  DOCKER, DRACO, updates on ESD, Fragmentator, GOAT, IRC, LR-CPCM, L-BFGS, MBIS, meta-GGA TD-DFT gradient, ML-optimized integration grids, 
  MM, NACMEs, nearIR, NEB, NEB-TS, NL-DFT gradient (VV10), 2- and 3-layer-ONIOM, interface openCOSMO-RS, QMMM,   
  Crystal-QMMM, RESP, rigid body optimization, SF, symmetry and pop. for TD-DFT, various functionals, SOLVATOR                                   
                                                                         
[Other institutions]                                                     
  V. Asgeirsson          : NEB                                           
  Christoph Bannwarth    : sTDA-DFT, sTD-DFT, PBEh-3c, B97-3c, D3        
  Giovanni Bistoni       : ETS/NOCV, ADLD/ADEX, COVALED                  
  Martin Brehm           : Molecular dynamics                            
  Ronald Cardenas        : ETS/NOCV                                      
  Martina Colucci        : COVALED                                       
  Sebastian Ehlert       : rSCAN, r2SCAN, r2SCAN-3c, D4, dhf basis sets  
  Marvin Friede          : D4 for Fr, Ra, Ac-Lr                          
  Lars Goerigk           : TD-DFT with DH, B97 family of functionals     
  Stefan Grimme          : VdW corrections, initial TS optimization, DFT functionals, gCP, sTDA/sTD-DF 
  Waldemar Hujo          : DFT-NL                                        
  H. Jonsson             : NEB                                           
  Holger Kruse           : gCP                                           
  Marcel Mueller         : wB97X-3c, vDZP basis set                      
  Hagen Neugebauer       : wr2SCAN, Native XTB                           
  Gianluca Regni         : ADLD/ADEX                                     
  Tobias Risthaus        : pre 6.0 range-separated hybrid DFT and stability analysis
  Lukas Wittmann         : regularized MP2, r2SCAN double-hybrids, wr2SCAN        
                                                                         
We gratefully acknowledge several colleagues who have allowed us to      
interface, adapt or use parts of their codes:                            
  Ed Valeev, F. Pavosevic, A. Kumar             : LibInt (2-el integral package), F12 methods 
  Garnet Chan, S. Sharma, J. Yang, R. Olivares  : DMRG                   
  Ulf Ekstrom                                   : XCFun DFT Library      
  Mihaly Kallay                                 : mrcc  (arbitrary order and MRCC methods)
  Frank Weinhold                                : gennbo (NPA and NBO analysis)           
  Simon Mueller                                 : openCOSMO-RS                            
  Christopher J. Cramer and Donald G. Truhlar   : smd solvation model                     
  S Lehtola, MJT Oliveira, MAL Marques          : LibXC Library                           
  Liviu Ungur et al                             : ANISO software                          


 Your calculation uses the libint2 library for the computation of 2-el integrals
 For citations please refer to: http://libint.valeyev.net

 Your ORCA version has been built with support for libXC version: 7.0.0
 For citations please refer to: https://libxc.gitlab.io

 This ORCA versions uses:
   CBLAS   interface :  Fast vector & matrix operations
   LAPACKE interface :  Fast linear algebra routines
   SCALAPACK package :  Parallel linear algebra routines
   Shared memory     :  Shared parallel matrices
   BLAS/LAPACK       :  OpenBLAS 0.3.29  USE64BITINT DYNAMIC_ARCH NO_AFFINITY Haswell SINGLE_THREADED
        Core in use  :  Haswell
   Copyright (c) 2011-2014, The OpenBLAS Project


  ***********************************
  * Starting time: Thu Aug 14 12:15:50 2025
  * Host name:     CHEMLAB02
  * Process ID:    1770026
  * Working dir.:  /home/vivek/mm-project/vivek/MP2/g/4
  ***********************************



***************************************
The coordinates will be read from file: /home/vivek/mm-project/vivek/xtb-goat/g/G_CONF/4.xyz
***************************************


================================================================================

----- Orbital basis set information -----
Your calculation utilizes the basis: 6-31G**
   H-He, Li-Ne : W. J. Hehre, R. Ditchfield and J.A. Pople, J. Chem. Phys. 56, 2257 (1972).
                 Note: He and Ne are unpublished basis sets taken from the Gaussian program.
                 Note: Li and B from J. D. Dill and J. A. Pople, J. Chem. Phys. 62, 2921 (1975).
   Na - Ar     : M. M. Francl, W. J. Pietro, W. J. Hehre, J. S. Binkley, M. S. Gordon, 
                 D. J. DeFrees and J. A. Pople, J. Chem. Phys. 77, 3654 (1982).
   K - Zn      : V. A. Rassolov, J. A. Pople, M. A. Ratner, and T. L. Windus, J. Chem. Phys. 109, 1223 (1998).

================================================================================
                                        WARNINGS
                       Please study these warnings very carefully!
================================================================================


WARNING: No MP2 level density has been requested!
         To calculate MP2 level properties use
         %mp2 Density relaxed end
         or
         %mp2 Density unrelaxed end

WARNING: Post HF methods need fully converged wavefunctions
  ===> : Setting SCFConvForced true
         You can overwrite this default with %scf ConvForced false 


================================================================================
                                       INPUT FILE
================================================================================
NAME = 4.inp
|  1> ! MP2 6-31G** 
|  2> 
|  3> * xyzfile 0 1 /home/vivek/mm-project/vivek/xtb-goat/g/G_CONF/4.xyz
|  4> 
|  5>                          ****END OF INPUT****
================================================================================

                       ****************************
                       * Single Point Calculation *
                       ****************************

---------------------------------
CARTESIAN COORDINATES (ANGSTROEM)
---------------------------------
  C     -4.926772   -1.269974   -0.160589
  C     -4.390950   -2.446882    0.626626
  H     -5.918950    0.482922    0.142048
  H     -6.122126   -0.612994    1.352980
  N     -5.453846   -0.227198    0.695472
  O     -5.051718   -2.649616    1.771415
  H     -4.107971   -0.863762   -0.760627
  H     -5.668527   -1.702367   -0.859804
  H     -4.679734   -3.413310    2.240019
  O     -3.503694   -3.166507    0.256688

----------------------------
CARTESIAN COORDINATES (A.U.)
----------------------------
  NO LB      ZA    FRAG     MASS         X           Y           Z
   0 C     6.0000    0    12.011   -9.310251   -2.399902   -0.303469
   1 C     6.0000    0    12.011   -8.297693   -4.623936    1.184152
   2 H     1.0000    0     1.008  -11.185194    0.912591    0.268432
   3 H     1.0000    0     1.008  -11.569141   -1.158390    2.556762
   4 N     7.0000    0    14.007  -10.306276   -0.429341    1.314252
   5 O     8.0000    0    15.999   -9.546363   -5.007048    3.347489
   6 H     1.0000    0     1.008   -7.762940   -1.632273   -1.437377
   7 H     1.0000    0     1.008  -10.711964   -3.217007   -1.624795
   8 H     1.0000    0     1.008   -8.843416   -6.450220    4.233022
   9 O     8.0000    0    15.999   -6.621021   -5.983830    0.485069

--------------------------------
INTERNAL COORDINATES (ANGSTROEM)
--------------------------------
 C      0   0   0     0.000000000000     0.00000000     0.00000000
 C      1   0   0     1.513910728489     0.00000000     0.00000000
 H      1   2   0     2.036823252426   139.83370475     0.00000000
 H      3   1   2     1.645803396808    66.19629926   338.25054573
 N      3   1   2     1.013346041480    41.79677347    11.33842708
 O      2   1   3     1.337256765153   112.83744760    26.05957271
 H      1   2   3     1.093384552179   108.00689452   126.26303628
 H      1   2   3     1.107279003563   105.18164611   240.79938553
 H      6   2   1     0.970149471144   110.08313498   179.71121385
 O      2   1   3     1.200807575365   124.55525398   203.26971285

---------------------------
INTERNAL COORDINATES (A.U.)
---------------------------
 C      0   0   0     0.000000000000     0.00000000     0.00000000
 C      1   0   0     2.860876668050     0.00000000     0.00000000
 H      1   2   0     3.849038130288   139.83370475     0.00000000
 H      3   1   2     3.110117690244    66.19629926   338.25054573
 N      3   1   2     1.914946497291    41.79677347    11.33842708
 O      2   1   3     2.527049056873   112.83744760    26.05957271
 H      1   2   3     2.066197362679   108.00689452   126.26303628
 H      1   2   3     2.092454070576   105.18164611   240.79938553
 H      6   2   1     1.833316809431   110.08313498   179.71121385
 O      2   1   3     2.269197456977   124.55525398   203.26971285

---------------------
BASIS SET INFORMATION
---------------------
There are 4 groups of distinct atoms

 Group   1 Type C   : 10s4p1d contracted to 3s2p1d pattern {631/31/1}
 Group   2 Type H   : 4s1p contracted to 2s1p pattern {31/1}
 Group   3 Type N   : 10s4p1d contracted to 3s2p1d pattern {631/31/1}
 Group   4 Type O   : 10s4p1d contracted to 3s2p1d pattern {631/31/1}

Atom   0C    basis set group =>   1
Atom   1C    basis set group =>   1
Atom   2H    basis set group =>   2
Atom   3H    basis set group =>   2
Atom   4N    basis set group =>   3
Atom   5O    basis set group =>   4
Atom   6H    basis set group =>   2
Atom   7H    basis set group =>   2
Atom   8H    basis set group =>   2
Atom   9O    basis set group =>   4
------------------------------------------------------------------------------
                             ORCA STARTUP CALCULATIONS
------------------------------------------------------------------------------
------------------------------------------------------------------------------
                   ___                                                        
                  /   \      - P O W E R E D   B Y -                         
                 /     \                                                     
                 |  |  |   _    _      __       _____    __    __             
                 |  |  |  | |  | |    /  \     |  _  \  |  |  /  |          
                  \  \/   | |  | |   /    \    | | | |  |  | /  /          
                 / \  \   | |__| |  /  /\  \   | |_| |  |  |/  /          
                |  |  |   |  __  | /  /__\  \  |    /   |      \           
                |  |  |   | |  | | |   __   |  |    \   |  |\   \          
                \     /   | |  | | |  |  |  |  | |\  \  |  | \   \       
                 \___/    |_|  |_| |__|  |__|  |_| \__\ |__|  \__/        
                                                                              
                      - O R C A' S   B I G   F R I E N D -                    
                                      &                                       
                       - I N T E G R A L  F E E D E R -                       
                                                                              
 v1 FN, 2020, v2 2021, v3 2022-2024                                           
------------------------------------------------------------------------------


----------------------
SHARK INTEGRAL PACKAGE
----------------------

Number of atoms                             ...     10
Number of basis functions                   ...     95
Number of shells                            ...     45
Maximum angular momentum                    ...      2
Integral batch strategy                     ... SHARK/LIBINT Hybrid
RI-J (if used) integral strategy            ... SPLIT-RIJ (Revised 2003 algorithm where possible)
Printlevel                                  ...      1
Contraction scheme used                     ... SEGMENTED contraction
Prescreening option                         ... SCHWARTZ
   Thresh                                   ... 1.000e-10
   Tcut                                     ... 1.000e-11
   Tpresel                                  ... 1.000e-11 
Coulomb Range Separation                    ... NOT USED
Exchange Range Separation                   ... NOT USED
Multipole approximations                    ... NOT USED
Finite Nucleus Model                        ... NOT USED
CABS basis                                  ... NOT available
Auxiliary Coulomb fitting basis             ... NOT available
Auxiliary J/K fitting basis                 ... NOT available
Auxiliary Correlation fitting basis         ... NOT available
Auxiliary 'external' fitting basis          ... NOT available

Checking pre-screening integrals            ... done (  0.0 sec) Dimension = 45
   => SHARK Basis and OBASIS are compatible. Storing Pre-screening
Shell pair information
Shell pair cut-off parameter TPreSel        ...   1.0e-11
Total number of shell pairs                 ...      1035
Shell pairs after pre-screening             ...      1000
Total number of primitive shell pairs       ...      5170
Primitive shell pairs kept                  ...      3686
          la=0 lb=0:    312 shell pairs
          la=1 lb=0:    359 shell pairs
          la=1 lb=1:    117 shell pairs
          la=2 lb=0:    123 shell pairs
          la=2 lb=1:     74 shell pairs
          la=2 lb=2:     15 shell pairs

Checking whether 4 symmetric matrices of dimension 95 fit in memory
:Max Core in MB      =   4096.00
 MB in use           =      2.62
 MB left             =   4093.38
 MB needed           =      0.14
 Data fit in memory  = YES
Calculating Nuclear repulsion               ... done (  0.0 sec) ENN=    180.629628978599 Eh

Diagonalization of the overlap matrix:
Smallest eigenvalue                        ... 4.471e-03
Time for diagonalization                   ...    0.001 sec
Threshold for overlap eigenvalues          ... 1.000e-07
Number of eigenvalues below threshold      ... 0
Time for construction of square roots      ...    0.000 sec
Total time needed                          ...    0.001 sec

-------------------
DFT GRID GENERATION
-------------------

General Integration Accuracy     IntAcc      ... 4.388
Radial Grid Type                 RadialGrid  ... OptM3 with GC (2021)
Angular Grid (max. ang.)         AngularGrid ... 4 (Lebedev-302)
Angular grid pruning method      GridPruning ... 4 (adaptive)
Weight generation scheme         WeightScheme... mBecke (2022)
Basis function cutoff            BFCut       ... 1.0000e-10
Integration weight cutoff        WCut        ... 1.0000e-14
Partially contracted basis set               ... off
Rotationally invariant grid construction     ... off
Angular grids for H and He will be reduced by one unit

Total number of grid points                  ...    46671
Total number of batches                      ...      734
Average number of points per batch           ...       63
Average number of grid points per atom       ...     4667
Grids setup in   0.1 sec
Initializing property integral containers    ... done (  0.0 sec)

SHARK setup successfully completed in   0.2 seconds

Maximum memory used throughout the entire STARTUP-calculation: 17.8 MB
-------------------------------------------------------------------------------
                                 ORCA GUESS
                   Start orbitals & Density for SCF / CASSCF
-------------------------------------------------------------------------------

------------
SCF SETTINGS
------------
Hamiltonian:
 Ab initio Hamiltonian  Method          .... Hartree-Fock(GTOs)


General Settings:
 Integral files         IntName         .... 4
 Hartree-Fock type      HFTyp           .... RHF
 Total Charge           Charge          ....    0
 Multiplicity           Mult            ....    1
 Number of Electrons    NEL             ....   40
 Basis Dimension        Dim             ....   95
 Nuclear Repulsion      ENuc            ....    180.6296289786 Eh

Convergence Acceleration:
 AO-DIIS                CNVDIIS         .... on
   Start iteration      DIISMaxIt       ....    12
   Startup error        DIISStart       ....  0.200000
   # of expansion vecs  DIISMaxEq       ....     5
   Bias factor          DIISBfac        ....   1.050
   Max. coefficient     DIISMaxC        ....  10.000
 MO-DIIS                CNVKDIIS        .... off
 Trust-Rad. Augm. Hess. CNVTRAH         .... auto
   Auto Start mean grad. ratio tolernc. ....  1.125000
   Auto Start start iteration           ....    50
   Auto Start num. interpolation iter.  ....    10
   Max. Number of Micro iterations      ....    24
   Max. Number of Macro iterations      .... Maxiter - #DIIS iter
   Number of Davidson start vectors     ....     2
   Converg. threshold    (grad. norm)   ....   5.000e-05
   Grad. Scal. Fac. for Micro threshold ....   0.100
   Minimum threshold for Micro iter.    ....   1.000e-02
   NR start threshold (gradient norm)   ....   1.000e-04
   Initial trust radius                 ....   0.400
   Minimum AH scaling param. (alpha)    ....   1.000
   Maximum AH scaling param. (alpha)    .... 1000.000
   Quad. conv. algorithm                .... NR
   White noise on init. David. guess    .... on
   Maximum white noise                  ....   0.010
   Pseudo random numbers                .... off
   Inactive MOs                         .... canonical
   Orbital update algorithm             .... Taylor
   Preconditioner                       .... Diag
   Full preconditioner red. dimension   ....   250
 SOSCF                 CNVSOSCF           .... on
   Start iteration     SOSCFMaxIt         ....   150
   Startup grad/error  SOSCFStart         ....  0.003300
   Hessian update      SOSCFHessUp        .... L-BFGS
   Autom. constraints  SOSCFAutoConstrain .... off
 Level Shifting         CNVShift        .... on
   Level shift para.    LevelShift      ....    0.2500
   Turn off err/grad.   ShiftErr        ....    0.0010
 Zerner damping         CNVZerner       .... off
 Static damping         CNVDamp         .... on
   Fraction old density DampFac         ....    0.7000
   Max. Damping (<1)    DampMax         ....    0.9800
   Min. Damping (>=0)   DampMin         ....    0.0000
   Turn off err/grad.   DampErr         ....    0.1000

SCF Procedure:
 Maximum # iterations   MaxIter         ....   125
 SCF integral mode      SCFMode         .... Direct
   Integral package                     .... SHARK and LIBINT hybrid scheme
 Reset frequency        DirectResetFreq ....    20
 Integral Threshold     Thresh          ....  1.000e-10 Eh
 Primitive CutOff       TCut            ....  1.000e-11 Eh

Convergence Tolerance:
 Convergence Check Mode ConvCheckMode   .... Total+1el-Energy
 Convergence forced     ConvForced      .... 1
 Energy Change          TolE            ....  1.000e-06 Eh
 1-El. energy change                    ....  1.000e-03 Eh
 Orbital Gradient       TolG            ....  5.000e-05
 Orbital Rotation angle TolX            ....  5.000e-05
 DIIS Error             TolErr          ....  1.000e-06

------------------------------
INITIAL GUESS: MODEL POTENTIAL
------------------------------
Loading Hartree-Fock densities                     ... done
Calculating cut-offs                               ... done
Initializing the effective Hamiltonian             ... done
Setting up the integral package (SHARK)            ... done
Starting the Coulomb interaction                   ... done (   0.0 sec)
Making the grid                                    ... done (   0.0 sec)
Mapping shells                                     ... done
Starting the XC term evaluation                    ... done (   0.0 sec)
Transforming the Hamiltonian                       ... done (   0.0 sec)
Diagonalizing the Hamiltonian                      ... done (   0.0 sec)
Back transforming the eigenvectors                 ... done (   0.0 sec)
Now organizing SCF variables                       ... done
                      ------------------
                      INITIAL GUESS DONE (   0.1 sec)
                      ------------------
             **** ENERGY FILE WAS UPDATED (4.en.tmp) ****
Finished Guess after   0.1 sec
Maximum memory used throughout the entire GUESS-calculation: 6.2 MB

-------------------------------------------------------------------------------------------
                                      ORCA LEAN-SCF
                              memory conserving SCF solver
-------------------------------------------------------------------------------------------

----------------------------------------D-I-I-S--------------------------------------------
Iteration    Energy (Eh)           Delta-E    RMSDP     MaxDP     DIISErr   Damp  Time(sec)
-------------------------------------------------------------------------------------------
               ***  Starting incremental Fock matrix formation  ***
    1    -282.5993941278986199     0.00e+00  3.63e-03  6.58e-02  2.50e-01  0.700   0.2
    2    -282.6876913811385066    -8.83e-02  2.63e-03  4.73e-02  1.54e-01  0.700   0.2
                               ***Turning on AO-DIIS***
    3    -282.7381024318205505    -5.04e-02  1.34e-03  2.11e-02  8.50e-02  0.700   0.2
    4    -282.7696298925362157    -3.15e-02  3.01e-03  4.19e-02  5.62e-02  0.000   0.2
    5    -282.8396088737524110    -7.00e-02  3.98e-04  4.27e-03  4.10e-03  0.000   0.2
                              *** Initializing SOSCF ***
---------------------------------------S-O-S-C-F--------------------------------------
Iteration    Energy (Eh)           Delta-E    RMSDP     MaxDP     MaxGrad    Time(sec)
--------------------------------------------------------------------------------------
    6    -282.8399328892567723    -3.24e-04  2.01e-04  2.11e-03  2.06e-03     0.2
               *** Restarting incremental Fock matrix formation ***
    7    -282.8400113093190384    -7.84e-05  1.27e-04  1.46e-03  1.68e-03     0.2
    8    -282.8400369660130877    -2.57e-05  1.51e-04  1.77e-03  4.85e-04     0.2
    9    -282.8400461310429819    -9.17e-06  2.68e-05  3.01e-04  2.91e-04     0.2
   10    -282.8400470107712295    -8.80e-07  8.33e-06  9.71e-05  6.91e-05     0.2
                 **** Energy Check signals convergence ****

               *****************************************************
               *                     SUCCESS                       *
               *           SCF CONVERGED AFTER  10 CYCLES          *
               *****************************************************

             **** ENERGY FILE WAS UPDATED (4.en.tmp) ****

----------------
TOTAL SCF ENERGY
----------------

Total Energy       :       -282.84004708838836 Eh           -7696.46896 eV

Components:
Nuclear Repulsion  :        180.62962897859950 Eh            4915.18209 eV
Electronic Energy  :       -463.46967606698786 Eh          -12611.65105 eV
One Electron Energy:       -744.99052543876610 Eh          -20272.22282 eV
Two Electron Energy:        281.52084937177824 Eh            7660.57177 eV

Virial components:
Potential Energy   :       -565.23776949657815 Eh          -15380.90166 eV
Kinetic Energy     :        282.39772240818979 Eh            7684.43270 eV
Virial Ratio       :          2.00156631815734

---------------
SCF CONVERGENCE
---------------

  Last Energy change         ...    8.7973e-07  Tolerance :   1.0000e-06
  Last MAX-Density change    ...    9.7137e-05  Tolerance :   1.0000e-05
  Last RMS-Density change    ...    8.3280e-06  Tolerance :   1.0000e-06
  Last DIIS Error            ...    2.0597e-03  Tolerance :   1.0000e-06
  Last Orbital Gradient      ...    6.9084e-05  Tolerance :   5.0000e-05
  Last Orbital Rotation      ...    1.1093e-04  Tolerance :   5.0000e-05


----------------
ORBITAL ENERGIES
----------------

  NO   OCC          E(Eh)            E(eV) 
   0   2.0000     -20.619837      -561.0943 
   1   2.0000     -20.551696      -559.2401 
   2   2.0000     -15.553427      -423.2303 
   3   2.0000     -11.388411      -309.8944 
   4   2.0000     -11.275552      -306.8234 
   5   2.0000      -1.471013       -40.0283 
   6   2.0000      -1.362390       -37.0725 
   7   2.0000      -1.194751       -32.5108 
   8   2.0000      -0.970515       -26.4090 
   9   2.0000      -0.830708       -22.6047 
  10   2.0000      -0.710280       -19.3277 
  11   2.0000      -0.686224       -18.6731 
  12   2.0000      -0.665019       -18.0961 
  13   2.0000      -0.639473       -17.4010 
  14   2.0000      -0.596600       -16.2343 
  15   2.0000      -0.573878       -15.6160 
  16   2.0000      -0.555447       -15.1145 
  17   2.0000      -0.480712       -13.0808 
  18   2.0000      -0.450181       -12.2501 
  19   2.0000      -0.398300       -10.8383 
  20   0.0000       0.183776         5.0008 
  21   0.0000       0.212274         5.7763 
  22   0.0000       0.249405         6.7867 
  23   0.0000       0.278622         7.5817 
  24   0.0000       0.304991         8.2992 
  25   0.0000       0.329054         8.9540 
  26   0.0000       0.404973        11.0199 
  27   0.0000       0.431521        11.7423 
  28   0.0000       0.491898        13.3852 
  29   0.0000       0.555400        15.1132 
  30   0.0000       0.754094        20.5199 
*Only the first 10 virtual orbitals were printed.

                    ********************************
                    * MULLIKEN POPULATION ANALYSIS *
                    ********************************

-----------------------
MULLIKEN ATOMIC CHARGES
-----------------------
   0 C :   -0.111021
   1 C :    0.797532
   2 H :    0.274921
   3 H :    0.289389
   4 N :   -0.706486
   5 O :   -0.638191
   6 H :    0.168322
   7 H :    0.129255
   8 H :    0.375651
   9 O :   -0.579373
Sum of atomic charges:    0.0000000

--------------------------------
MULLIKEN REDUCED ORBITAL CHARGES
--------------------------------
  0 C s       :     3.209848  s :     3.209848
      pz      :     0.947875  p :     2.837661
      px      :     1.040849
      py      :     0.848937
      dz2     :     0.003786  d :     0.063512
      dxz     :     0.016394
      dyz     :     0.020287
      dx2y2   :     0.009224
      dxy     :     0.013821

  1 C s       :     2.939531  s :     2.939531
      pz      :     0.649950  p :     2.114743
      px      :     0.680403
      py      :     0.784390
      dz2     :     0.032221  d :     0.148193
      dxz     :     0.036698
      dyz     :     0.025668
      dx2y2   :     0.029584
      dxy     :     0.024023

  2 H s       :     0.698803  s :     0.698803
      pz      :     0.007300  p :     0.026275
      px      :     0.007586
      py      :     0.011389

  3 H s       :     0.684119  s :     0.684119
      pz      :     0.011133  p :     0.026492
      px      :     0.009743
      py      :     0.005616

  4 N s       :     3.616463  s :     3.616463
      pz      :     1.308171  p :     4.056252
      px      :     1.514861
      py      :     1.233219
      dz2     :     0.001345  d :     0.033772
      dxz     :     0.008926
      dyz     :     0.012020
      dx2y2   :     0.003938
      dxy     :     0.007543

  5 O s       :     3.831873  s :     3.831873
      pz      :     1.440812  p :     4.781193
      px      :     1.733378
      py      :     1.607003
      dz2     :     0.005464  d :     0.025125
      dxz     :     0.008053
      dyz     :     0.003413
      dx2y2   :     0.003588
      dxy     :     0.004607

  6 H s       :     0.819357  s :     0.819357
      pz      :     0.003813  p :     0.012321
      px      :     0.006235
      py      :     0.002273

  7 H s       :     0.858342  s :     0.858342
      pz      :     0.004798  p :     0.012403
      px      :     0.004952
      py      :     0.002652

  8 H s       :     0.582681  s :     0.582681
      pz      :     0.011668  p :     0.041668
      px      :     0.010131
      py      :     0.019869

  9 O s       :     3.872097  s :     3.872097
      pz      :     1.711155  p :     4.674194
      px      :     1.416264
      py      :     1.546774
      dz2     :     0.003895  d :     0.033082
      dxz     :     0.005125
      dyz     :     0.005288
      dx2y2   :     0.011051
      dxy     :     0.007724



                     *******************************
                     * LOEWDIN POPULATION ANALYSIS *
                     *******************************

----------------------
LOEWDIN ATOMIC CHARGES
----------------------
   0 C :   -0.058071
   1 C :    0.243744
   2 H :    0.131033
   3 H :    0.134521
   4 N :   -0.297574
   5 O :   -0.209941
   6 H :    0.088896
   7 H :    0.067463
   8 H :    0.202960
   9 O :   -0.303031

-------------------------------
LOEWDIN REDUCED ORBITAL CHARGES
-------------------------------
  0 C s       :     2.885995  s :     2.885995
      pz      :     1.021582  p :     3.048940
      px      :     1.059199
      py      :     0.968159
      dz2     :     0.007745  d :     0.123136
      dxz     :     0.029830
      dyz     :     0.040737
      dx2y2   :     0.018280
      dxy     :     0.026543

  1 C s       :     2.839673  s :     2.839673
      pz      :     0.838212  p :     2.597678
      px      :     0.851035
      py      :     0.908430
      dz2     :     0.070163  d :     0.318905
      dxz     :     0.085466
      dyz     :     0.052262
      dx2y2   :     0.059376
      dxy     :     0.051639

  2 H s       :     0.787218  s :     0.787218
      pz      :     0.023627  p :     0.081748
      px      :     0.025145
      py      :     0.032976

  3 H s       :     0.782294  s :     0.782294
      pz      :     0.032670  p :     0.083185
      px      :     0.032503
      py      :     0.018012

  4 N s       :     3.187230  s :     3.187230
      pz      :     1.310711  p :     4.050234
      px      :     1.489886
      py      :     1.249636
      dz2     :     0.003819  d :     0.060110
      dxz     :     0.014747
      dyz     :     0.021509
      dx2y2   :     0.007263
      dxy     :     0.012772

  5 O s       :     3.457318  s :     3.457318
      pz      :     1.435469  p :     4.705134
      px      :     1.703710
      py      :     1.565955
      dz2     :     0.011186  d :     0.047489
      dxz     :     0.014628
      dyz     :     0.010146
      dx2y2   :     0.005373
      dxy     :     0.006156

  6 H s       :     0.871512  s :     0.871512
      pz      :     0.012520  p :     0.039592
      px      :     0.019114
      py      :     0.007958

  7 H s       :     0.893754  s :     0.893754
      pz      :     0.014976  p :     0.038783
      px      :     0.014828
      py      :     0.008979

  8 H s       :     0.676359  s :     0.676359
      pz      :     0.032864  p :     0.120682
      px      :     0.031469
      py      :     0.056349

  9 O s       :     3.546954  s :     3.546954
      pz      :     1.680681  p :     4.698539
      px      :     1.456073
      py      :     1.561785
      dz2     :     0.007656  d :     0.057538
      dxz     :     0.010106
      dyz     :     0.007890
      dx2y2   :     0.013306
      dxy     :     0.018580



                      *****************************
                      * MAYER POPULATION ANALYSIS *
                      *****************************

  NA   - Mulliken gross atomic population
  ZA   - Total nuclear charge
  QA   - Mulliken gross atomic charge
  VA   - Mayer's total valence
  BVA  - Mayer's bonded valence
  FA   - Mayer's free valence

  ATOM       NA         ZA         QA         VA         BVA        FA
  0 C      6.1110     6.0000    -0.1110     3.7832     3.7832     0.0000
  1 C      5.2025     6.0000     0.7975     3.7293     3.7293     0.0000
  2 H      0.7251     1.0000     0.2749     0.9031     0.9031    -0.0000
  3 H      0.7106     1.0000     0.2894     0.8994     0.8994     0.0000
  4 N      7.7065     7.0000    -0.7065     2.7194     2.7194    -0.0000
  5 O      8.6382     8.0000    -0.6382     1.8342     1.8342    -0.0000
  6 H      0.8317     1.0000     0.1683     0.9402     0.9402    -0.0000
  7 H      0.8707     1.0000     0.1293     0.9403     0.9403     0.0000
  8 H      0.6243     1.0000     0.3757     0.8699     0.8699    -0.0000
  9 O      8.5794     8.0000    -0.5794     1.9042     1.9042     0.0000

  Mayer bond orders larger than 0.100000
B(  0-C ,  1-C ) :   0.9438 B(  0-C ,  4-N ) :   0.9416 B(  0-C ,  6-H ) :   0.9614 
B(  0-C ,  7-H ) :   0.9499 B(  1-C ,  5-O ) :   0.9776 B(  1-C ,  9-O ) :   1.8386 
B(  2-H ,  4-N ) :   0.9083 B(  3-H ,  4-N ) :   0.8941 B(  5-O ,  8-H ) :   0.8379 


-------
TIMINGS
-------

Total SCF time: 0 days 0 hours 0 min 2 sec 

Total time                  ....       2.197 sec
Sum of individual times     ....       2.021 sec  ( 92.0%)

SCF preparation             ....       0.012 sec  (  0.6%)
Fock matrix formation       ....       1.996 sec  ( 90.9%)
  Startup                   ....       0.000 sec  (  0.0% of F)
  Coulomb+Exchange Fock     ....       2.167 sec  (108.5% of F)
Diagonalization             ....       0.000 sec  (  0.0%)
Density matrix formation    ....       0.001 sec  (  0.1%)
Total Energy calculation    ....       0.000 sec  (  0.0%)
Population analysis         ....       0.001 sec  (  0.1%)
Orbital Transformation      ....       0.001 sec  (  0.1%)
Orbital Orthonormalization  ....       0.000 sec  (  0.0%)
DIIS solution               ....       0.006 sec  (  0.3%)
SOSCF solution              ....       0.002 sec  (  0.1%)
Finished LeanSCF after   2.2 sec

Maximum memory used throughout the entire LEANSCF-calculation: 9.3 MB

------------------------------------------------------------------------------
                                ORCA  MP2 
------------------------------------------------------------------------------

Freezing NCore=10 chemical core electrons

----------
MP2 ENERGY (disk based algorithm)
----------

Dimension of the basis                      ...   95
Memory devoted to MP2                       ... 4096 MB   
Data format for buffers                     ... DOUBLE
Compression type for matrix containers      ... UNCOMPRESSED

-------------------------
SHARK HALF TRANSFORMATION (Exchange order)
-------------------------

Number of basis functions                   ...     95
Number of operators                         ...      1
   Operator  0:    5-  19 (p-index in (p*|q*))
   Operator  0:    5-  19 (q-index in (p*|q*)
Integral generator used                     ... SHARK
Contraction scheme used                     ... SEGMENTED CONTRACTION
MaxCore in resort                           ...   4096 MB

Half transformed integrals for op=   0      ... 4.SHARK_MNPQ0.tmp
Resorted half transformed integrals         ... 4.KAO_aa.tmp

Half trafo (segmented) done. Total time =  1.1 sec. integrals=  1.1 sec trafo=  0.1 sec

----------------------
SHARK INTEGRAL SORTING (Exchange)
----------------------

Input container                             ... 4.SHARK_MNPQ0.tmp
Output container                            ... 4.KAO_aa.tmp
Range of AO-indices                         ...    0 -   94
Range of bra indices i                      ...    5 -   19
Range of ket indices j                      ...    5 -   19
Symmetric i,j range                         ... YES
Number of (i,j) pairs generated             ...  120
Max Core memory in MB                       ...   4096

Available core memory in MB                 ...   4092.33
MB needed for one item                      ...      0.07
Fixed MB needed                             ...      0.00
Number of items                             ...       120
Number of batches                           ...         1
Items treated per batch                     ...       120
Batch   0                                   ...      0-   119 (   120)
   => Closing output file and leaving
done (  0.0 sec)

SHARK half integral transformation done. Total time =  1.1 sec.


Finished integral transformation - now doing MP2 part

OPERATOR COMBINATION   0   0: ij=(  5.. 19,  5.. 19)
  Internal MO   7
  Internal MO  10
  Internal MO  13
  Internal MO  16
  Internal MO  19
-----------------------------------------------
 MP2 CORRELATION ENERGY   :     -0.789084990 Eh
-----------------------------------------------


-------
TIMINGS
-------
Total time                :    1.133 sec
Integral trafo            :    1.126 sec ( 99.3%)
K(i,j)                    :    0.005 sec (  0.5%)
T(i,j)                    :    0.000 sec (  0.0%)

---------------------------------------
MP2 TOTAL ENERGY:     -283.629132078 Eh
---------------------------------------

Maximum memory used throughout the entire MP2-calculation: 19.6 MB

-------------------------   --------------------
FINAL SINGLE POINT ENERGY      -283.629132078350
-------------------------   --------------------


------------------------------------------------------------------------------
                              ORCA PROPERTY CALCULATIONS
------------------------------------------------------------------------------

GBWName                                 ... 4.gbw
Number of atoms                         ...     10
Number of basis functions               ...     95
Max core memory                         ...   4096 MB

Electric properties:
Dipole moment                           ... YES
Quadrupole moment                       ...  NO
Static polarizability (Dipole/Dipole)   ...  NO
Static polarizability (Dipole/Quad.)    ...  NO
Static polarizability (Quad./Quad.)     ...  NO
Static polarizability (Velocity)        ...  NO
Static hyperpolarizability              ...  NO

Atomic electric properties:
Dipole moment                           ...  NO
Quadrupole moment                       ...  NO
Static polarizability                   ...  NO

Choice of electric origin               ... Center of mass
Position of electric origin             ...    -8.858543    -3.701465     1.256634

General magnetic properties:
Magnetizability                         ...  NO

EPR properties:
g-Tensor (aka g-matrix)                 ...  NO
Zero-Field splitting spin-orbit         ...  NO
Zero-field splitting spin-spin          ...  NO
Hyperfine couplings                     ...  NO (   0 nuclei)
Quadrupole couplings                    ...  NO (   0 nuclei)
Contact density                         ...  NO (   0 nuclei)

NMR properties:
Chemical shifts                         ...  NO (   0 nuclei)
Spin-rotation constants                 ...  NO (   0 nuclei)
Spin-spin couplings                     ...  NO (   0 nuclei,    0 pairs)

Choice of magnetic origin               ... GIAO
Position of magnetic origin             ...     0.000000     0.000000     0.000000

Properties with geometric perturbations:
SCF Hessian                             ...  NO
IR spectrum                             ...  NO
VCD spectrum                            ...  NO
X-ray spectroscopy properties:
SCF XES/XAS/RIXS spectra                ...  NO

SCF SOC stabilization energy            ...  NO
Diagonal Born-Oppenheimer correction    ...  NO

-------------
DIPOLE MOMENT
-------------

Method             : SCF
Type of density    : Electron Density
Multiplicity       :   1
Irrep              :   0
Energy             :  -282.8400470883883600 Eh
Basis              : AO
                                X                 Y                 Z
Electronic contribution:      1.842592332      -3.240149291       1.186431707
Nuclear contribution   :     -2.861609104       3.437832286      -1.124976708
                        -----------------------------------------
Total Dipole Moment    :     -1.019016772       0.197682995       0.061454999
                        -----------------------------------------
Magnitude (a.u.)       :      1.039831941
Magnitude (Debye)      :      2.643042748



--------------------
Rotational spectrum 
--------------------
 
Rotational constants in cm-1:             0.332878             0.136481             0.101266 
Rotational constants in MHz :          9979.436585          4091.584331          3035.877262 

Dipole components along the rotational axes: 
x,y,z [a.u.] :    -0.659521    -0.476153    -0.647735 
x,y,z [Debye]:    -1.676369    -1.210286    -1.646411 

 

Dipole moment calculation done in   0.0 sec 

Maximum memory used throughout the entire PROP-calculation: 3.7 MB

--------------------------------
SUGGESTED CITATIONS FOR THIS RUN
--------------------------------

Below you find a list of papers that are relevant to this ORCA run
We neither can nor want to force you to cite these papers, but we appreciate if you do
You receive ORCA, which is the product of decades of hard work by many enthusiastic individuals, for free
The only thing we kindly ask in return is that you cite our papers,
We deeply appreciate it, if you show your appreciation for ORCA by not just citing the generic ORCA reference.

Please note that relegating all ORCA citations to the supporting information does *not* help us.
SI sections are not indexed - citations you put there will not count into any citation statistics
But we need these citations in order to attract the funding resources that allow us to do what we are doing

Therefore, if you are a happy ORCA user, please consider citing a few of the papers listed below in the main body of your paper

In addition to the list printed below, the program has created the file 4.bibtex that contains the list in bibtex format
You can import this file easily into all common literature databanks and citation aid programs


List of essential papers. We consider these as the minimum necessary citations

  1. Neese, F.
     Software update: the ORCA program system, version 6.0
     WIRES Comput. Molec. Sci. 2025 15(1), e70019
     doi.org/10.1002/wcms.7019

List of papers to cite with high priority. The work reported in these papers was absolutely
necessary for this run to complete.
Our perspective: the developers of density functionals and basis sets usually get cited in chemistry papers
Good! But without the algorithms to do something with them, the functionals or basis sets would not do anything.
Hence, in our opinion, the algorithm design and method developments papers are equally worthy of getting cited

  1. Neese, F.
     The SHARK Integral Generation and Digestion System
     J. Comp. Chem. 2022 44(3), 381
     doi.org/10.1002/jcc.26942

List of suggested additional citations. These are papers that are important in the 'surrounding' of 
of this run, or papers that preceded the highly important papers. If you like your results we are grateful for a citation.

  1. Neese, F.
     The ORCA program system
     WIRES Comput. Molec. Sci. 2012 2(1), 73-78
     doi.org/10.1002/wcms.81
  2. Neese, F.
     Software update: the ORCA program system, version 4.0
     WIRES Comput. Molec. Sci. 2018 8(1), 1-6
     doi.org/10.1002/wcms.1327
  3. Neese, F.; Wennmohs, F.; Becker, U.; Riplinger, C.
     The ORCA quantum chemistry program package
     J. Chem. Phys. 2020 152(22), 224108
     doi.org/10.1063/5.0004608
  4. Neese, F.
     Software update: The ORCA program system—Version 5.0
     WIRES Comput. Molec. Sci. 2022 12(1), e1606
     doi.org/10.1002/wcms.1606

List of optional additional citations

  1. Neese, F.
     Approximate second-order SCF convergence for spin unrestricted wavefunctions
     Chem. Phys. Lett. 2000 325(1-3), 93-98
     doi.org/10.1016/s0009-2614(00)00662-x

Timings for individual modules:

Sum of individual times          ...        3.633 sec (=   0.061 min)
Startup calculation              ...        0.171 sec (=   0.003 min)   4.7 %
SCF iterations                   ...        2.286 sec (=   0.038 min)  62.9 %
Property calculations            ...        0.021 sec (=   0.000 min)   0.6 %
MP2 module                       ...        1.155 sec (=   0.019 min)  31.8 %
                             ****ORCA TERMINATED NORMALLY****
TOTAL RUN TIME: 0 days 0 hours 0 minutes 3 seconds 670 msec
