
                                 *****************
                                 * O   R   C   A *
                                 *****************

                                            #,                                       
                                            ###                                      
                                            ####                                     
                                            #####                                    
                                            ######                                   
                                           ########,                                 
                                     ,,################,,,,,                         
                               ,,#################################,,                 
                          ,,##########################################,,             
                       ,#########################################, ''#####,          
                    ,#############################################,,   '####,        
                  ,##################################################,,,,####,       
                ,###########''''           ''''###############################       
              ,#####''   ,,,,##########,,,,          '''####'''          '####       
            ,##' ,,,,###########################,,,                        '##       
           ' ,,###''''                  '''############,,,                           
         ,,##''                                '''############,,,,        ,,,,,,###''
      ,#''                                            '''#######################'''  
     '                                                          ''''####''''         
             ,#######,   #######,   ,#######,      ##                                
            ,#'     '#,  ##    ##  ,#'     '#,    #''#        ,####,    ,#,          
            ##       ##  ##   ,#'  ##            #'  '#       #'       ,# #          
            ##       ##  #######   ##           ,######,      #####,      #          
            '#,     ,#'  ##    ##  '#,     ,#' ,#      #,     #,   #      #          
             '#######'   ##     ##  '#######'  #'      '#     '####' #    #          



                #########################################################
                #                        -***-                          #
                #          Department of theory and spectroscopy        #
                #                                                       #
                #                      Frank Neese                      #
                #                                                       #
                #     Directorship, Architecture, Infrastructure        #
                #                    SHARK, DRIVERS                     #
                #        Core code/Algorithms in most modules           #
                #                                                       #
                #        Max Planck Institute fuer Kohlenforschung      #
                #                Kaiser Wilhelm Platz 1                 #
                #                 D-45470 Muelheim/Ruhr                 #
                #                      Germany                          #
                #                                                       #
                #                  All rights reserved                  #
                #                        -***-                          #
                #########################################################


                         Program Version 6.1.0  -  RELEASE   -
                                (GIT: $679e74b$)
                          ($2025-06-10 18:02:51 +0200$)


 With contributions from (in alphabetic order):
[Max-Planck-Institut fuer Kohlenforschung]                               
  Daniel Aravena         : Magnetic Suceptibility                        
  Michael Atanasov       : Ab Initio Ligand Field Theory (pilot matlab implementation)
  Alexander A. Auer      : GIAO ZORA, VPT2 properties, NMR spectrum      
  Ute Becker             : All parallelization in ORCA, NUMFREQ, NUMCALC 
  Giovanni Bistoni       : ED, misc. LED, open-shell LED, HFLD           
  Dmytro Bykov           : pre 5.0 version of the SCF Hessian            
  Marcos Casanova-Páez   : Triplet and SCS-CIS(D). UHF-(DLPNO)-IP/EA/STEOM-CCSD. UHF-CVS-IP/STEOM-CCSD   
  Vijay G. Chilkuri      : MRCI spin determinant printing, contributions to CSF-ICE 
  Pauline Colinet        : FMM embedding                                 
  Dipayan Datta          : RHF DLPNO-CCSD density                        
  Achintya Kumar Dutta   : EOM-CC, STEOM-CC                              
  Nicolas Foglia         : Exact transition moments, OPA infrastructure, MCD improvements    
  Dmitry Ganyushin       : Spin-Orbit,Spin-Spin,Magnetic field MRCI      
  Miquel Garcia-Rates    : C-PCM and meta-GGA Hessian, CCSD/C-PCM, Gaussian charge scheme 
  Tiago L. C. Gouveia    : GS-ROHF, GS-ROCIS                             
  Yang Guo               : DLPNO-NEVPT2, F12-NEVPT2, CIM, IAO-localization        
  Andreas Hansen         : Spin unrestricted coupled pair/coupled cluster methods 
  Ingolf Harden          : AUTO-CI MPn and infrastructure                
  Benjamin Helmich-Paris : MC-RPA, TRAH-(SCF,CASSCF), AVAS, COSX integrals, SCF dyn. polar., MC-PDFT, srDFT 
  Lee Huntington         : MR-EOM, pCC                                   
  Robert Izsak           : Overlap fitted RIJCOSX, COSX-SCS-MP3, EOM     
  Riya Kayal             : Wick's Theorem for AUTO-CI, AUTO-CI UHF-CCSDT 
  Emily Kempfer          : AUTO-CI RHF CISDT and CCSDT, approximate NEVPT4
  Christian Kollmar      : KDIIS, OOCD, Brueckner-CCSD(T), CCSD density, CASPT2, CASPT2-K, improved NEVPT2 
  Axel Koslowski         : Symmetry handling                             
  Simone Kossmann        : meta-GGA functionals, TD-DFT gradient, OOMP2, (MP2 Hessian; deprecated post 5.0) 
  Lucas Lang             : DCDCAS, Hyperfine gauge corrections, ICE-SOC+SSC
  Marvin Lechner         : AUTO-CI (C++ implementation), FIC-MRCC        
  Spencer Leger          : CASSCF response                               
  Dagmar Lenk            : GEPOL surface, SMD, ORCA-2-JSON               
  Dimitrios Liakos       : Extrapolation schemes; Compound Job, Property file
  Dimitrios Manganas     : Further ROCIS development; embedding schemes. LFT, Crystal Embedding 
  Dimitrios Pantazis     : SARC Basis sets                               
  Anastasios Papadopoulos: AUTO-CI, single reference methods and gradients 
  Taras Petrenko         : pre 6.0 DFT Hessian and TD-DFT gradient,  ECA, NRVS 
  Petra Pikulova         : Analytic Raman intensities                    
  Peter Pinski           : DLPNO-MP2, DLPNO-MP2 Gradient                 
  Shashank Vittal Rao    : ES-AILFT, MagRelax                            
  Christoph Reimann      : Effective Core Potentials                     
  Marius Retegan         : Local ZFS, SOC                                
  Christoph Riplinger    : Optimizer, TS searches, QM/MM, DLPNO-CCSD(T), (RO)-DLPNO pert. Triples 
  Michael Roemelt        : Original ROCIS implementation, recursive CI coupling coefficients
  Masaaki Saitow         : Open-shell DLPNO-CCSD energy and density      
  Barbara Sandhoefer     : DKH picture change effects                    
  Yorick L. A. Schmerwitz: GMF and freeze-and-release deltaSCF, NEB S-IDPP initial path                    
  Kantharuban Sivalingam : CASSCF convergence/infrastructure, NEVPT2, NEVPT3, NEVPT4(SD), FIC-MRCI and CEPA variants
  Bernardo de Souza      : ESD, SOC TD-DFT                               
  Georgi L. Stoychev     : AutoAux, RI-MP2 NMR, DLPNO-MP2 response, X2C  
  Van Anh Tran           : RI-MP2 g-tensors                              
  Willem Van den Heuvel  : Paramagnetic NMR                              
  Zikuan Wang            : NOTCH, Electric field optimization            
  Frank Wennmohs         : Technical directorship and infrastructure     
  Hang Xu                : AUTO-CI-Response properties                   
                                                                         
[FACCTs GmbH]                                                            
  Markus Bursch, Nicolas Foglia, Miquel Garcia-Rates, Ingolf Harden, Hagen Neugebauer, Anastasios Papadopoulos, 
  Christoph Riplinger, Bernardo de Souza, Georgi L. Stoychev                                                    
                                                                 
  APM, various basis sets, CI-OPT, improved COSX, DLPNO-Multilevel,           
  DOCKER, DRACO, updates on ESD, Fragmentator, GOAT, IRC, LR-CPCM, L-BFGS, MBIS, meta-GGA TD-DFT gradient, ML-optimized integration grids, 
  MM, NACMEs, nearIR, NEB, NEB-TS, NL-DFT gradient (VV10), 2- and 3-layer-ONIOM, interface openCOSMO-RS, QMMM,   
  Crystal-QMMM, RESP, rigid body optimization, SF, symmetry and pop. for TD-DFT, various functionals, SOLVATOR                                   
                                                                         
[Other institutions]                                                     
  V. Asgeirsson          : NEB                                           
  Christoph Bannwarth    : sTDA-DFT, sTD-DFT, PBEh-3c, B97-3c, D3        
  Giovanni Bistoni       : ETS/NOCV, ADLD/ADEX, COVALED                  
  Martin Brehm           : Molecular dynamics                            
  Ronald Cardenas        : ETS/NOCV                                      
  Martina Colucci        : COVALED                                       
  Sebastian Ehlert       : rSCAN, r2SCAN, r2SCAN-3c, D4, dhf basis sets  
  Marvin Friede          : D4 for Fr, Ra, Ac-Lr                          
  Lars Goerigk           : TD-DFT with DH, B97 family of functionals     
  Stefan Grimme          : VdW corrections, initial TS optimization, DFT functionals, gCP, sTDA/sTD-DF 
  Waldemar Hujo          : DFT-NL                                        
  H. Jonsson             : NEB                                           
  Holger Kruse           : gCP                                           
  Marcel Mueller         : wB97X-3c, vDZP basis set                      
  Hagen Neugebauer       : wr2SCAN, Native XTB                           
  Gianluca Regni         : ADLD/ADEX                                     
  Tobias Risthaus        : pre 6.0 range-separated hybrid DFT and stability analysis
  Lukas Wittmann         : regularized MP2, r2SCAN double-hybrids, wr2SCAN        
                                                                         
We gratefully acknowledge several colleagues who have allowed us to      
interface, adapt or use parts of their codes:                            
  Ed Valeev, F. Pavosevic, A. Kumar             : LibInt (2-el integral package), F12 methods 
  Garnet Chan, S. Sharma, J. Yang, R. Olivares  : DMRG                   
  Ulf Ekstrom                                   : XCFun DFT Library      
  Mihaly Kallay                                 : mrcc  (arbitrary order and MRCC methods)
  Frank Weinhold                                : gennbo (NPA and NBO analysis)           
  Simon Mueller                                 : openCOSMO-RS                            
  Christopher J. Cramer and Donald G. Truhlar   : smd solvation model                     
  S Lehtola, MJT Oliveira, MAL Marques          : LibXC Library                           
  Liviu Ungur et al                             : ANISO software                          


 Your calculation uses the libint2 library for the computation of 2-el integrals
 For citations please refer to: http://libint.valeyev.net

 Your ORCA version has been built with support for libXC version: 7.0.0
 For citations please refer to: https://libxc.gitlab.io

 This ORCA versions uses:
   CBLAS   interface :  Fast vector & matrix operations
   LAPACKE interface :  Fast linear algebra routines
   SCALAPACK package :  Parallel linear algebra routines
   Shared memory     :  Shared parallel matrices
   BLAS/LAPACK       :  OpenBLAS 0.3.29  USE64BITINT DYNAMIC_ARCH NO_AFFINITY Haswell SINGLE_THREADED
        Core in use  :  Haswell
   Copyright (c) 2011-2014, The OpenBLAS Project


  ***********************************
  * Starting time: Sat Aug 16 15:54:23 2025
  * Host name:     CHEMLAB02
  * Process ID:    1907105
  * Working dir.:  /home/vivek/mm-project/vivek/xtb-goat/MP2/l/2
  ***********************************



***************************************
The coordinates will be read from file: /home/vivek/mm-project/vivek/xtb-goat/xtb-goat/l/L_CONF/2.xyz
***************************************


================================================================================

----- Orbital basis set information -----
Your calculation utilizes the basis: 6-31G**
   H-He, Li-Ne : W. J. Hehre, R. Ditchfield and J.A. Pople, J. Chem. Phys. 56, 2257 (1972).
                 Note: He and Ne are unpublished basis sets taken from the Gaussian program.
                 Note: Li and B from J. D. Dill and J. A. Pople, J. Chem. Phys. 62, 2921 (1975).
   Na - Ar     : M. M. Francl, W. J. Pietro, W. J. Hehre, J. S. Binkley, M. S. Gordon, 
                 D. J. DeFrees and J. A. Pople, J. Chem. Phys. 77, 3654 (1982).
   K - Zn      : V. A. Rassolov, J. A. Pople, M. A. Ratner, and T. L. Windus, J. Chem. Phys. 109, 1223 (1998).

================================================================================
                                        WARNINGS
                       Please study these warnings very carefully!
================================================================================


WARNING: No MP2 level density has been requested!
         To calculate MP2 level properties use
         %mp2 Density relaxed end
         or
         %mp2 Density unrelaxed end

WARNING: Post HF methods need fully converged wavefunctions
  ===> : Setting SCFConvForced true
         You can overwrite this default with %scf ConvForced false 


================================================================================
                                       INPUT FILE
================================================================================
NAME = 2.inp
|  1> ! MP2 6-31G** 
|  2> 
|  3> * xyzfile 0 1 /home/vivek/mm-project/vivek/xtb-goat/xtb-goat/l/L_CONF/2.xyz
|  4> 
|  5>                          ****END OF INPUT****
================================================================================

                       ****************************
                       * Single Point Calculation *
                       ****************************

---------------------------------
CARTESIAN COORDINATES (ANGSTROEM)
---------------------------------
  C     -9.637146    6.580267   -2.100048
  C     -8.394936    6.785190   -1.244018
  H     -9.782802    8.492515   -2.806180
  H     -8.862134    7.506702   -3.730698
  C     -9.599680    5.172208   -2.717253
  H    -10.522195    6.692714   -1.468986
  H     -8.597121    2.678457   -3.109649
  N     -9.713594    7.550983   -3.178303
  C     -9.575354    4.016410   -1.712619
  H    -10.475986    5.082302   -3.361180
  H     -8.711671    5.112350   -3.351492
  C    -10.809471    4.014694   -0.813689
  H    -10.823225    3.116655   -0.200198
  C     -9.480278    2.695461   -2.475206
  H    -10.809707    4.874407   -0.149676
  H    -11.715896    4.033694   -1.414714
  H     -8.685120    4.113029   -1.081338
  H     -9.420254    1.858973   -1.782980
  H    -10.357441    2.558809   -3.103800
  O     -8.618653    6.571805    0.058032
  H     -7.804555    6.701512    0.571544
  O     -7.321972    7.123671   -1.670960

----------------------------
CARTESIAN COORDINATES (A.U.)
----------------------------
  NO LB      ZA    FRAG     MASS         X           Y           Z
   0 C     6.0000    0    12.011  -18.211567   12.434902   -3.968515
   1 C     6.0000    0    12.011  -15.864131   12.822150   -2.350853
   2 H     1.0000    0     1.008  -18.486816   16.048527   -5.302912
   3 H     1.0000    0     1.008  -16.747007   14.185612   -7.049997
   4 C     6.0000    0    12.011  -18.140766    9.774056   -5.134864
   5 H     1.0000    0     1.008  -19.884067   12.647397   -2.775982
   6 H     1.0000    0     1.008  -16.246204    5.061551   -5.876385
   7 N     7.0000    0    14.007  -18.356033   14.269289   -6.006122
   8 C     6.0000    0    12.011  -18.094796    7.589916   -3.236381
   9 H     1.0000    0     1.008  -19.796744    9.604160   -6.351709
  10 H     1.0000    0     1.008  -16.462672    9.660942   -6.333402
  11 C     6.0000    0    12.011  -20.426940    7.586673   -1.537649
  12 H     1.0000    0     1.008  -20.452932    5.889624   -0.378319
  13 C     6.0000    0    12.011  -17.915130    5.093683   -4.677461
  14 H     1.0000    0     1.008  -20.427385    9.211294   -0.282847
  15 H     1.0000    0     1.008  -22.139834    7.622578   -2.673422
  16 H     1.0000    0     1.008  -16.412499    7.772498   -2.043433
  17 H     1.0000    0     1.008  -17.801700    3.512950   -3.369343
  18 H     1.0000    0     1.008  -19.572728    4.835449   -5.865333
  19 O     8.0000    0    15.999  -16.286894   12.418912    0.109664
  20 H     1.0000    0     1.008  -14.748471   12.664023    1.080061
  21 O     8.0000    0    15.999  -13.836522   13.461787   -3.157658

--------------------------------
INTERNAL COORDINATES (ANGSTROEM)
--------------------------------
 C      0   0   0     0.000000000000     0.00000000     0.00000000
 C      1   0   0     1.522453919214     0.00000000     0.00000000
 H      1   2   0     2.043656370255    97.26650597     0.00000000
 H      3   1   2     1.635294141440    65.86705013    89.45388834
 C      1   2   3     1.537847710258   109.20966055   144.37349499
 H      1   2   3     1.092791981867   108.80014368   264.72772261
 H      5   1   2     2.716227526080   155.17322591     5.02722871
 N      3   1   2     1.014764877100    41.72681047   124.06597867
 C      5   1   2     1.531583922884   115.34580159    60.43773075
 H      5   1   2     1.091162647438   107.02082011   182.83294680
 H      5   1   2     1.092887076398   107.62924953   298.46455596
 C      9   5   1     1.526801945126   111.97538131    60.30639235
 H     12   9   5     1.087674475209   110.07421634   172.94162203
 C      7   5   1     1.087554504953    66.52429313   104.02217026
 H     12   9   5     1.086286541145   111.04986210   292.46395353
 H     12   9   5     1.087748965103   110.37871664    53.32930285
 H      9   5   1     1.095611997915   108.92349503   300.27738749
 H     14   7   5     1.087424471872   108.33091950   209.21480967
 H     14   7   5     1.087759317091   108.40661612    91.77552585
 O      2   1   3     1.338250943237   112.90463378   117.66319329
 H     20   2   1     0.971223436956   110.67115518   179.37108159
 O      2   1   3     1.203371068225   124.46336003   298.78368042

---------------------------
INTERNAL COORDINATES (A.U.)
---------------------------
 C      0   0   0     0.000000000000     0.00000000     0.00000000
 C      1   0   0     2.877020958830     0.00000000     0.00000000
 H      1   2   0     3.861950851626    97.26650597     0.00000000
 H      3   1   2     3.090258075727    65.86705013    89.45388834
 C      1   2   3     2.906111008066   109.20966055   144.37349499
 H      1   2   3     2.065077567073   108.80014368   264.72772261
 H      5   1   2     5.132926141709   155.17322591     5.02722871
 N      3   1   2     1.917627708042    41.72681047   124.06597867
 C      5   1   2     2.894274165368   115.34580159    60.43773075
 H      5   1   2     2.061998571222   107.02082011   182.83294680
 H      5   1   2     2.065257269695   107.62924953   298.46455596
 C      9   5   1     2.885237537026   111.97538131    60.30639235
 H     12   9   5     2.055406881002   110.07421634   172.94162203
 C      7   5   1     2.055180170073    66.52429313   104.02217026
 H     12   9   5     2.052784065730   111.04986210   292.46395353
 H     12   9   5     2.055547646501   110.37871664    53.32930285
 H      9   5   1     2.070406625098   108.92349503   300.27738749
 H     14   7   5     2.054934443162   108.33091950   209.21480967
 H     14   7   5     2.055567208924   108.40661612    91.77552585
 O      2   1   3     2.528927781180   112.90463378   117.66319329
 H     20   2   1     1.835346310693   110.67115518   179.37108159
 O      2   1   3     2.274041756430   124.46336003   298.78368042

---------------------
BASIS SET INFORMATION
---------------------
There are 4 groups of distinct atoms

 Group   1 Type C   : 10s4p1d contracted to 3s2p1d pattern {631/31/1}
 Group   2 Type H   : 4s1p contracted to 2s1p pattern {31/1}
 Group   3 Type N   : 10s4p1d contracted to 3s2p1d pattern {631/31/1}
 Group   4 Type O   : 10s4p1d contracted to 3s2p1d pattern {631/31/1}

Atom   0C    basis set group =>   1
Atom   1C    basis set group =>   1
Atom   2H    basis set group =>   2
Atom   3H    basis set group =>   2
Atom   4C    basis set group =>   1
Atom   5H    basis set group =>   2
Atom   6H    basis set group =>   2
Atom   7N    basis set group =>   3
Atom   8C    basis set group =>   1
Atom   9H    basis set group =>   2
Atom  10H    basis set group =>   2
Atom  11C    basis set group =>   1
Atom  12H    basis set group =>   2
Atom  13C    basis set group =>   1
Atom  14H    basis set group =>   2
Atom  15H    basis set group =>   2
Atom  16H    basis set group =>   2
Atom  17H    basis set group =>   2
Atom  18H    basis set group =>   2
Atom  19O    basis set group =>   4
Atom  20H    basis set group =>   2
Atom  21O    basis set group =>   4
------------------------------------------------------------------------------
                             ORCA STARTUP CALCULATIONS
------------------------------------------------------------------------------
------------------------------------------------------------------------------
                   ___                                                        
                  /   \      - P O W E R E D   B Y -                         
                 /     \                                                     
                 |  |  |   _    _      __       _____    __    __             
                 |  |  |  | |  | |    /  \     |  _  \  |  |  /  |          
                  \  \/   | |  | |   /    \    | | | |  |  | /  /          
                 / \  \   | |__| |  /  /\  \   | |_| |  |  |/  /          
                |  |  |   |  __  | /  /__\  \  |    /   |      \           
                |  |  |   | |  | | |   __   |  |    \   |  |\   \          
                \     /   | |  | | |  |  |  |  | |\  \  |  | \   \       
                 \___/    |_|  |_| |__|  |__|  |_| \__\ |__|  \__/        
                                                                              
                      - O R C A' S   B I G   F R I E N D -                    
                                      &                                       
                       - I N T E G R A L  F E E D E R -                       
                                                                              
 v1 FN, 2020, v2 2021, v3 2022-2024                                           
------------------------------------------------------------------------------


----------------------
SHARK INTEGRAL PACKAGE
----------------------

Number of atoms                             ...     22
Number of basis functions                   ...    191
Number of shells                            ...     93
Maximum angular momentum                    ...      2
Integral batch strategy                     ... SHARK/LIBINT Hybrid
RI-J (if used) integral strategy            ... SPLIT-RIJ (Revised 2003 algorithm where possible)
Printlevel                                  ...      1
Contraction scheme used                     ... SEGMENTED contraction
Prescreening option                         ... SCHWARTZ
   Thresh                                   ... 1.000e-10
   Tcut                                     ... 1.000e-11
   Tpresel                                  ... 1.000e-11 
Coulomb Range Separation                    ... NOT USED
Exchange Range Separation                   ... NOT USED
Multipole approximations                    ... NOT USED
Finite Nucleus Model                        ... NOT USED
CABS basis                                  ... NOT available
Auxiliary Coulomb fitting basis             ... NOT available
Auxiliary J/K fitting basis                 ... NOT available
Auxiliary Correlation fitting basis         ... NOT available
Auxiliary 'external' fitting basis          ... NOT available

Checking pre-screening integrals            ... done (  0.0 sec) Dimension = 93
   => SHARK Basis and OBASIS are compatible. Storing Pre-screening
Shell pair information
Shell pair cut-off parameter TPreSel        ...   1.0e-11
Total number of shell pairs                 ...      4371
Shell pairs after pre-screening             ...      3903
Total number of primitive shell pairs       ...     20328
Primitive shell pairs kept                  ...     12036
          la=0 lb=0:   1290 shell pairs
          la=1 lb=0:   1455 shell pairs
          la=1 lb=1:    438 shell pairs
          la=2 lb=0:    429 shell pairs
          la=2 lb=1:    249 shell pairs
          la=2 lb=2:     42 shell pairs

Checking whether 4 symmetric matrices of dimension 191 fit in memory
:Max Core in MB      =   4096.00
 MB in use           =      6.40
 MB left             =   4089.60
 MB needed           =      0.56
 Data fit in memory  = YES
Calculating Nuclear repulsion               ... done (  0.0 sec) ENN=    490.398721631573 Eh

Diagonalization of the overlap matrix:
Smallest eigenvalue                        ... 3.001e-03
Time for diagonalization                   ...    0.002 sec
Threshold for overlap eigenvalues          ... 1.000e-07
Number of eigenvalues below threshold      ... 0
Time for construction of square roots      ...    0.001 sec
Total time needed                          ...    0.003 sec

-------------------
DFT GRID GENERATION
-------------------

General Integration Accuracy     IntAcc      ... 4.388
Radial Grid Type                 RadialGrid  ... OptM3 with GC (2021)
Angular Grid (max. ang.)         AngularGrid ... 4 (Lebedev-302)
Angular grid pruning method      GridPruning ... 4 (adaptive)
Weight generation scheme         WeightScheme... mBecke (2022)
Basis function cutoff            BFCut       ... 1.0000e-10
Integration weight cutoff        WCut        ... 1.0000e-14
Partially contracted basis set               ... off
Rotationally invariant grid construction     ... off
Angular grids for H and He will be reduced by one unit

Total number of grid points                  ...    95566
Total number of batches                      ...     1505
Average number of points per batch           ...       63
Average number of grid points per atom       ...     4344
Grids setup in   0.4 sec
Initializing property integral containers    ... done (  0.0 sec)

SHARK setup successfully completed in   0.4 seconds

Maximum memory used throughout the entire STARTUP-calculation: 38.4 MB
-------------------------------------------------------------------------------
                                 ORCA GUESS
                   Start orbitals & Density for SCF / CASSCF
-------------------------------------------------------------------------------

------------
SCF SETTINGS
------------
Hamiltonian:
 Ab initio Hamiltonian  Method          .... Hartree-Fock(GTOs)


General Settings:
 Integral files         IntName         .... 2
 Hartree-Fock type      HFTyp           .... RHF
 Total Charge           Charge          ....    0
 Multiplicity           Mult            ....    1
 Number of Electrons    NEL             ....   72
 Basis Dimension        Dim             ....  191
 Nuclear Repulsion      ENuc            ....    490.3987216316 Eh

Convergence Acceleration:
 AO-DIIS                CNVDIIS         .... on
   Start iteration      DIISMaxIt       ....    12
   Startup error        DIISStart       ....  0.200000
   # of expansion vecs  DIISMaxEq       ....     5
   Bias factor          DIISBfac        ....   1.050
   Max. coefficient     DIISMaxC        ....  10.000
 MO-DIIS                CNVKDIIS        .... off
 Trust-Rad. Augm. Hess. CNVTRAH         .... auto
   Auto Start mean grad. ratio tolernc. ....  1.125000
   Auto Start start iteration           ....    50
   Auto Start num. interpolation iter.  ....    10
   Max. Number of Micro iterations      ....    24
   Max. Number of Macro iterations      .... Maxiter - #DIIS iter
   Number of Davidson start vectors     ....     2
   Converg. threshold    (grad. norm)   ....   5.000e-05
   Grad. Scal. Fac. for Micro threshold ....   0.100
   Minimum threshold for Micro iter.    ....   1.000e-02
   NR start threshold (gradient norm)   ....   1.000e-04
   Initial trust radius                 ....   0.400
   Minimum AH scaling param. (alpha)    ....   1.000
   Maximum AH scaling param. (alpha)    .... 1000.000
   Quad. conv. algorithm                .... NR
   White noise on init. David. guess    .... on
   Maximum white noise                  ....   0.010
   Pseudo random numbers                .... off
   Inactive MOs                         .... canonical
   Orbital update algorithm             .... Taylor
   Preconditioner                       .... Diag
   Full preconditioner red. dimension   ....   250
 SOSCF                 CNVSOSCF           .... on
   Start iteration     SOSCFMaxIt         ....   150
   Startup grad/error  SOSCFStart         ....  0.003300
   Hessian update      SOSCFHessUp        .... L-BFGS
   Autom. constraints  SOSCFAutoConstrain .... off
 Level Shifting         CNVShift        .... on
   Level shift para.    LevelShift      ....    0.2500
   Turn off err/grad.   ShiftErr        ....    0.0010
 Zerner damping         CNVZerner       .... off
 Static damping         CNVDamp         .... on
   Fraction old density DampFac         ....    0.7000
   Max. Damping (<1)    DampMax         ....    0.9800
   Min. Damping (>=0)   DampMin         ....    0.0000
   Turn off err/grad.   DampErr         ....    0.1000

SCF Procedure:
 Maximum # iterations   MaxIter         ....   125
 SCF integral mode      SCFMode         .... Direct
   Integral package                     .... SHARK and LIBINT hybrid scheme
 Reset frequency        DirectResetFreq ....    20
 Integral Threshold     Thresh          ....  1.000e-10 Eh
 Primitive CutOff       TCut            ....  1.000e-11 Eh

Convergence Tolerance:
 Convergence Check Mode ConvCheckMode   .... Total+1el-Energy
 Convergence forced     ConvForced      .... 1
 Energy Change          TolE            ....  1.000e-06 Eh
 1-El. energy change                    ....  1.000e-03 Eh
 Orbital Gradient       TolG            ....  5.000e-05
 Orbital Rotation angle TolX            ....  5.000e-05
 DIIS Error             TolErr          ....  1.000e-06

------------------------------
INITIAL GUESS: MODEL POTENTIAL
------------------------------
Loading Hartree-Fock densities                     ... done
Calculating cut-offs                               ... done
Initializing the effective Hamiltonian             ... done
Setting up the integral package (SHARK)            ... done
Starting the Coulomb interaction                   ... done (   0.1 sec)
Making the grid                                    ... done (   0.1 sec)
Mapping shells                                     ... done
Starting the XC term evaluation                    ... done (   0.0 sec)
Transforming the Hamiltonian                       ... done (   0.0 sec)
Diagonalizing the Hamiltonian                      ... done (   0.0 sec)
Back transforming the eigenvectors                 ... done (   0.0 sec)
Now organizing SCF variables                       ... done
                      ------------------
                      INITIAL GUESS DONE (   0.2 sec)
                      ------------------
             **** ENERGY FILE WAS UPDATED (2.en.tmp) ****
Finished Guess after   0.2 sec
Maximum memory used throughout the entire GUESS-calculation: 11.6 MB

-------------------------------------------------------------------------------------------
                                      ORCA LEAN-SCF
                              memory conserving SCF solver
-------------------------------------------------------------------------------------------

----------------------------------------D-I-I-S--------------------------------------------
Iteration    Energy (Eh)           Delta-E    RMSDP     MaxDP     DIISErr   Damp  Time(sec)
-------------------------------------------------------------------------------------------
               ***  Starting incremental Fock matrix formation  ***
    1    -438.5407408757523626     0.00e+00  2.48e-03  6.48e-02  2.53e-01  0.700   2.0
    2    -438.7042185598041897    -1.63e-01  1.88e-03  4.65e-02  1.56e-01  0.700   1.8
                               ***Turning on AO-DIIS***
    3    -438.8003107298807208    -9.61e-02  1.02e-03  2.28e-02  8.89e-02  0.700   1.8
    4    -438.8606207224524951    -6.03e-02  2.30e-03  4.79e-02  6.38e-02  0.000   1.8
    5    -438.9936385809725152    -1.33e-01  2.70e-04  7.31e-03  6.71e-03  0.000   1.8
    6    -438.9941241168839952    -4.86e-04  1.31e-04  3.52e-03  3.87e-03  0.000   1.7
                              *** Initializing SOSCF ***
---------------------------------------S-O-S-C-F--------------------------------------
Iteration    Energy (Eh)           Delta-E    RMSDP     MaxDP     MaxGrad    Time(sec)
--------------------------------------------------------------------------------------
    7    -438.9942310777086050    -1.07e-04  7.24e-05  2.62e-03  2.48e-03     1.6
               *** Restarting incremental Fock matrix formation ***
    8    -438.9942629693231311    -3.19e-05  3.67e-05  9.41e-04  6.38e-04     2.0
    9    -438.9942705075841332    -7.54e-06  3.89e-05  1.50e-03  4.28e-04     1.5
   10    -438.9942732953181803    -2.79e-06  7.03e-06  2.78e-04  1.11e-04     1.4
   11    -438.9942734933133579    -1.98e-07  2.59e-06  8.84e-05  4.48e-05     1.3
                 **** Energy Check signals convergence ****

               *****************************************************
               *                     SUCCESS                       *
               *           SCF CONVERGED AFTER  11 CYCLES          *
               *****************************************************

             **** ENERGY FILE WAS UPDATED (2.en.tmp) ****

----------------
TOTAL SCF ENERGY
----------------

Total Energy       :       -438.99427353202850 Eh          -11945.64149 eV

Components:
Nuclear Repulsion  :        490.39872163157349 Eh           13344.42763 eV
Electronic Energy  :       -929.39299516360200 Eh          -25290.06912 eV
One Electron Energy:      -1571.30804148408333 Eh          -42757.46556 eV
Two Electron Energy:        641.91504632048134 Eh           17467.39644 eV

Virial components:
Potential Energy   :       -877.61144830360968 Eh          -23881.02160 eV
Kinetic Energy     :        438.61717477158118 Eh           11935.38011 eV
Virial Ratio       :          2.00085974462957

---------------
SCF CONVERGENCE
---------------

  Last Energy change         ...    1.9800e-07  Tolerance :   1.0000e-06
  Last MAX-Density change    ...    8.8400e-05  Tolerance :   1.0000e-05
  Last RMS-Density change    ...    2.5935e-06  Tolerance :   1.0000e-06
  Last DIIS Error            ...    2.4825e-03  Tolerance :   1.0000e-06
  Last Orbital Gradient      ...    4.4795e-05  Tolerance :   5.0000e-05
  Last Orbital Rotation      ...    3.5293e-05  Tolerance :   5.0000e-05


----------------
ORBITAL ENERGIES
----------------

  NO   OCC          E(Eh)            E(eV) 
   0   2.0000     -20.619884      -561.0956 
   1   2.0000     -20.553838      -559.2984 
   2   2.0000     -15.548097      -423.0852 
   3   2.0000     -11.382351      -309.7295 
   4   2.0000     -11.270856      -306.6956 
   5   2.0000     -11.227608      -305.5188 
   6   2.0000     -11.225885      -305.4719 
   7   2.0000     -11.211351      -305.0764 
   8   2.0000     -11.209783      -305.0337 
   9   2.0000      -1.469438       -39.9855 
  10   2.0000      -1.362671       -37.0802 
  11   2.0000      -1.197121       -32.5753 
  12   2.0000      -1.093922       -29.7671 
  13   2.0000      -0.992322       -27.0025 
  14   2.0000      -0.932942       -25.3866 
  15   2.0000      -0.904902       -24.6236 
  16   2.0000      -0.810433       -22.0530 
  17   2.0000      -0.765485       -20.8299 
  18   2.0000      -0.714221       -19.4349 
  19   2.0000      -0.697174       -18.9711 
  20   2.0000      -0.665766       -18.1164 
  21   2.0000      -0.638831       -17.3835 
  22   2.0000      -0.622989       -16.9524 
  23   2.0000      -0.602406       -16.3923 
  24   2.0000      -0.595815       -16.2130 
  25   2.0000      -0.580586       -15.7985 
  26   2.0000      -0.545480       -14.8433 
  27   2.0000      -0.536824       -14.6077 
  28   2.0000      -0.532249       -14.4832 
  29   2.0000      -0.507323       -13.8050 
  30   2.0000      -0.483698       -13.1621 
  31   2.0000      -0.468795       -12.7566 
  32   2.0000      -0.462950       -12.5975 
  33   2.0000      -0.455531       -12.3956 
  34   2.0000      -0.451077       -12.2744 
  35   2.0000      -0.398370       -10.8402 
  36   0.0000       0.180349         4.9075 
  37   0.0000       0.215968         5.8768 
  38   0.0000       0.233163         6.3447 
  39   0.0000       0.244455         6.6520 
  40   0.0000       0.263420         7.1680 
  41   0.0000       0.279835         7.6147 
  42   0.0000       0.294890         8.0244 
  43   0.0000       0.300798         8.1851 
  44   0.0000       0.319090         8.6829 
  45   0.0000       0.326800         8.8927 
  46   0.0000       0.334148         9.0926 
*Only the first 10 virtual orbitals were printed.

                    ********************************
                    * MULLIKEN POPULATION ANALYSIS *
                    ********************************

-----------------------
MULLIKEN ATOMIC CHARGES
-----------------------
   0 C :   -0.034299
   1 C :    0.790404
   2 H :    0.270611
   3 H :    0.283873
   4 C :   -0.200976
   5 H :    0.158688
   6 H :    0.113102
   7 N :   -0.682231
   8 C :   -0.149188
   9 H :    0.141099
  10 H :    0.124845
  11 C :   -0.326151
  12 H :    0.112427
  13 C :   -0.317936
  14 H :    0.125852
  15 H :    0.108508
  16 H :    0.117138
  17 H :    0.112712
  18 H :    0.110106
  19 O :   -0.637456
  20 H :    0.370410
  21 O :   -0.591538
Sum of atomic charges:   -0.0000000

--------------------------------
MULLIKEN REDUCED ORBITAL CHARGES
--------------------------------
  0 C s       :     3.197599  s :     3.197599
      pz      :     0.911927  p :     2.766463
      px      :     0.943979
      py      :     0.910557
      dz2     :     0.007388  d :     0.070237
      dxz     :     0.023053
      dyz     :     0.016897
      dx2y2   :     0.016925
      dxy     :     0.005973

  1 C s       :     2.959671  s :     2.959671
      pz      :     0.646280  p :     2.103912
      px      :     0.824277
      py      :     0.633355
      dz2     :     0.041175  d :     0.146013
      dxz     :     0.043064
      dyz     :     0.020946
      dx2y2   :     0.020984
      dxy     :     0.019844

  2 H s       :     0.703332  s :     0.703332
      pz      :     0.005645  p :     0.026056
      px      :     0.006406
      py      :     0.014005

  3 H s       :     0.690040  s :     0.690040
      pz      :     0.009127  p :     0.026087
      px      :     0.013276
      py      :     0.003683

  4 C s       :     3.236057  s :     3.236057
      pz      :     0.977494  p :     2.916660
      px      :     1.087275
      py      :     0.851892
      dz2     :     0.002878  d :     0.048259
      dxz     :     0.015555
      dyz     :     0.012320
      dx2y2   :     0.014841
      dxy     :     0.002666

  5 H s       :     0.829161  s :     0.829161
      pz      :     0.003963  p :     0.012151
      px      :     0.006805
      py      :     0.001384

  6 H s       :     0.874243  s :     0.874243
      pz      :     0.004318  p :     0.012655
      px      :     0.006554
      py      :     0.001783

  7 N s       :     3.607536  s :     3.607536
      pz      :     1.327700  p :     4.039961
      px      :     1.568113
      py      :     1.144148
      dz2     :     0.004395  d :     0.034733
      dxz     :     0.006283
      dyz     :     0.011236
      dx2y2   :     0.011840
      dxy     :     0.000979

  8 C s       :     3.235223  s :     3.235223
      pz      :     0.950959  p :     2.858129
      px      :     0.988947
      py      :     0.918223
      dz2     :     0.004083  d :     0.055837
      dxz     :     0.016565
      dyz     :     0.015451
      dx2y2   :     0.015515
      dxy     :     0.004224

  9 H s       :     0.846442  s :     0.846442
      pz      :     0.004389  p :     0.012459
      px      :     0.006464
      py      :     0.001605

 10 H s       :     0.862711  s :     0.862711
      pz      :     0.004196  p :     0.012444
      px      :     0.006563
      py      :     0.001684

 11 C s       :     3.248385  s :     3.248385
      pz      :     1.008583  p :     3.035716
      px      :     0.963740
      py      :     1.063393
      dz2     :     0.001266  d :     0.042050
      dxz     :     0.012545
      dyz     :     0.013890
      dx2y2   :     0.013163
      dxy     :     0.001186

 12 H s       :     0.874900  s :     0.874900
      pz      :     0.004121  p :     0.012673
      px      :     0.001837
      py      :     0.006715

 13 C s       :     3.248367  s :     3.248367
      pz      :     1.021791  p :     3.027275
      px      :     1.047099
      py      :     0.958385
      dz2     :     0.001212  d :     0.042294
      dxz     :     0.013679
      dyz     :     0.012709
      dx2y2   :     0.012852
      dxy     :     0.001841

 14 H s       :     0.861294  s :     0.861294
      pz      :     0.004658  p :     0.012854
      px      :     0.001843
      py      :     0.006352

 15 H s       :     0.878914  s :     0.878914
      pz      :     0.003913  p :     0.012578
      px      :     0.006830
      py      :     0.001835

 16 H s       :     0.870603  s :     0.870603
      pz      :     0.004192  p :     0.012259
      px      :     0.006369
      py      :     0.001697

 17 H s       :     0.874638  s :     0.874638
      pz      :     0.004675  p :     0.012650
      px      :     0.001884
      py      :     0.006091

 18 H s       :     0.877285  s :     0.877285
      pz      :     0.004239  p :     0.012609
      px      :     0.006461
      py      :     0.001910

 19 O s       :     3.838720  s :     3.838720
      pz      :     1.330519  p :     4.773454
      px      :     1.608026
      py      :     1.834909
      dz2     :     0.007392  d :     0.025282
      dxz     :     0.007674
      dyz     :     0.003902
      dx2y2   :     0.004488
      dxy     :     0.001825

 20 H s       :     0.588192  s :     0.588192
      pz      :     0.011918  p :     0.041398
      px      :     0.020541
      py      :     0.008939

 21 O s       :     3.874482  s :     3.874482
      pz      :     1.777972  p :     4.684429
      px      :     1.437214
      py      :     1.469244
      dz2     :     0.003646  d :     0.032627
      dxz     :     0.007996
      dyz     :     0.002215
      dx2y2   :     0.008296
      dxy     :     0.010474



                     *******************************
                     * LOEWDIN POPULATION ANALYSIS *
                     *******************************

----------------------
LOEWDIN ATOMIC CHARGES
----------------------
   0 C :   -0.024959
   1 C :    0.230097
   2 H :    0.128189
   3 H :    0.135013
   4 C :   -0.099658
   5 H :    0.077962
   6 H :    0.063107
   7 N :   -0.274478
   8 C :   -0.071627
   9 H :    0.074084
  10 H :    0.066786
  11 C :   -0.181675
  12 H :    0.064271
  13 C :   -0.176110
  14 H :    0.066582
  15 H :    0.061472
  16 H :    0.058511
  17 H :    0.063196
  18 H :    0.062331
  19 O :   -0.209521
  20 H :    0.200194
  21 O :   -0.313767

-------------------------------
LOEWDIN REDUCED ORBITAL CHARGES
-------------------------------
  0 C s       :     2.868522  s :     2.868522
      pz      :     0.992645  p :     3.016226
      px      :     1.020856
      py      :     1.002725
      dz2     :     0.014831  d :     0.140211
      dxz     :     0.045716
      dyz     :     0.034056
      dx2y2   :     0.033727
      dxy     :     0.011880

  1 C s       :     2.850853  s :     2.850853
      pz      :     0.886656  p :     2.602630
      px      :     1.033743
      py      :     0.682232
      dz2     :     0.091925  d :     0.316419
      dxz     :     0.096937
      dyz     :     0.044655
      dx2y2   :     0.043497
      dxy     :     0.039405

  2 H s       :     0.790523  s :     0.790523
      pz      :     0.018960  p :     0.081288
      px      :     0.020267
      py      :     0.042061

  3 H s       :     0.782900  s :     0.782900
      pz      :     0.028256  p :     0.082087
      px      :     0.042337
      py      :     0.011494

  4 C s       :     2.894105  s :     2.894105
      pz      :     1.044053  p :     3.113885
      px      :     1.084014
      py      :     0.985818
      dz2     :     0.006351  d :     0.091668
      dxz     :     0.026196
      dyz     :     0.025071
      dx2y2   :     0.028273
      dxy     :     0.005777

  5 H s       :     0.881874  s :     0.881874
      pz      :     0.012187  p :     0.040164
      px      :     0.021328
      py      :     0.006649

  6 H s       :     0.897241  s :     0.897241
      pz      :     0.013493  p :     0.039653
      px      :     0.019595
      py      :     0.006565

  7 N s       :     3.189091  s :     3.189091
      pz      :     1.335047  p :     4.023972
      px      :     1.526298
      py      :     1.162627
      dz2     :     0.009225  d :     0.061414
      dxz     :     0.011326
      dyz     :     0.019903
      dx2y2   :     0.018837
      dxy     :     0.002123

  8 C s       :     2.872263  s :     2.872263
      pz      :     1.030348  p :     3.089329
      px      :     1.044153
      py      :     1.014828
      dz2     :     0.008483  d :     0.110035
      dxz     :     0.031144
      dyz     :     0.031449
      dx2y2   :     0.030229
      dxy     :     0.008730

  9 H s       :     0.885537  s :     0.885537
      pz      :     0.014389  p :     0.040379
      px      :     0.019694
      py      :     0.006296

 10 H s       :     0.893278  s :     0.893278
      pz      :     0.013846  p :     0.039936
      px      :     0.019601
      py      :     0.006488

 11 C s       :     2.906862  s :     2.906862
      pz      :     1.065384  p :     3.199892
      px      :     1.048312
      py      :     1.086196
      dz2     :     0.002921  d :     0.074921
      dxz     :     0.022959
      dyz     :     0.023257
      dx2y2   :     0.022946
      dxy     :     0.002838

 12 H s       :     0.896082  s :     0.896082
      pz      :     0.013085  p :     0.039647
      px      :     0.006560
      py      :     0.020003

 13 C s       :     2.908187  s :     2.908187
      pz      :     1.070383  p :     3.192601
      px      :     1.082612
      py      :     1.039606
      dz2     :     0.002630  d :     0.075323
      dxz     :     0.022763
      dyz     :     0.023170
      dx2y2   :     0.022691
      dxy     :     0.004069

 14 H s       :     0.892794  s :     0.892794
      pz      :     0.014579  p :     0.040624
      px      :     0.006651
      py      :     0.019393

 15 H s       :     0.898776  s :     0.898776
      pz      :     0.012301  p :     0.039752
      px      :     0.020560
      py      :     0.006891

 16 H s       :     0.902407  s :     0.902407
      pz      :     0.013105  p :     0.039082
      px      :     0.019079
      py      :     0.006898

 17 H s       :     0.897176  s :     0.897176
      pz      :     0.014334  p :     0.039628
      px      :     0.006788
      py      :     0.018505

 18 H s       :     0.897936  s :     0.897936
      pz      :     0.013407  p :     0.039733
      px      :     0.019335
      py      :     0.006991

 19 O s       :     3.459565  s :     3.459565
      pz      :     1.339845  p :     4.701731
      px      :     1.577097
      py      :     1.784790
      dz2     :     0.017565  d :     0.048225
      dxz     :     0.016842
      dyz     :     0.006673
      dx2y2   :     0.005600
      dxy     :     0.001546

 20 H s       :     0.679701  s :     0.679701
      pz      :     0.033211  p :     0.120105
      px      :     0.059136
      py      :     0.027758

 21 O s       :     3.547859  s :     3.547859
      pz      :     1.747928  p :     4.708727
      px      :     1.509458
      py      :     1.451342
      dz2     :     0.007931  d :     0.057181
      dxz     :     0.015590
      dyz     :     0.003373
      dx2y2   :     0.015896
      dxy     :     0.014391



                      *****************************
                      * MAYER POPULATION ANALYSIS *
                      *****************************

  NA   - Mulliken gross atomic population
  ZA   - Total nuclear charge
  QA   - Mulliken gross atomic charge
  VA   - Mayer's total valence
  BVA  - Mayer's bonded valence
  FA   - Mayer's free valence

  ATOM       NA         ZA         QA         VA         BVA        FA
  0 C      6.0343     6.0000    -0.0343     3.7579     3.7579     0.0000
  1 C      5.2096     6.0000     0.7904     3.6524     3.6524    -0.0000
  2 H      0.7294     1.0000     0.2706     0.9057     0.9057     0.0000
  3 H      0.7161     1.0000     0.2839     0.9057     0.9057    -0.0000
  4 C      6.2010     6.0000    -0.2010     3.7649     3.7649    -0.0000
  5 H      0.8413     1.0000     0.1587     0.9407     0.9407    -0.0000
  6 H      0.8869     1.0000     0.1131     0.9534     0.9534    -0.0000
  7 N      7.6822     7.0000    -0.6822     2.7703     2.7703    -0.0000
  8 C      6.1492     6.0000    -0.1492     3.7968     3.7968     0.0000
  9 H      0.8589     1.0000     0.1411     0.9515     0.9515     0.0000
 10 H      0.8752     1.0000     0.1248     0.9531     0.9531    -0.0000
 11 C      6.3262     6.0000    -0.3262     3.8318     3.8318    -0.0000
 12 H      0.8876     1.0000     0.1124     0.9549     0.9549    -0.0000
 13 C      6.3179     6.0000    -0.3179     3.8437     3.8437     0.0000
 14 H      0.8741     1.0000     0.1259     0.9540     0.9540     0.0000
 15 H      0.8915     1.0000     0.1085     0.9531     0.9531     0.0000
 16 H      0.8829     1.0000     0.1171     0.9469     0.9469     0.0000
 17 H      0.8873     1.0000     0.1127     0.9541     0.9541     0.0000
 18 H      0.8899     1.0000     0.1101     0.9530     0.9530     0.0000
 19 O      8.6375     8.0000    -0.6375     1.8250     1.8250     0.0000
 20 H      0.6296     1.0000     0.3704     0.8732     0.8732     0.0000
 21 O      8.5915     8.0000    -0.5915     1.8909     1.8909    -0.0000

  Mayer bond orders larger than 0.100000
B(  0-C ,  1-C ) :   0.8968 B(  0-C ,  4-C ) :   0.9696 B(  0-C ,  5-H ) :   0.9589 
B(  0-C ,  7-N ) :   0.9932 B(  1-C , 19-O ) :   0.9591 B(  1-C , 21-O ) :   1.8276 
B(  2-H ,  7-N ) :   0.9111 B(  3-H ,  7-N ) :   0.8965 B(  4-C ,  8-C ) :   0.9666 
B(  4-C ,  9-H ) :   0.9633 B(  4-C , 10-H ) :   0.9659 B(  6-H , 13-C ) :   0.9762 
B(  8-C , 11-C ) :   0.9702 B(  8-C , 13-C ) :   0.9808 B(  8-C , 16-H ) :   0.9676 
B( 11-C , 12-H ) :   0.9772 B( 11-C , 14-H ) :   0.9723 B( 11-C , 15-H ) :   0.9716 
B( 13-C , 17-H ) :   0.9767 B( 13-C , 18-H ) :   0.9722 B( 19-O , 20-H ) :   0.8406 


-------
TIMINGS
-------

Total SCF time: 0 days 0 hours 0 min 19 sec 

Total time                  ....      19.862 sec
Sum of individual times     ....      18.689 sec  ( 94.1%)

SCF preparation             ....       0.015 sec  (  0.1%)
Fock matrix formation       ....      18.618 sec  ( 93.7%)
  Startup                   ....       0.001 sec  (  0.0% of F)
  Coulomb+Exchange Fock     ....      19.781 sec  (106.2% of F)
Diagonalization             ....       0.000 sec  (  0.0%)
Density matrix formation    ....       0.004 sec  (  0.0%)
Total Energy calculation    ....       0.001 sec  (  0.0%)
Population analysis         ....       0.003 sec  (  0.0%)
Orbital Transformation      ....       0.006 sec  (  0.0%)
Orbital Orthonormalization  ....       0.000 sec  (  0.0%)
DIIS solution               ....       0.030 sec  (  0.2%)
SOSCF solution              ....       0.010 sec  (  0.1%)
Finished LeanSCF after  19.9 sec

Maximum memory used throughout the entire LEANSCF-calculation: 15.2 MB

------------------------------------------------------------------------------
                                ORCA  MP2 
------------------------------------------------------------------------------

Freezing NCore=18 chemical core electrons

----------
MP2 ENERGY (disk based algorithm)
----------

Dimension of the basis                      ...  191
Memory devoted to MP2                       ... 4096 MB   
Data format for buffers                     ... DOUBLE
Compression type for matrix containers      ... UNCOMPRESSED

-------------------------
SHARK HALF TRANSFORMATION (Exchange order)
-------------------------

Number of basis functions                   ...    191
Number of operators                         ...      1
   Operator  0:    9-  35 (p-index in (p*|q*))
   Operator  0:    9-  35 (q-index in (p*|q*)
Integral generator used                     ... SHARK
Contraction scheme used                     ... SEGMENTED CONTRACTION
MaxCore in resort                           ...   4096 MB

Half transformed integrals for op=   0      ... 2.SHARK_MNPQ0.tmp
Resorted half transformed integrals         ... 2.KAO_aa.tmp

Half trafo (segmented) done. Total time = 12.0 sec. integrals= 10.8 sec trafo=  1.1 sec

----------------------
SHARK INTEGRAL SORTING (Exchange)
----------------------

Input container                             ... 2.SHARK_MNPQ0.tmp
Output container                            ... 2.KAO_aa.tmp
Range of AO-indices                         ...    0 -  190
Range of bra indices i                      ...    9 -   35
Range of ket indices j                      ...    9 -   35
Symmetric i,j range                         ... YES
Number of (i,j) pairs generated             ...  378
Max Core memory in MB                       ...   4096

Available core memory in MB                 ...   4086.15
MB needed for one item                      ...      0.28
Fixed MB needed                             ...      0.00
Number of items                             ...       378
Number of batches                           ...         1
Items treated per batch                     ...       378
Batch   0                                   ...      0-   377 (   378)
   => Closing output file and leaving
done (  0.1 sec)

SHARK half integral transformation done. Total time = 12.1 sec.


Finished integral transformation - now doing MP2 part

OPERATOR COMBINATION   0   0: ij=(  9.. 35,  9.. 35)
  Internal MO  11
  Internal MO  14
  Internal MO  17
  Internal MO  20
  Internal MO  23
  Internal MO  26
  Internal MO  29
  Internal MO  32
  Internal MO  35
-----------------------------------------------
 MP2 CORRELATION ENERGY   :     -1.369355193 Eh
-----------------------------------------------


-------
TIMINGS
-------
Total time                :   12.258 sec
Integral trafo            :   12.105 sec ( 98.7%)
K(i,j)                    :    0.127 sec (  1.0%)
T(i,j)                    :    0.004 sec (  0.0%)

---------------------------------------
MP2 TOTAL ENERGY:     -440.363628725 Eh
---------------------------------------

Maximum memory used throughout the entire MP2-calculation: 116.1 MB

-------------------------   --------------------
FINAL SINGLE POINT ENERGY      -440.363628725010
-------------------------   --------------------


------------------------------------------------------------------------------
                              ORCA PROPERTY CALCULATIONS
------------------------------------------------------------------------------

GBWName                                 ... 2.gbw
Number of atoms                         ...     22
Number of basis functions               ...    191
Max core memory                         ...   4096 MB

Electric properties:
Dipole moment                           ... YES
Quadrupole moment                       ...  NO
Static polarizability (Dipole/Dipole)   ...  NO
Static polarizability (Dipole/Quad.)    ...  NO
Static polarizability (Quad./Quad.)     ...  NO
Static polarizability (Velocity)        ...  NO
Static hyperpolarizability              ...  NO

Atomic electric properties:
Dipole moment                           ...  NO
Quadrupole moment                       ...  NO
Static polarizability                   ...  NO

Choice of electric origin               ... Center of mass
Position of electric origin             ...   -17.420889    10.656196    -3.290201

General magnetic properties:
Magnetizability                         ...  NO

EPR properties:
g-Tensor (aka g-matrix)                 ...  NO
Zero-Field splitting spin-orbit         ...  NO
Zero-field splitting spin-spin          ...  NO
Hyperfine couplings                     ...  NO (   0 nuclei)
Quadrupole couplings                    ...  NO (   0 nuclei)
Contact density                         ...  NO (   0 nuclei)

NMR properties:
Chemical shifts                         ...  NO (   0 nuclei)
Spin-rotation constants                 ...  NO (   0 nuclei)
Spin-spin couplings                     ...  NO (   0 nuclei,    0 pairs)

Choice of magnetic origin               ... GIAO
Position of magnetic origin             ...     0.000000     0.000000     0.000000

Properties with geometric perturbations:
SCF Hessian                             ...  NO
IR spectrum                             ...  NO
VCD spectrum                            ...  NO
X-ray spectroscopy properties:
SCF XES/XAS/RIXS spectra                ...  NO

SCF SOC stabilization energy            ...  NO
Diagonal Born-Oppenheimer correction    ...  NO

-------------
DIPOLE MOMENT
-------------

Method             : SCF
Type of density    : Electron Density
Multiplicity       :   1
Irrep              :   0
Energy             :  -438.9942735320285010 Eh
Basis              : AO
                                X                 Y                 Z
Electronic contribution:      6.137406599       9.646242282       2.788212588
Nuclear contribution   :     -6.274584380      -9.790578575      -2.189729310
                        -----------------------------------------
Total Dipole Moment    :     -0.137177780      -0.144336292       0.598483278
                        -----------------------------------------
Magnitude (a.u.)       :      0.630739996
Magnitude (Debye)      :      1.603213660



--------------------
Rotational spectrum 
--------------------
 
Rotational constants in cm-1:             0.074601             0.035089             0.030921 
Rotational constants in MHz :          2236.470928          1051.948179           926.973638 

Dipole components along the rotational axes: 
x,y,z [a.u.] :     0.153328    -0.546865    -0.274340 
x,y,z [Debye]:     0.389728    -1.390020    -0.697316 

 

Dipole moment calculation done in   0.0 sec 

Maximum memory used throughout the entire PROP-calculation: 10.0 MB

--------------------------------
SUGGESTED CITATIONS FOR THIS RUN
--------------------------------

Below you find a list of papers that are relevant to this ORCA run
We neither can nor want to force you to cite these papers, but we appreciate if you do
You receive ORCA, which is the product of decades of hard work by many enthusiastic individuals, for free
The only thing we kindly ask in return is that you cite our papers,
We deeply appreciate it, if you show your appreciation for ORCA by not just citing the generic ORCA reference.

Please note that relegating all ORCA citations to the supporting information does *not* help us.
SI sections are not indexed - citations you put there will not count into any citation statistics
But we need these citations in order to attract the funding resources that allow us to do what we are doing

Therefore, if you are a happy ORCA user, please consider citing a few of the papers listed below in the main body of your paper

In addition to the list printed below, the program has created the file 2.bibtex that contains the list in bibtex format
You can import this file easily into all common literature databanks and citation aid programs


List of essential papers. We consider these as the minimum necessary citations

  1. Neese, F.
     Software update: the ORCA program system, version 6.0
     WIRES Comput. Molec. Sci. 2025 15(1), e70019
     doi.org/10.1002/wcms.7019

List of papers to cite with high priority. The work reported in these papers was absolutely
necessary for this run to complete.
Our perspective: the developers of density functionals and basis sets usually get cited in chemistry papers
Good! But without the algorithms to do something with them, the functionals or basis sets would not do anything.
Hence, in our opinion, the algorithm design and method developments papers are equally worthy of getting cited

  1. Neese, F.
     The SHARK Integral Generation and Digestion System
     J. Comp. Chem. 2022 44(3), 381
     doi.org/10.1002/jcc.26942

List of suggested additional citations. These are papers that are important in the 'surrounding' of 
of this run, or papers that preceded the highly important papers. If you like your results we are grateful for a citation.

  1. Neese, F.
     The ORCA program system
     WIRES Comput. Molec. Sci. 2012 2(1), 73-78
     doi.org/10.1002/wcms.81
  2. Neese, F.
     Software update: the ORCA program system, version 4.0
     WIRES Comput. Molec. Sci. 2018 8(1), 1-6
     doi.org/10.1002/wcms.1327
  3. Neese, F.; Wennmohs, F.; Becker, U.; Riplinger, C.
     The ORCA quantum chemistry program package
     J. Chem. Phys. 2020 152(22), 224108
     doi.org/10.1063/5.0004608
  4. Neese, F.
     Software update: The ORCA program system—Version 5.0
     WIRES Comput. Molec. Sci. 2022 12(1), e1606
     doi.org/10.1002/wcms.1606

List of optional additional citations

  1. Neese, F.
     Approximate second-order SCF convergence for spin unrestricted wavefunctions
     Chem. Phys. Lett. 2000 325(1-3), 93-98
     doi.org/10.1016/s0009-2614(00)00662-x

Timings for individual modules:

Sum of individual times          ...       32.877 sec (=   0.548 min)
Startup calculation              ...        0.444 sec (=   0.007 min)   1.4 %
SCF iterations                   ...       20.125 sec (=   0.335 min)  61.2 %
Property calculations            ...        0.024 sec (=   0.000 min)   0.1 %
MP2 module                       ...       12.283 sec (=   0.205 min)  37.4 %
                             ****ORCA TERMINATED NORMALLY****
TOTAL RUN TIME: 0 days 0 hours 0 minutes 32 seconds 914 msec
