
                                 *****************
                                 * O   R   C   A *
                                 *****************

                                            #,                                       
                                            ###                                      
                                            ####                                     
                                            #####                                    
                                            ######                                   
                                           ########,                                 
                                     ,,################,,,,,                         
                               ,,#################################,,                 
                          ,,##########################################,,             
                       ,#########################################, ''#####,          
                    ,#############################################,,   '####,        
                  ,##################################################,,,,####,       
                ,###########''''           ''''###############################       
              ,#####''   ,,,,##########,,,,          '''####'''          '####       
            ,##' ,,,,###########################,,,                        '##       
           ' ,,###''''                  '''############,,,                           
         ,,##''                                '''############,,,,        ,,,,,,###''
      ,#''                                            '''#######################'''  
     '                                                          ''''####''''         
             ,#######,   #######,   ,#######,      ##                                
            ,#'     '#,  ##    ##  ,#'     '#,    #''#        ,####,    ,#,          
            ##       ##  ##   ,#'  ##            #'  '#       #'       ,# #          
            ##       ##  #######   ##           ,######,      #####,      #          
            '#,     ,#'  ##    ##  '#,     ,#' ,#      #,     #,   #      #          
             '#######'   ##     ##  '#######'  #'      '#     '####' #    #          



                #########################################################
                #                        -***-                          #
                #          Department of theory and spectroscopy        #
                #                                                       #
                #                      Frank Neese                      #
                #                                                       #
                #     Directorship, Architecture, Infrastructure        #
                #                    SHARK, DRIVERS                     #
                #        Core code/Algorithms in most modules           #
                #                                                       #
                #        Max Planck Institute fuer Kohlenforschung      #
                #                Kaiser Wilhelm Platz 1                 #
                #                 D-45470 Muelheim/Ruhr                 #
                #                      Germany                          #
                #                                                       #
                #                  All rights reserved                  #
                #                        -***-                          #
                #########################################################


                         Program Version 6.1.0  -  RELEASE   -
                                (GIT: $679e74b$)
                          ($2025-06-10 18:02:51 +0200$)


 With contributions from (in alphabetic order):
[Max-Planck-Institut fuer Kohlenforschung]                               
  Daniel Aravena         : Magnetic Suceptibility                        
  Michael Atanasov       : Ab Initio Ligand Field Theory (pilot matlab implementation)
  Alexander A. Auer      : GIAO ZORA, VPT2 properties, NMR spectrum      
  Ute Becker             : All parallelization in ORCA, NUMFREQ, NUMCALC 
  Giovanni Bistoni       : ED, misc. LED, open-shell LED, HFLD           
  Dmytro Bykov           : pre 5.0 version of the SCF Hessian            
  Marcos Casanova-Páez   : Triplet and SCS-CIS(D). UHF-(DLPNO)-IP/EA/STEOM-CCSD. UHF-CVS-IP/STEOM-CCSD   
  Vijay G. Chilkuri      : MRCI spin determinant printing, contributions to CSF-ICE 
  Pauline Colinet        : FMM embedding                                 
  Dipayan Datta          : RHF DLPNO-CCSD density                        
  Achintya Kumar Dutta   : EOM-CC, STEOM-CC                              
  Nicolas Foglia         : Exact transition moments, OPA infrastructure, MCD improvements    
  Dmitry Ganyushin       : Spin-Orbit,Spin-Spin,Magnetic field MRCI      
  Miquel Garcia-Rates    : C-PCM and meta-GGA Hessian, CCSD/C-PCM, Gaussian charge scheme 
  Tiago L. C. Gouveia    : GS-ROHF, GS-ROCIS                             
  Yang Guo               : DLPNO-NEVPT2, F12-NEVPT2, CIM, IAO-localization        
  Andreas Hansen         : Spin unrestricted coupled pair/coupled cluster methods 
  Ingolf Harden          : AUTO-CI MPn and infrastructure                
  Benjamin Helmich-Paris : MC-RPA, TRAH-(SCF,CASSCF), AVAS, COSX integrals, SCF dyn. polar., MC-PDFT, srDFT 
  Lee Huntington         : MR-EOM, pCC                                   
  Robert Izsak           : Overlap fitted RIJCOSX, COSX-SCS-MP3, EOM     
  Riya Kayal             : Wick's Theorem for AUTO-CI, AUTO-CI UHF-CCSDT 
  Emily Kempfer          : AUTO-CI RHF CISDT and CCSDT, approximate NEVPT4
  Christian Kollmar      : KDIIS, OOCD, Brueckner-CCSD(T), CCSD density, CASPT2, CASPT2-K, improved NEVPT2 
  Axel Koslowski         : Symmetry handling                             
  Simone Kossmann        : meta-GGA functionals, TD-DFT gradient, OOMP2, (MP2 Hessian; deprecated post 5.0) 
  Lucas Lang             : DCDCAS, Hyperfine gauge corrections, ICE-SOC+SSC
  Marvin Lechner         : AUTO-CI (C++ implementation), FIC-MRCC        
  Spencer Leger          : CASSCF response                               
  Dagmar Lenk            : GEPOL surface, SMD, ORCA-2-JSON               
  Dimitrios Liakos       : Extrapolation schemes; Compound Job, Property file
  Dimitrios Manganas     : Further ROCIS development; embedding schemes. LFT, Crystal Embedding 
  Dimitrios Pantazis     : SARC Basis sets                               
  Anastasios Papadopoulos: AUTO-CI, single reference methods and gradients 
  Taras Petrenko         : pre 6.0 DFT Hessian and TD-DFT gradient,  ECA, NRVS 
  Petra Pikulova         : Analytic Raman intensities                    
  Peter Pinski           : DLPNO-MP2, DLPNO-MP2 Gradient                 
  Shashank Vittal Rao    : ES-AILFT, MagRelax                            
  Christoph Reimann      : Effective Core Potentials                     
  Marius Retegan         : Local ZFS, SOC                                
  Christoph Riplinger    : Optimizer, TS searches, QM/MM, DLPNO-CCSD(T), (RO)-DLPNO pert. Triples 
  Michael Roemelt        : Original ROCIS implementation, recursive CI coupling coefficients
  Masaaki Saitow         : Open-shell DLPNO-CCSD energy and density      
  Barbara Sandhoefer     : DKH picture change effects                    
  Yorick L. A. Schmerwitz: GMF and freeze-and-release deltaSCF, NEB S-IDPP initial path                    
  Kantharuban Sivalingam : CASSCF convergence/infrastructure, NEVPT2, NEVPT3, NEVPT4(SD), FIC-MRCI and CEPA variants
  Bernardo de Souza      : ESD, SOC TD-DFT                               
  Georgi L. Stoychev     : AutoAux, RI-MP2 NMR, DLPNO-MP2 response, X2C  
  Van Anh Tran           : RI-MP2 g-tensors                              
  Willem Van den Heuvel  : Paramagnetic NMR                              
  Zikuan Wang            : NOTCH, Electric field optimization            
  Frank Wennmohs         : Technical directorship and infrastructure     
  Hang Xu                : AUTO-CI-Response properties                   
                                                                         
[FACCTs GmbH]                                                            
  Markus Bursch, Nicolas Foglia, Miquel Garcia-Rates, Ingolf Harden, Hagen Neugebauer, Anastasios Papadopoulos, 
  Christoph Riplinger, Bernardo de Souza, Georgi L. Stoychev                                                    
                                                                 
  APM, various basis sets, CI-OPT, improved COSX, DLPNO-Multilevel,           
  DOCKER, DRACO, updates on ESD, Fragmentator, GOAT, IRC, LR-CPCM, L-BFGS, MBIS, meta-GGA TD-DFT gradient, ML-optimized integration grids, 
  MM, NACMEs, nearIR, NEB, NEB-TS, NL-DFT gradient (VV10), 2- and 3-layer-ONIOM, interface openCOSMO-RS, QMMM,   
  Crystal-QMMM, RESP, rigid body optimization, SF, symmetry and pop. for TD-DFT, various functionals, SOLVATOR                                   
                                                                         
[Other institutions]                                                     
  V. Asgeirsson          : NEB                                           
  Christoph Bannwarth    : sTDA-DFT, sTD-DFT, PBEh-3c, B97-3c, D3        
  Giovanni Bistoni       : ETS/NOCV, ADLD/ADEX, COVALED                  
  Martin Brehm           : Molecular dynamics                            
  Ronald Cardenas        : ETS/NOCV                                      
  Martina Colucci        : COVALED                                       
  Sebastian Ehlert       : rSCAN, r2SCAN, r2SCAN-3c, D4, dhf basis sets  
  Marvin Friede          : D4 for Fr, Ra, Ac-Lr                          
  Lars Goerigk           : TD-DFT with DH, B97 family of functionals     
  Stefan Grimme          : VdW corrections, initial TS optimization, DFT functionals, gCP, sTDA/sTD-DF 
  Waldemar Hujo          : DFT-NL                                        
  H. Jonsson             : NEB                                           
  Holger Kruse           : gCP                                           
  Marcel Mueller         : wB97X-3c, vDZP basis set                      
  Hagen Neugebauer       : wr2SCAN, Native XTB                           
  Gianluca Regni         : ADLD/ADEX                                     
  Tobias Risthaus        : pre 6.0 range-separated hybrid DFT and stability analysis
  Lukas Wittmann         : regularized MP2, r2SCAN double-hybrids, wr2SCAN        
                                                                         
We gratefully acknowledge several colleagues who have allowed us to      
interface, adapt or use parts of their codes:                            
  Ed Valeev, F. Pavosevic, A. Kumar             : LibInt (2-el integral package), F12 methods 
  Garnet Chan, S. Sharma, J. Yang, R. Olivares  : DMRG                   
  Ulf Ekstrom                                   : XCFun DFT Library      
  Mihaly Kallay                                 : mrcc  (arbitrary order and MRCC methods)
  Frank Weinhold                                : gennbo (NPA and NBO analysis)           
  Simon Mueller                                 : openCOSMO-RS                            
  Christopher J. Cramer and Donald G. Truhlar   : smd solvation model                     
  S Lehtola, MJT Oliveira, MAL Marques          : LibXC Library                           
  Liviu Ungur et al                             : ANISO software                          


 Your calculation uses the libint2 library for the computation of 2-el integrals
 For citations please refer to: http://libint.valeyev.net

 Your ORCA version has been built with support for libXC version: 7.0.0
 For citations please refer to: https://libxc.gitlab.io

 This ORCA versions uses:
   CBLAS   interface :  Fast vector & matrix operations
   LAPACKE interface :  Fast linear algebra routines
   SCALAPACK package :  Parallel linear algebra routines
   Shared memory     :  Shared parallel matrices
   BLAS/LAPACK       :  OpenBLAS 0.3.29  USE64BITINT DYNAMIC_ARCH NO_AFFINITY Haswell SINGLE_THREADED
        Core in use  :  Haswell
   Copyright (c) 2011-2014, The OpenBLAS Project


  ***********************************
  * Starting time: Sat Aug 30 16:12:13 2025
  * Host name:     chemlab03
  * Process ID:    81886
  * Working dir.:  /home/vivek/mm-project/vivek/xtb-goat/B97-D-opt/i/3
  ***********************************



***************************************
The coordinates will be read from file: /home/vivek/mm-project/vivek/xtb-goat/xtb-goat/i/I_CONF/3.xyz
***************************************


Your calculation utilizes empirical dispersion correction


Warning: RI is on but no J-basis has been assigned. Assigning Def2/J (nothing to worry about!)
================================================================================

----- Orbital basis set information -----
Your calculation utilizes the basis: 6-31G**
   H-He, Li-Ne : W. J. Hehre, R. Ditchfield and J.A. Pople, J. Chem. Phys. 56, 2257 (1972).
                 Note: He and Ne are unpublished basis sets taken from the Gaussian program.
                 Note: Li and B from J. D. Dill and J. A. Pople, J. Chem. Phys. 62, 2921 (1975).
   Na - Ar     : M. M. Francl, W. J. Pietro, W. J. Hehre, J. S. Binkley, M. S. Gordon, 
                 D. J. DeFrees and J. A. Pople, J. Chem. Phys. 77, 3654 (1982).
   K - Zn      : V. A. Rassolov, J. A. Pople, M. A. Ratner, and T. L. Windus, J. Chem. Phys. 109, 1223 (1998).

----- AuxJ basis set information -----
Your calculation utilizes the auxiliary basis: def2/J
   H-Rn: F. Weigend, Phys. Chem. Chem. Phys. 8, 1057 (2006).
   Fr-Lr: K. Eichkorn, F. Weigend, O. Treutler, R. Ahlrichs; Theor. Chem. Acc. 97, 119 (1997).

================================================================================
                                        WARNINGS
                       Please study these warnings very carefully!
================================================================================


WARNING: Geometry Optimization
  ===> : Switching off AutoStart
         For restart on a previous wavefunction, please use MOREAD

INFO   : The exchange functional is Grimme's B97(-D)
         As described in S. Grimme, J. Comput. Chem. 27, 1787 (2006).
         Note that this functional defaults to a pure GGA. 

INFO   : The correlation functional is Grimme's B97(-D)
         As described in S. Grimme, J. Comput. Chem. 27, 1787 (2006).

================================================================================
                                       INPUT FILE
================================================================================
NAME = 3.inp
|  1> ! B97-D 6-31G** opt
|  2> 
|  3> * xyzfile 0 1 /home/vivek/mm-project/vivek/xtb-goat/xtb-goat/i/I_CONF/3.xyz
|  4> 
|  5>                          ****END OF INPUT****
================================================================================

                       *****************************
                       * Geometry Optimization Run *
                       *****************************

Geometry optimization settings:
Update method            Update   .... BFGS
Choice of coordinates    CoordSys .... (2022) Redundant Internals
Initial Hessian          InHess   .... Almloef's Model
Max. no of cycles        MaxIter  .... 66

Convergence Tolerances:
Energy Change            TolE     ....  5.0000e-06 Eh
Max. Gradient            TolMAXG  ....  3.0000e-04 Eh/bohr
RMS Gradient             TolRMSG  ....  1.0000e-04 Eh/bohr
Max. Displacement        TolMAXD  ....  4.0000e-03 bohr
RMS Displacement         TolRMSD  ....  2.0000e-03 bohr
Strict Convergence                .... False

------------------------------------------------------------------------------
                        ORCA OPTIMIZATION COORDINATE SETUP
------------------------------------------------------------------------------

The optimization will be done in redundant internal coordinates (2022)
Making redundant internal coordinates   ...  (2022 redundants) done
Evaluating the initial hessian          ...  (Almloef) done
Evaluating the coordinates              ...  done
Calculating the B-matrix                .... done
Calculating the G-matrix                .... done
The number of degrees of freedom        ....   94

    -----------------------------------------------------------------
                    Redundant Internal Coordinates


    -----------------------------------------------------------------
         Definition                    Initial Value    Approx d2E/dq
    -----------------------------------------------------------------
      1. B(C   1,C   0)                  1.5242         0.381680   
      2. B(C   2,C   0)                  1.5323         0.370433   
      3. B(C   5,C   2)                  1.5486         0.348884   
      4. B(C   7,C   2)                  1.5289         0.375090   
      5. B(C   8,C   5)                  1.5217         0.385122   
      6. B(H   9,C   7)                  1.0885         0.362032   
      7. B(N  10,H   3)                  1.0149         0.425028   
      8. B(N  10,C   5)                  1.4511         0.447081   
      9. B(N  10,H   4)                  1.0154         0.424205   
     10. B(O  11,C   8)                  1.3391         0.674587   
     11. B(O  11,H   6)                  0.9711         0.499261   
     12. B(H  12,C   1)                  1.0875         0.363443   
     13. B(O  13,C   8)                  1.2036         1.110054   
     14. B(H  14,C   2)                  1.0947         0.353906   
     15. B(H  15,C   7)                  1.0876         0.363241   
     16. B(H  16,C   7)                  1.0874         0.363593   
     17. B(H  17,C   5)                  1.0948         0.353849   
     18. B(H  18,C   0)                  1.0911         0.358625   
     19. B(H  19,C   0)                  1.0922         0.357196   
     20. B(H  20,C   1)                  1.0869         0.364199   
     21. B(H  21,C   1)                  1.0877         0.363195   
     22. A(H  18,C   0,H  19)          107.6751         0.290283   
     23. A(C   1,C   0,C   2)          113.2596         0.364161   
     24. A(C   1,C   0,H  19)          108.5265         0.325032   
     25. A(C   2,C   0,H  18)          109.3626         0.323651   
     26. A(C   2,C   0,H  19)          108.1837         0.323439   
     27. A(C   1,C   0,H  18)          109.6701         0.325245   
     28. A(C   0,C   1,H  20)          111.4341         0.326071   
     29. A(H  20,C   1,H  21)          108.2304         0.291750   
     30. A(C   0,C   1,H  12)          110.1358         0.325960   
     31. A(H  12,C   1,H  20)          108.0459         0.291781   
     32. A(H  12,C   1,H  21)          108.4225         0.291654   
     33. A(C   0,C   1,H  21)          110.4776         0.325923   
     34. A(C   0,C   2,C   7)          110.4098         0.363078   
     35. A(C   0,C   2,C   5)          112.1255         0.358622   
     36. A(C   5,C   2,H  14)          105.2872         0.319797   
     37. A(C   0,C   2,H  14)          108.8634         0.322949   
     38. A(C   5,C   2,C   7)          111.3813         0.359386   
     39. A(C   7,C   2,H  14)          108.5625         0.323611   
     40. A(C   8,C   5,H  17)          107.5478         0.325008   
     41. A(C   2,C   5,H  17)          108.7129         0.319788   
     42. A(N  10,C   5,H  17)          107.8646         0.331105   
     43. A(C   2,C   5,C   8)          111.1742         0.361006   
     44. A(C   8,C   5,N  10)          111.9308         0.374343   
     45. A(C   2,C   5,N  10)          109.4861         0.368032   
     46. A(C   2,C   7,H   9)          110.8040         0.324820   
     47. A(H  15,C   7,H  16)          108.1497         0.291679   
     48. A(H   9,C   7,H  16)          108.3320         0.291526   
     49. A(C   2,C   7,H  16)          111.2010         0.325050   
     50. A(H   9,C   7,H  15)          108.1650         0.291482   
     51. A(C   2,C   7,H  15)          110.0900         0.324998   
     52. A(C   5,C   8,O  13)          124.3852         0.439559   
     53. A(C   5,C   8,O  11)          113.2070         0.402186   
     54. A(O  11,C   8,O  13)          122.3904         0.483705   
     55. A(H   3,N  10,H   4)          106.5951         0.301434   
     56. A(H   4,N  10,C   5)          109.5650         0.338309   
     57. A(H   3,N  10,C   5)          110.2418         0.338419   
     58. A(H   6,O  11,C   8)          110.3209         0.372915   
     59. D(H  20,C   1,C   0,H  19)    177.5885         0.011605   
     60. D(H  12,C   1,C   0,H  18)    -59.6832         0.011605   
     61. D(H  12,C   1,C   0,H  19)     57.6941         0.011605   
     62. D(H  12,C   1,C   0,C   2)    177.8448         0.011605   
     63. D(H  20,C   1,C   0,H  18)     60.2113         0.011605   
     64. D(H  20,C   1,C   0,C   2)    -62.2607         0.011605   
     65. D(C   5,C   2,C   0,C   1)     73.7965         0.010968   
     66. D(C   7,C   2,C   0,H  19)    -41.0239         0.010968   
     67. D(C   7,C   2,C   0,H  18)     75.9876         0.010968   
     68. D(C   7,C   2,C   0,C   1)   -161.3697         0.010968   
     69. D(C   5,C   2,C   0,H  18)    -48.8463         0.010968   
     70. D(C   5,C   2,C   0,H  19)   -165.8578         0.010968   
     71. D(C   8,C   5,C   2,H  14)   -158.9353         0.010000   
     72. D(C   8,C   5,C   2,C   7)    -41.4564         0.010000   
     73. D(C   8,C   5,C   2,C   0)     82.8391         0.010000   
     74. D(N  10,C   5,C   2,H  14)    -34.7461         0.010000   
     75. D(N  10,C   5,C   2,C   7)     82.7328         0.010000   
     76. D(N  10,C   5,C   2,C   0)   -152.9717         0.010000   
     77. D(H  15,C   7,C   2,H  14)    -53.5737         0.011229   
     78. D(H  15,C   7,C   2,C   5)   -169.0513         0.011229   
     79. D(H  15,C   7,C   2,C   0)     65.6914         0.011229   
     80. D(H   9,C   7,C   2,H  14)   -173.1820         0.011229   
     81. D(H   9,C   7,C   2,C   5)     71.3404         0.011229   
     82. D(H   9,C   7,C   2,C   0)    -53.9169         0.011229   
     83. D(O  13,C   8,C   5,N  10)    -15.5032         0.011050   
     84. D(O  13,C   8,C   5,C   2)    107.2891         0.011050   
     85. D(O  11,C   8,C   5,H  17)     44.6982         0.011050   
     86. D(O  11,C   8,C   5,N  10)    163.0026         0.011050   
     87. D(O  11,C   8,C   5,C   2)    -74.2052         0.011050   
     88. D(H   3,N  10,C   5,C   8)    -58.4707         0.017049   
     89. D(H   3,N  10,C   5,C   2)    177.7837         0.017049   
     90. D(H   4,N  10,C   5,C   8)     58.5372         0.017049   
     91. D(H   4,N  10,C   5,C   2)    -65.2084         0.017049   
     92. D(H   3,N  10,C   5,H  17)     59.6451         0.017049   
     93. D(H   6,O  11,C   8,O  13)     -1.3023         0.033846   
     94. D(H   6,O  11,C   8,C   5)   -179.8420         0.033846   
    -----------------------------------------------------------------

Number of atoms                         .... 22
Number of degrees of freedom            .... 94


         *************************************************************
         *                GEOMETRY OPTIMIZATION CYCLE   1            *
         *************************************************************
---------------------------------
CARTESIAN COORDINATES (ANGSTROEM)
---------------------------------
  C     -9.577173    4.473218   -0.530054
  C    -10.459373    4.029667    0.630998
  C     -8.263555    5.120450   -0.079011
  H     -5.728757    4.034755    1.815499
  H     -5.800787    5.409434    0.946753
  C     -7.257306    4.077999    0.467763
  H     -6.693376    2.121221   -2.055245
  C     -7.654366    5.939518   -1.217232
  C     -6.489313    3.409598   -0.663184
  H     -7.545365    5.333083   -2.114607
  N     -6.370044    4.716073    1.422400
  O     -7.223302    2.523014   -1.347650
  H    -11.391307    3.613671    0.255406
  O     -5.331754    3.620540   -0.916351
  H     -8.469662    5.791060    0.761360
  H     -8.296752    6.784387   -1.454904
  H     -6.675035    6.324984   -0.943910
  H     -7.813207    3.296758    0.996110
  H     -9.357681    3.618589   -1.171902
  H    -10.129388    5.202734   -1.126522
  H     -9.969896    3.269094    1.233771
  H    -10.694684    4.874439    1.274439

----------------------------
CARTESIAN COORDINATES (A.U.)
----------------------------
  NO LB      ZA    FRAG     MASS         X           Y           Z
   0 C     6.0000    0    12.011  -18.098234    8.453156   -1.001656
   1 C     6.0000    0    12.011  -19.765350    7.614967    1.192413
   2 C     6.0000    0    12.011  -15.615857    9.676249   -0.149309
   3 H     1.0000    0     1.008  -10.825781    7.624582    3.430795
   4 H     1.0000    0     1.008  -10.961899   10.222349    1.789104
   5 C     6.0000    0    12.011  -13.714321    7.706302    0.883943
   6 H     1.0000    0     1.008  -12.648647    4.008526   -3.883850
   7 C     6.0000    0    12.011  -14.464655   11.224062   -2.300234
   8 C     6.0000    0    12.011  -12.263025    6.443207   -1.253235
   9 H     1.0000    0     1.008  -14.258674   10.078066   -3.996028
  10 N     7.0000    0    14.007  -12.037639    8.912087    2.687946
  11 O     8.0000    0    15.999  -13.650062    4.767805   -2.546689
  12 H     1.0000    0     1.008  -21.526451    6.828849    0.482648
  13 O     8.0000    0    15.999  -10.075555    6.841829   -1.731653
  14 H     1.0000    0     1.008  -16.005341   10.943517    1.438761
  15 H     1.0000    0     1.008  -15.678589   12.820634   -2.749369
  16 H     1.0000    0     1.008  -12.613988   11.952488   -1.783731
  17 H     1.0000    0     1.008  -14.764821    6.229970    1.882375
  18 H     1.0000    0     1.008  -17.683454    6.838142   -2.214574
  19 H     1.0000    0     1.008  -19.141769    9.831742   -2.128817
  20 H     1.0000    0     1.008  -18.840374    6.177693    2.331489
  21 H     1.0000    0     1.008  -20.210024    9.211354    2.408340

--------------------------------
INTERNAL COORDINATES (ANGSTROEM)
--------------------------------
 C      0   0   0     0.000000000000     0.00000000     0.00000000
 C      1   0   0     1.524156838205     0.00000000     0.00000000
 C      1   2   0     1.532299158224   113.25961997     0.00000000
 H      3   1   2     3.345609893068   132.77599148    58.19028194
 H      4   3   1     1.627774500654    52.42491075   171.81391063
 C      3   1   2     1.548613297881   112.12551135    73.79645524
 H      6   3   1     3.242309133501   104.15383962    61.61877361
 C      3   1   2     1.528898160318   110.40975340   198.63032597
 C      6   3   1     1.521713683409   111.17421686    82.83908274
 H      8   3   1     1.088543678899   110.80395140   306.08311897
 N      4   3   1     1.014874712021    23.66009152   211.96957238
 O      7   6   3     0.971056131917    24.26418598   292.56739614
 H      2   1   3     1.087484797206   110.13575997   177.84479323
 O      9   6   3     1.203550163822   124.38516977   107.28909365
 H      3   1   2     1.094723207355   108.86336839   317.71288460
 H      8   3   1     1.087635789215   110.08997950    65.69144144
 H      8   3   1     1.087372122720   111.20099158   185.53498290
 H      6   3   1     1.094766693583   108.71286968   324.63677127
 H      1   2   3     1.091117176266   109.67010461   122.47202904
 H      1   2   3     1.092203909517   108.52649018   239.84926819
 H      2   1   3     1.086918805232   111.43414739   297.73926364
 H      2   1   3     1.087670397788   110.47761347    58.09443776

---------------------------
INTERNAL COORDINATES (A.U.)
---------------------------
 C      0   0   0     0.000000000000     0.00000000     0.00000000
 C      1   0   0     2.880239009350     0.00000000     0.00000000
 C      1   2   0     2.895625764281   113.25961997     0.00000000
 H      3   1   2     6.322286448836   132.77599148    58.19028194
 H      4   3   1     3.076048014017    52.42491075   171.81391063
 C      3   1   2     2.926455020345   112.12551135    73.79645524
 H      6   3   1     6.127076303829   104.15383962    61.61877361
 C      3   1   2     2.889198809656   110.40975340   198.63032597
 C      6   3   1     2.875622115883   111.17421686    82.83908274
 H      8   3   1     2.057049437931   110.80395140   306.08311897
 N      4   3   1     1.917835265961    23.66009152   211.96957238
 O      7   6   3     1.835030149989    24.26418598   292.56739614
 H      2   1   3     2.055048441523   110.13575997   177.84479323
 O      9   6   3     2.274380198059   124.38516977   107.28909365
 H      3   1   2     2.068727054348   108.86336839   317.71288460
 H      8   3   1     2.055333775068   110.08997950    65.69144144
 H      8   3   1     2.054835517601   111.20099158   185.53498290
 H      6   3   1     2.068809231411   108.71286968   324.63677127
 H      1   2   3     2.061912643161   109.67010461   122.47202904
 H      1   2   3     2.063966271385   108.52649018   239.84926819
 H      2   1   3     2.053978871697   111.43414739   297.73926364
 H      2   1   3     2.055399175793   110.47761347    58.09443776

---------------------
BASIS SET INFORMATION
---------------------
There are 4 groups of distinct atoms

 Group   1 Type C   : 10s4p1d contracted to 3s2p1d pattern {631/31/1}
 Group   2 Type H   : 4s1p contracted to 2s1p pattern {31/1}
 Group   3 Type N   : 10s4p1d contracted to 3s2p1d pattern {631/31/1}
 Group   4 Type O   : 10s4p1d contracted to 3s2p1d pattern {631/31/1}

Atom   0C    basis set group =>   1
Atom   1C    basis set group =>   1
Atom   2C    basis set group =>   1
Atom   3H    basis set group =>   2
Atom   4H    basis set group =>   2
Atom   5C    basis set group =>   1
Atom   6H    basis set group =>   2
Atom   7C    basis set group =>   1
Atom   8C    basis set group =>   1
Atom   9H    basis set group =>   2
Atom  10N    basis set group =>   3
Atom  11O    basis set group =>   4
Atom  12H    basis set group =>   2
Atom  13O    basis set group =>   4
Atom  14H    basis set group =>   2
Atom  15H    basis set group =>   2
Atom  16H    basis set group =>   2
Atom  17H    basis set group =>   2
Atom  18H    basis set group =>   2
Atom  19H    basis set group =>   2
Atom  20H    basis set group =>   2
Atom  21H    basis set group =>   2
---------------------------------
AUXILIARY/J BASIS SET INFORMATION
---------------------------------
There are 4 groups of distinct atoms

 Group   1 Type C   : 12s5p4d2f1g contracted to 6s4p3d1f1g pattern {711111/2111/211/2/1}
 Group   2 Type H   : 5s2p1d contracted to 3s1p1d pattern {311/2/1}
 Group   3 Type N   : 12s5p4d2f1g contracted to 6s4p3d1f1g pattern {711111/2111/211/2/1}
 Group   4 Type O   : 12s5p4d2f1g contracted to 6s4p3d1f1g pattern {711111/2111/211/2/1}

Atom   0C    basis set group =>   1
Atom   1C    basis set group =>   1
Atom   2C    basis set group =>   1
Atom   3H    basis set group =>   2
Atom   4H    basis set group =>   2
Atom   5C    basis set group =>   1
Atom   6H    basis set group =>   2
Atom   7C    basis set group =>   1
Atom   8C    basis set group =>   1
Atom   9H    basis set group =>   2
Atom  10N    basis set group =>   3
Atom  11O    basis set group =>   4
Atom  12H    basis set group =>   2
Atom  13O    basis set group =>   4
Atom  14H    basis set group =>   2
Atom  15H    basis set group =>   2
Atom  16H    basis set group =>   2
Atom  17H    basis set group =>   2
Atom  18H    basis set group =>   2
Atom  19H    basis set group =>   2
Atom  20H    basis set group =>   2
Atom  21H    basis set group =>   2
------------------------------------------------------------------------------
                             ORCA STARTUP CALCULATIONS
                           -- RI-GTO INTEGRALS CHOSEN --
------------------------------------------------------------------------------
------------------------------------------------------------------------------
                   ___                                                        
                  /   \      - P O W E R E D   B Y -                         
                 /     \                                                     
                 |  |  |   _    _      __       _____    __    __             
                 |  |  |  | |  | |    /  \     |  _  \  |  |  /  |          
                  \  \/   | |  | |   /    \    | | | |  |  | /  /          
                 / \  \   | |__| |  /  /\  \   | |_| |  |  |/  /          
                |  |  |   |  __  | /  /__\  \  |    /   |      \           
                |  |  |   | |  | | |   __   |  |    \   |  |\   \          
                \     /   | |  | | |  |  |  |  | |\  \  |  | \   \       
                 \___/    |_|  |_| |__|  |__|  |_| \__\ |__|  \__/        
                                                                              
                      - O R C A' S   B I G   F R I E N D -                    
                                      &                                       
                       - I N T E G R A L  F E E D E R -                       
                                                                              
 v1 FN, 2020, v2 2021, v3 2022-2024                                           
------------------------------------------------------------------------------


----------------------
SHARK INTEGRAL PACKAGE
----------------------

Number of atoms                             ...     22
Number of basis functions                   ...    191
Number of shells                            ...     93
Maximum angular momentum                    ...      2
Integral batch strategy                     ... SHARK/LIBINT Hybrid
RI-J (if used) integral strategy            ... SPLIT-RIJ (Revised 2003 algorithm where possible)
Printlevel                                  ...      1
Contraction scheme used                     ... SEGMENTED contraction
Prescreening option                         ... SCHWARTZ
   Thresh                                   ... 2.500e-11
   Tcut                                     ... 2.500e-12
   Tpresel                                  ... 2.500e-12 
Coulomb Range Separation                    ... NOT USED
Exchange Range Separation                   ... NOT USED
Multipole approximations                    ... NOT USED
Finite Nucleus Model                        ... NOT USED
CABS basis                                  ... NOT available
Auxiliary Coulomb fitting basis             ... AVAILABLE
   # of basis functions in Aux-J            ...    584
   # of shells in Aux-J                     ...    200
   Maximum angular momentum in Aux-J        ...      4
Auxiliary J/K fitting basis                 ... NOT available
Auxiliary Correlation fitting basis         ... NOT available
Auxiliary 'external' fitting basis          ... NOT available

Checking pre-screening integrals            ... done (  0.0 sec) Dimension = 93
   => SHARK Basis and OBASIS are compatible. Storing Pre-screening
Shell pair information
Shell pair cut-off parameter TPreSel        ...   2.5e-12
Total number of shell pairs                 ...      4371
Shell pairs after pre-screening             ...      3992
Total number of primitive shell pairs       ...     20328
Primitive shell pairs kept                  ...     12399
          la=0 lb=0:   1314 shell pairs
          la=1 lb=0:   1481 shell pairs
          la=1 lb=1:    445 shell pairs
          la=2 lb=0:    447 shell pairs
          la=2 lb=1:    261 shell pairs
          la=2 lb=2:     44 shell pairs

Checking whether 4 symmetric matrices of dimension 191 fit in memory
:Max Core in MB      =   4096.00
 MB in use           =      8.73
 MB left             =   4087.27
 MB needed           =      0.56
 Data fit in memory  = YES
Calculating RI/J V-Matrix + Cholesky decomp.... done (  0.0 sec)
Calculating Nuclear repulsion               ... done (  0.0 sec) ENN=    498.219947106298 Eh

Diagonalization of the overlap matrix:
Smallest eigenvalue                        ... 2.740e-03
Time for diagonalization                   ...    0.002 sec
Threshold for overlap eigenvalues          ... 1.000e-07
Number of eigenvalues below threshold      ... 0
Time for construction of square roots      ...    0.001 sec
Total time needed                          ...    0.003 sec

-------------------
DFT GRID GENERATION
-------------------

General Integration Accuracy     IntAcc      ... 4.388
Radial Grid Type                 RadialGrid  ... OptM3 with GC (2021)
Angular Grid (max. ang.)         AngularGrid ... 4 (Lebedev-302)
Angular grid pruning method      GridPruning ... 4 (adaptive)
Weight generation scheme         WeightScheme... mBecke (2022)
Basis function cutoff            BFCut       ... 1.0000e-11
Integration weight cutoff        WCut        ... 1.0000e-14
Partially contracted basis set               ... off
Rotationally invariant grid construction     ... off
Angular grids for H and He will be reduced by one unit

Total number of grid points                  ...    95541
Total number of batches                      ...     1502
Average number of points per batch           ...       63
Average number of grid points per atom       ...     4343
Grids setup in   0.4 sec
Initializing property integral containers    ... done (  0.0 sec)

SHARK setup successfully completed in   0.5 seconds

Maximum memory used throughout the entire STARTUP-calculation: 40.7 MB
-------------------------------------------------------------------------------
                                 ORCA GUESS
                   Start orbitals & Density for SCF / CASSCF
-------------------------------------------------------------------------------

------------
SCF SETTINGS
------------
Hamiltonian:
 Density Functional     Method          .... DFT(GTOs)
 Exchange Functional    Exchange        .... B97(D)
 Correlation Functional Correlation     .... B97(D)
 Gradients option       PostSCFGGA      .... off
 RI-approximation to the Coulomb term is turned on
   Number of AuxJ basis functions       .... 584


General Settings:
 Integral files         IntName         .... 3
 Hartree-Fock type      HFTyp           .... RHF
 Total Charge           Charge          ....    0
 Multiplicity           Mult            ....    1
 Number of Electrons    NEL             ....   72
 Basis Dimension        Dim             ....  191
 Nuclear Repulsion      ENuc            ....    498.2199471063 Eh

Convergence Acceleration:
 AO-DIIS                CNVDIIS         .... on
   Start iteration      DIISMaxIt       ....    12
   Startup error        DIISStart       ....  0.200000
   # of expansion vecs  DIISMaxEq       ....     5
   Bias factor          DIISBfac        ....   1.050
   Max. coefficient     DIISMaxC        ....  10.000
 MO-DIIS                CNVKDIIS        .... off
 Trust-Rad. Augm. Hess. CNVTRAH         .... auto
   Auto Start mean grad. ratio tolernc. ....  1.125000
   Auto Start start iteration           ....    50
   Auto Start num. interpolation iter.  ....    10
   Max. Number of Micro iterations      ....    24
   Max. Number of Macro iterations      .... Maxiter - #DIIS iter
   Number of Davidson start vectors     ....     2
   Converg. threshold    (grad. norm)   ....   1.000e-05
   Grad. Scal. Fac. for Micro threshold ....   0.100
   Minimum threshold for Micro iter.    ....   1.000e-02
   NR start threshold (gradient norm)   ....   1.000e-04
   Initial trust radius                 ....   0.400
   Minimum AH scaling param. (alpha)    ....   1.000
   Maximum AH scaling param. (alpha)    .... 1000.000
   Quad. conv. algorithm                .... NR
   White noise on init. David. guess    .... on
   Maximum white noise                  ....   0.010
   Pseudo random numbers                .... off
   Inactive MOs                         .... canonical
   Orbital update algorithm             .... Taylor
   Preconditioner                       .... Diag
   Full preconditioner red. dimension   ....   250
 SOSCF                 CNVSOSCF           .... on
   Start iteration     SOSCFMaxIt         ....   150
   Startup grad/error  SOSCFStart         ....  0.003300
   Hessian update      SOSCFHessUp        .... L-BFGS
   Autom. constraints  SOSCFAutoConstrain .... off
 Level Shifting         CNVShift        .... on
   Level shift para.    LevelShift      ....    0.2500
   Turn off err/grad.   ShiftErr        ....    0.0010
 Zerner damping         CNVZerner       .... off
 Static damping         CNVDamp         .... on
   Fraction old density DampFac         ....    0.7000
   Max. Damping (<1)    DampMax         ....    0.9800
   Min. Damping (>=0)   DampMin         ....    0.0000
   Turn off err/grad.   DampErr         ....    0.1000

SCF Procedure:
 Maximum # iterations   MaxIter         ....   125
 SCF integral mode      SCFMode         .... Direct
   Integral package                     .... SHARK and LIBINT hybrid scheme
 Reset frequency        DirectResetFreq ....    20
 Integral Threshold     Thresh          ....  2.500e-11 Eh
 Primitive CutOff       TCut            ....  2.500e-12 Eh

Convergence Tolerance:
 Convergence Check Mode ConvCheckMode   .... Total+1el-Energy
 Convergence forced     ConvForced      .... 0
 Energy Change          TolE            ....  1.000e-08 Eh
 1-El. energy change                    ....  1.000e-05 Eh
 Orbital Gradient       TolG            ....  1.000e-05
 Orbital Rotation angle TolX            ....  1.000e-05
 DIIS Error             TolErr          ....  5.000e-07

------------------------------
INITIAL GUESS: MODEL POTENTIAL
------------------------------
Loading Hartree-Fock densities                     ... done
Calculating cut-offs                               ... done
Initializing the effective Hamiltonian             ... done
Setting up the integral package (SHARK)            ... done
Starting the Coulomb interaction                   ... done (   0.1 sec)
Making the grid                                    ... done (   0.1 sec)
Mapping shells                                     ... done
Starting the XC term evaluation                    ... done (   0.1 sec)
  promolecular density results
     # of electrons  =     71.982992514
     EX              =    -56.841556219
     EC              =     -3.119695403
     EX+EC           =    -59.961251622
Transforming the Hamiltonian                       ... done (   0.0 sec)
Diagonalizing the Hamiltonian                      ... done (   0.0 sec)
Back transforming the eigenvectors                 ... done (   0.0 sec)
Now organizing SCF variables                       ... done
                      ------------------
                      INITIAL GUESS DONE (   0.3 sec)
                      ------------------
             **** ENERGY FILE WAS UPDATED (3.en.tmp) ****
Finished Guess after   0.3 sec
Maximum memory used throughout the entire GUESS-calculation: 14.0 MB

-------------------------------------------------------------------------------------------
                                      ORCA LEAN-SCF
                              memory conserving SCF solver
-------------------------------------------------------------------------------------------

----------------------------------------D-I-I-S--------------------------------------------
Iteration    Energy (Eh)           Delta-E    RMSDP     MaxDP     DIISErr   Damp  Time(sec)
-------------------------------------------------------------------------------------------
               ***  Starting incremental Fock matrix formation  ***
    1    -441.0171659074978265     0.00e+00  3.52e-03  1.02e-01  2.59e-01  0.700   0.6
    2    -441.1941763504989353    -1.77e-01  2.33e-03  5.19e-02  9.42e-02  0.700   0.6
                               ***Turning on AO-DIIS***
    3    -441.2501145892559293    -5.59e-02  8.98e-04  1.67e-02  2.46e-02  0.700   0.6
    4    -441.2857227849429478    -3.56e-02  1.18e-03  1.84e-02  1.10e-02  0.000   0.5
    5    -441.3678416486740730    -8.21e-02  4.00e-04  8.46e-03  8.65e-03  0.000   0.5
                              *** Initializing SOSCF ***
---------------------------------------S-O-S-C-F--------------------------------------
Iteration    Energy (Eh)           Delta-E    RMSDP     MaxDP     MaxGrad    Time(sec)
--------------------------------------------------------------------------------------
    6    -441.3687032075892489    -8.62e-04  1.46e-04  2.80e-03  2.82e-03     0.5
               *** Restarting incremental Fock matrix formation ***
    7    -441.3687661423620625    -6.29e-05  1.20e-04  3.77e-03  7.83e-04     0.6
    8    -441.3687384945107510     2.76e-05  6.56e-05  2.76e-03  2.17e-03     0.5
    9    -441.3687752436355254    -3.67e-05  4.38e-05  8.33e-04  2.23e-04     0.5
   10    -441.3687726563051115     2.59e-06  2.56e-05  4.92e-04  2.21e-04     0.5
   11    -441.3687770170669751    -4.36e-06  6.23e-06  1.96e-04  2.78e-05     0.5
   12    -441.3687769380200621     7.90e-08  3.70e-06  1.26e-04  4.73e-05     0.5
   13    -441.3687770582420740    -1.20e-07  7.75e-07  1.98e-05  3.94e-06     0.5
   14    -441.3687770595452662    -1.30e-09  4.31e-07  1.47e-05  7.73e-06     0.4
                 **** Energy Check signals convergence ****

               *****************************************************
               *                     SUCCESS                       *
               *           SCF CONVERGED AFTER  14 CYCLES          *
               *****************************************************

             **** ENERGY FILE WAS UPDATED (3.en.tmp) ****

----------------
TOTAL SCF ENERGY
----------------

Total Energy       :       -441.36877705987575 Eh          -12010.25501 eV

Components:
Nuclear Repulsion  :        498.21994710629798 Eh           13557.25400 eV
Electronic Energy  :       -939.58872416617373 Eh          -25567.50901 eV
One Electron Energy:      -1588.42943946198579 Eh          -43223.36248 eV
Two Electron Energy:        648.84071529581206 Eh           17655.85347 eV

Virial components:
Potential Energy   :       -880.48370988623719 Eh          -23959.17981 eV
Kinetic Energy     :        439.11493282636150 Eh           11948.92479 eV
Virial Ratio       :          2.00513269776322

DFT components:
N(Alpha)           :       35.999963895191 electrons
N(Beta)            :       35.999963895191 electrons
N(Total)           :       71.999927790382 electrons
E(X)               :      -58.274838533621 Eh       
E(C)               :       -3.117200494200 Eh       
E(XC)              :      -61.392039027822 Eh       

---------------
SCF CONVERGENCE
---------------

  Last Energy change         ...    1.3032e-09  Tolerance :   1.0000e-08
  Last MAX-Density change    ...    1.4726e-05  Tolerance :   1.0000e-07
  Last RMS-Density change    ...    4.3099e-07  Tolerance :   5.0000e-09
  Last DIIS Error            ...    2.8164e-03  Tolerance :   5.0000e-07
  Last Orbital Gradient      ...    7.7315e-06  Tolerance :   1.0000e-05
  Last Orbital Rotation      ...    5.2300e-06  Tolerance :   1.0000e-05


----------------
ORBITAL ENERGIES
----------------

  NO   OCC          E(Eh)            E(eV) 
   0   2.0000     -18.814995      -511.9821 
   1   2.0000     -18.752635      -510.2851 
   2   2.0000     -13.983356      -380.5065 
   3   2.0000     -10.026477      -272.8343 
   4   2.0000      -9.942517      -270.5497 
   5   2.0000      -9.911317      -269.7007 
   6   2.0000      -9.896454      -269.2962 
   7   2.0000      -9.894852      -269.2526 
   8   2.0000      -9.891055      -269.1493 
   9   2.0000      -1.020915       -27.7805 
  10   2.0000      -0.931016       -25.3342 
  11   2.0000      -0.813501       -22.1365 
  12   2.0000      -0.729068       -19.8389 
  13   2.0000      -0.662416       -18.0253 
  14   2.0000      -0.636163       -17.3109 
  15   2.0000      -0.573162       -15.5965 
  16   2.0000      -0.549061       -14.9407 
  17   2.0000      -0.502222       -13.6661 
  18   2.0000      -0.457224       -12.4417 
  19   2.0000      -0.428641       -11.6639 
  20   2.0000      -0.424255       -11.5446 
  21   2.0000      -0.411152       -11.1880 
  22   2.0000      -0.389472       -10.5981 
  23   2.0000      -0.374612       -10.1937 
  24   2.0000      -0.369645       -10.0586 
  25   2.0000      -0.360660        -9.8141 
  26   2.0000      -0.348802        -9.4914 
  27   2.0000      -0.335729        -9.1356 
  28   2.0000      -0.319686        -8.6991 
  29   2.0000      -0.306704        -8.3458 
  30   2.0000      -0.283867        -7.7244 
  31   2.0000      -0.279621        -7.6089 
  32   2.0000      -0.276253        -7.5172 
  33   2.0000      -0.269061        -7.3215 
  34   2.0000      -0.222921        -6.0660 
  35   2.0000      -0.193145        -5.2557 
  36   0.0000      -0.016586        -0.4513 
  37   0.0000       0.049865         1.3569 
  38   0.0000       0.068975         1.8769 
  39   0.0000       0.084447         2.2979 
  40   0.0000       0.094919         2.5829 
  41   0.0000       0.121577         3.3083 
  42   0.0000       0.127101         3.4586 
  43   0.0000       0.132695         3.6108 
  44   0.0000       0.145940         3.9712 
  45   0.0000       0.156742         4.2652 
  46   0.0000       0.161649         4.3987 
*Only the first 10 virtual orbitals were printed.

                    ********************************
                    * MULLIKEN POPULATION ANALYSIS *
                    ********************************

-----------------------
MULLIKEN ATOMIC CHARGES
-----------------------
   0 C :   -0.191141
   1 C :   -0.335168
   2 C :   -0.061480
   3 H :    0.241074
   4 H :    0.245813
   5 C :   -0.050027
   6 H :    0.315574
   7 C :   -0.344053
   8 C :    0.495716
   9 H :    0.112946
  10 N :   -0.556082
  11 O :   -0.451505
  12 H :    0.106413
  13 O :   -0.422010
  14 H :    0.117221
  15 H :    0.110330
  16 H :    0.110322
  17 H :    0.124315
  18 H :    0.118147
  19 H :    0.094446
  20 H :    0.108642
  21 H :    0.110507
Sum of atomic charges:    0.0000000

--------------------------------
MULLIKEN REDUCED ORBITAL CHARGES
--------------------------------
  0 C s       :     3.225482  s :     3.225482
      pz      :     0.974379  p :     2.928704
      px      :     0.935516
      py      :     1.018809
      dz2     :     0.004020  d :     0.036956
      dxz     :     0.008420
      dyz     :     0.010846
      dx2y2   :     0.005906
      dxy     :     0.007763

  1 C s       :     3.248100  s :     3.248100
      pz      :     0.996708  p :     3.056652
      px      :     1.018547
      py      :     1.041397
      dz2     :     0.003250  d :     0.030416
      dxz     :     0.006661
      dyz     :     0.010114
      dx2y2   :     0.004585
      dxy     :     0.005806

  2 C s       :     3.216839  s :     3.216839
      pz      :     0.969190  p :     2.802556
      px      :     0.900489
      py      :     0.932878
      dz2     :     0.006444  d :     0.042085
      dxz     :     0.007509
      dyz     :     0.011687
      dx2y2   :     0.006503
      dxy     :     0.009941

  3 H s       :     0.735063  s :     0.735063
      pz      :     0.008059  p :     0.023863
      px      :     0.007970
      py      :     0.007834

  4 H s       :     0.730215  s :     0.730215
      pz      :     0.007373  p :     0.023973
      px      :     0.007472
      py      :     0.009127

  5 C s       :     3.200256  s :     3.200256
      pz      :     0.883759  p :     2.793063
      px      :     0.918776
      py      :     0.990528
      dz2     :     0.009854  d :     0.056708
      dxz     :     0.013440
      dyz     :     0.014516
      dx2y2   :     0.006906
      dxy     :     0.011993

  6 H s       :     0.646476  s :     0.646476
      pz      :     0.015567  p :     0.037950
      px      :     0.011816
      py      :     0.010567

  7 C s       :     3.253007  s :     3.253007
      pz      :     1.002702  p :     3.060629
      px      :     1.034185
      py      :     1.023742
      dz2     :     0.006877  d :     0.030417
      dxz     :     0.003718
      dyz     :     0.008081
      dx2y2   :     0.004056
      dxy     :     0.007684

  8 C s       :     2.990912  s :     2.990912
      pz      :     0.827425  p :     2.389060
      px      :     0.795817
      py      :     0.765818
      dz2     :     0.015779  d :     0.124313
      dxz     :     0.036927
      dyz     :     0.011258
      dx2y2   :     0.025380
      dxy     :     0.034970

  9 H s       :     0.875442  s :     0.875442
      pz      :     0.005223  p :     0.011612
      px      :     0.002700
      py      :     0.003688

 10 N s       :     3.589443  s :     3.589443
      pz      :     1.431401  p :     3.937843
      px      :     1.263376
      py      :     1.243066
      dz2     :     0.004263  d :     0.028795
      dxz     :     0.006835
      dyz     :     0.006005
      dx2y2   :     0.001218
      dxy     :     0.010475

 11 O s       :     3.826517  s :     3.826517
      pz      :     1.449248  p :     4.602342
      px      :     1.620629
      py      :     1.532465
      dz2     :     0.002313  d :     0.022647
      dxz     :     0.007234
      dyz     :     0.002567
      dx2y2   :     0.004266
      dxy     :     0.006266

 12 H s       :     0.882025  s :     0.882025
      pz      :     0.002964  p :     0.011562
      px      :     0.005404
      py      :     0.003194

 13 O s       :     3.858383  s :     3.858383
      pz      :     1.605271  p :     4.535527
      px      :     1.359051
      py      :     1.571206
      dz2     :     0.003034  d :     0.028101
      dxz     :     0.008013
      dyz     :     0.000966
      dx2y2   :     0.007722
      dxy     :     0.008366

 14 H s       :     0.871153  s :     0.871153
      pz      :     0.005159  p :     0.011626
      px      :     0.002514
      py      :     0.003953

 15 H s       :     0.878069  s :     0.878069
      pz      :     0.002765  p :     0.011601
      px      :     0.003897
      py      :     0.004940

 16 H s       :     0.878059  s :     0.878059
      pz      :     0.002757  p :     0.011618
      px      :     0.005734
      py      :     0.003128

 17 H s       :     0.864481  s :     0.864481
      pz      :     0.003118  p :     0.011204
      px      :     0.003580
      py      :     0.004507

 18 H s       :     0.869784  s :     0.869784
      pz      :     0.003994  p :     0.012069
      px      :     0.002879
      py      :     0.005195

 19 H s       :     0.894008  s :     0.894008
      pz      :     0.003817  p :     0.011546
      px      :     0.003507
      py      :     0.004222

 20 H s       :     0.879663  s :     0.879663
      pz      :     0.003774  p :     0.011695
      px      :     0.003452
      py      :     0.004469

 21 H s       :     0.877973  s :     0.877973
      pz      :     0.003938  p :     0.011520
      px      :     0.002803
      py      :     0.004779



                     *******************************
                     * LOEWDIN POPULATION ANALYSIS *
                     *******************************

----------------------
LOEWDIN ATOMIC CHARGES
----------------------
   0 C :   -0.128838
   1 C :   -0.201546
   2 C :   -0.061191
   3 H :    0.126112
   4 H :    0.125336
   5 C :   -0.049456
   6 H :    0.180363
   7 C :   -0.200220
   8 C :    0.102809
   9 H :    0.070226
  10 N :   -0.244129
  11 O :   -0.139485
  12 H :    0.070617
  13 O :   -0.222730
  14 H :    0.076127
  15 H :    0.072729
  16 H :    0.069135
  17 H :    0.081766
  18 H :    0.071856
  19 H :    0.066083
  20 H :    0.065867
  21 H :    0.068567

-------------------------------
LOEWDIN REDUCED ORBITAL CHARGES
-------------------------------
  0 C s       :     2.898231  s :     2.898231
      pz      :     1.053037  p :     3.148463
      px      :     1.022035
      py      :     1.073392
      dz2     :     0.008911  d :     0.082144
      dxz     :     0.020338
      dyz     :     0.022338
      dx2y2   :     0.012935
      dxy     :     0.017623

  1 C s       :     2.914867  s :     2.914867
      pz      :     1.064133  p :     3.222323
      px      :     1.070348
      py      :     1.087842
      dz2     :     0.007014  d :     0.064356
      dxz     :     0.015439
      dyz     :     0.020770
      dx2y2   :     0.009247
      dxy     :     0.011886

  2 C s       :     2.888826  s :     2.888826
      pz      :     1.047718  p :     3.075059
      px      :     1.007891
      py      :     1.019450
      dz2     :     0.014348  d :     0.097306
      dxz     :     0.017444
      dyz     :     0.026972
      dx2y2   :     0.013910
      dxy     :     0.024632

  3 H s       :     0.795093  s :     0.795093
      pz      :     0.024274  p :     0.078795
      px      :     0.027207
      py      :     0.027314

  4 H s       :     0.795104  s :     0.795104
      pz      :     0.024375  p :     0.079560
      px      :     0.024512
      py      :     0.030673

  5 C s       :     2.882803  s :     2.882803
      pz      :     0.994355  p :     3.037709
      px      :     1.002178
      py      :     1.041176
      dz2     :     0.021191  d :     0.128944
      dxz     :     0.032797
      dyz     :     0.033070
      dx2y2   :     0.013310
      dxy     :     0.028576

  6 H s       :     0.703920  s :     0.703920
      pz      :     0.047806  p :     0.115716
      px      :     0.037229
      py      :     0.030682

  7 C s       :     2.916831  s :     2.916831
      pz      :     1.061791  p :     3.219064
      px      :     1.082035
      py      :     1.075238
      dz2     :     0.014205  d :     0.064325
      dxz     :     0.008266
      dyz     :     0.017939
      dx2y2   :     0.008030
      dxy     :     0.015885

  8 C s       :     2.859858  s :     2.859858
      pz      :     0.899371  p :     2.740138
      px      :     0.997421
      py      :     0.843346
      dz2     :     0.036986  d :     0.297195
      dxz     :     0.089333
      dyz     :     0.025530
      dx2y2   :     0.060480
      dxy     :     0.084865

  9 H s       :     0.889670  s :     0.889670
      pz      :     0.019941  p :     0.040104
      px      :     0.007377
      py      :     0.012786

 10 N s       :     3.196342  s :     3.196342
      pz      :     1.434260  p :     3.989536
      px      :     1.295075
      py      :     1.260201
      dz2     :     0.007124  d :     0.058251
      dxz     :     0.014227
      dyz     :     0.012735
      dx2y2   :     0.003570
      dxy     :     0.020594

 11 O s       :     3.471993  s :     3.471993
      pz      :     1.453059  p :     4.616686
      px      :     1.632623
      py      :     1.531004
      dz2     :     0.005772  d :     0.050806
      dxz     :     0.014066
      dyz     :     0.010706
      dx2y2   :     0.007261
      dxy     :     0.013001

 12 H s       :     0.889916  s :     0.889916
      pz      :     0.009321  p :     0.039467
      px      :     0.020273
      py      :     0.009873

 13 O s       :     3.554120  s :     3.554120
      pz      :     1.598171  p :     4.610678
      px      :     1.457967
      py      :     1.554540
      dz2     :     0.007108  d :     0.057931
      dxz     :     0.015376
      dyz     :     0.001412
      dx2y2   :     0.019522
      dxy     :     0.014514

 14 H s       :     0.883987  s :     0.883987
      pz      :     0.018456  p :     0.039886
      px      :     0.007284
      py      :     0.014146

 15 H s       :     0.887602  s :     0.887602
      pz      :     0.008145  p :     0.039669
      px      :     0.013388
      py      :     0.018136

 16 H s       :     0.890696  s :     0.890696
      pz      :     0.008484  p :     0.040169
      px      :     0.022055
      py      :     0.009630

 17 H s       :     0.877996  s :     0.877996
      pz      :     0.011042  p :     0.040238
      px      :     0.012896
      py      :     0.016301

 18 H s       :     0.887013  s :     0.887013
      pz      :     0.013654  p :     0.041130
      px      :     0.008242
      py      :     0.019235

 19 H s       :     0.894892  s :     0.894892
      pz      :     0.012549  p :     0.039025
      px      :     0.011606
      py      :     0.014870

 20 H s       :     0.894084  s :     0.894084
      pz      :     0.012843  p :     0.040048
      px      :     0.011239
      py      :     0.015967

 21 H s       :     0.891938  s :     0.891938
      pz      :     0.013624  p :     0.039494
      px      :     0.007953
      py      :     0.017917



                      *****************************
                      * MAYER POPULATION ANALYSIS *
                      *****************************

  NA   - Mulliken gross atomic population
  ZA   - Total nuclear charge
  QA   - Mulliken gross atomic charge
  VA   - Mayer's total valence
  BVA  - Mayer's bonded valence
  FA   - Mayer's free valence

  ATOM       NA         ZA         QA         VA         BVA        FA
  0 C      6.1911     6.0000    -0.1911     3.8831     3.8831    -0.0000
  1 C      6.3352     6.0000    -0.3352     3.8988     3.8988     0.0000
  2 C      6.0615     6.0000    -0.0615     3.8903     3.8903     0.0000
  3 H      0.7589     1.0000     0.2411     0.9231     0.9231    -0.0000
  4 H      0.7542     1.0000     0.2458     0.9291     0.9291     0.0000
  5 C      6.0500     6.0000    -0.0500     3.8587     3.8587    -0.0000
  6 H      0.6844     1.0000     0.3156     0.9204     0.9204    -0.0000
  7 C      6.3441     6.0000    -0.3441     3.8887     3.8887     0.0000
  8 C      5.5043     6.0000     0.4957     3.9478     3.9478     0.0000
  9 H      0.8871     1.0000     0.1129     0.9596     0.9596     0.0000
 10 N      7.5561     7.0000    -0.5561     2.9132     2.9132    -0.0000
 11 O      8.4515     8.0000    -0.4515     2.0394     2.0394    -0.0000
 12 H      0.8936     1.0000     0.1064     0.9542     0.9542     0.0000
 13 O      8.4220     8.0000    -0.4220     2.1075     2.1075     0.0000
 14 H      0.8828     1.0000     0.1172     0.9599     0.9599     0.0000
 15 H      0.8897     1.0000     0.1103     0.9568     0.9568     0.0000
 16 H      0.8897     1.0000     0.1103     0.9573     0.9573     0.0000
 17 H      0.8757     1.0000     0.1243     0.9539     0.9539     0.0000
 18 H      0.8819     1.0000     0.1181     0.9647     0.9647    -0.0000
 19 H      0.9056     1.0000     0.0944     0.9540     0.9540     0.0000
 20 H      0.8914     1.0000     0.1086     0.9575     0.9575     0.0000
 21 H      0.8895     1.0000     0.1105     0.9550     0.9550    -0.0000

  Mayer bond orders larger than 0.100000
B(  0-C ,  1-C ) :   1.0147 B(  0-C ,  2-C ) :   0.9923 B(  0-C , 18-H ) :   0.9357 
B(  0-C , 19-H ) :   0.9478 B(  1-C , 12-H ) :   0.9612 B(  1-C , 20-H ) :   0.9575 
B(  1-C , 21-H ) :   0.9626 B(  2-C ,  5-C ) :   0.9579 B(  2-C ,  7-C ) :   1.0049 
B(  2-C , 14-H ) :   0.9304 B(  3-H , 10-N ) :   0.9080 B(  4-H , 10-N ) :   0.8983 
B(  5-C ,  8-C ) :   0.8971 B(  5-C , 10-N ) :   1.0566 B(  5-C , 17-H ) :   0.9180 
B(  6-H , 11-O ) :   0.8508 B(  7-C ,  9-H ) :   0.9512 B(  7-C , 15-H ) :   0.9564 
B(  7-C , 16-H ) :   0.9530 B(  8-C , 11-O ) :   1.0728 B(  8-C , 13-O ) :   1.9150 


-------
TIMINGS
-------

Total SCF time: 0 days 0 hours 0 min 7 sec 

Total time                  ....       7.694 sec
Sum of individual times     ....       7.212 sec  ( 93.7%)

SCF preparation             ....       0.029 sec  (  0.4%)
Fock matrix formation       ....       7.120 sec  ( 92.5%)
  Startup                   ....       0.001 sec  (  0.0% of F)
  Split-RI-J                ....       2.478 sec  ( 34.8% of F)
  XC integration            ....       5.047 sec  ( 70.9% of F)
    XC Preparation          ....       0.000 sec  (  0.0% of XC)
    Basis function eval.    ....       1.789 sec  ( 35.5% of XC)
    Density eval.           ....       1.140 sec  ( 22.6% of XC)
    XC-Functional eval.     ....       0.875 sec  ( 17.3% of XC)
    XC-Potential eval.      ....       1.112 sec  ( 22.0% of XC)
Diagonalization             ....       0.000 sec  (  0.0%)
Density matrix formation    ....       0.005 sec  (  0.1%)
Total Energy calculation    ....       0.001 sec  (  0.0%)
Population analysis         ....       0.003 sec  (  0.0%)
Orbital Transformation      ....       0.006 sec  (  0.1%)
Orbital Orthonormalization  ....       0.000 sec  (  0.0%)
DIIS solution               ....       0.027 sec  (  0.4%)
SOSCF solution              ....       0.021 sec  (  0.3%)
Finished LeanSCF after   7.7 sec

Maximum memory used throughout the entire LEANSCF-calculation: 21.9 MB



-------------------------------------------------------------------------------
                          DFT DISPERSION CORRECTION                            
-------------------------------------------------------------------------------
Active option DFTDOPT                   ...         2   
Final C6-coefficient scaling factor     ...     1.250
Final VDW-radii scaling factor          ...     1.100
Damping factor alpha                    ...    20.000
-------------------------   ----------------
Dispersion correction           -0.035383624
-------------------------   ----------------


-------------------------   --------------------
FINAL SINGLE POINT ENERGY      -441.404160683540
-------------------------   --------------------

------------------------------------------------------------------------------
                         ORCA SCF GRADIENT CALCULATION
------------------------------------------------------------------------------

Nuc. rep. gradient        (SHARK) ... done (  0.0 sec)
HCore & Overlap gradient  (SHARK) ... done (  0.1 sec)
Split-RIJ-J gradient      (SHARK) ... done (  0.6 sec)
XC gradient                       ... done (  2.9 sec)
Dispersion correction             ... done (  0.0 sec)

-------------------
DISPERSION GRADIENT
-------------------

   1   C   :   -0.001369454    0.000029967    0.001633157
   2   C   :   -0.000762394    0.000174672   -0.000745356
   3   C   :    0.000105449    0.000165421   -0.001302046
   4   H   :    0.000455155    0.000405235    0.000637122
   5   H   :    0.000942263   -0.000087040    0.001407642
   6   C   :    0.001120504    0.000319360    0.000207795
   7   H   :    0.000476616    0.000049251    0.000044846
   8   C   :   -0.000366214    0.000102319    0.000110625
   9   C   :    0.000156331   -0.000116409    0.000204795
  10   H   :    0.000176980    0.001752084   -0.000117677
  11   N   :   -0.000075219   -0.000647471    0.000019781
  12   O   :    0.000604724   -0.000957923   -0.000365948
  13   H   :    0.000373553    0.000170631    0.000892777
  14   O   :    0.000244996   -0.001204325   -0.000472209
  15   H   :    0.000525858    0.000086000    0.000159089
  16   H   :    0.001208418    0.000043142   -0.000443581
  17   H   :   -0.001047486    0.001020981   -0.001511201
  18   H   :    0.000868658   -0.000075211    0.000145877
  19   H   :   -0.001005951    0.000303627   -0.000378460
  20   H   :   -0.000076034   -0.000682384   -0.000204559
  21   H   :   -0.001790003    0.000311828    0.000080585
  22   H   :   -0.000766748   -0.001163756   -0.000003053

Difference to translation invariance:
           :   -0.0000000000   -0.0000000000   -0.0000000000

Difference to rotation invariance:
           :   -0.0000000000   -0.0000000000   -0.0000000000

Norm of the Dispersion gradient    ...    0.0058998432
RMS gradient                       ...    0.0007262205
MAX gradient                       ...    0.0017900031

------------------
CARTESIAN GRADIENT
------------------

   1   C   :    0.000928897   -0.001212406   -0.002675953
   2   C   :   -0.000536910   -0.000064227    0.003578257
   3   C   :    0.002029517    0.002114460    0.005329332
   4   H   :   -0.003853692    0.002084142    0.000930990
   5   H   :   -0.003278570   -0.000354768    0.002882138
   6   C   :    0.000555596   -0.001919955   -0.005444151
   7   H   :   -0.006146415   -0.002044575    0.001059551
   8   C   :    0.000024911   -0.002017425   -0.003509588
   9   C   :    0.004229402    0.002181770   -0.007120836
  10   H   :   -0.001043993    0.003955144    0.006617901
  11   N   :    0.003546394   -0.004586533   -0.010588614
  12   O   :    0.023743584    0.014874902    0.006379085
  13   H   :    0.007518398    0.003798494    0.001235051
  14   O   :   -0.029563958   -0.007360976    0.006809836
  15   H   :    0.000944498   -0.001807458   -0.003894369
  16   H   :    0.004582432   -0.005904185    0.002252233
  17   H   :   -0.007800679   -0.003462880   -0.000387231
  18   H   :    0.002661541    0.002681643   -0.001755740
  19   H   :   -0.000490488    0.002687389    0.004979027
  20   H   :    0.003193345   -0.003686961    0.004756251
  21   H   :   -0.003383405    0.006077675   -0.005647444
  22   H   :    0.002139595   -0.006033271   -0.005785726

Difference to translation invariance:
           :   -0.0000000000    0.0000000000    0.0000000000

Difference to rotation invariance:
           :    0.0004161046    0.0002906269    0.0000559246

Norm of the Cartesian gradient     ...    0.0524244790
RMS gradient                       ...    0.0064530073
MAX gradient                       ...    0.0295639584

-------
TIMINGS
-------

Total SCF gradient time     ....        3.678 sec

Densities                   ....       0.000 sec  (  0.0%)
One electron gradient       ....       0.142 sec  (  3.9%)
RI-J Coulomb gradient       ....       0.648 sec  ( 17.6%)
XC gradient                 ....       2.888 sec  ( 78.5%)

Maximum memory used throughout the entire SCFGRAD-calculation: 28.1 MB
------------------------------------------------------------------------------
                         ORCA GEOMETRY RELAXATION STEP
------------------------------------------------------------------------------

Reading the OPT-File                    .... done
Getting information on internals        .... done
Copying old internal coords+grads       .... done
Making the new internal coordinates     .... (2022 redundants) done
Validating the new internal coordinates .... (2022 redundants) done
Calculating the B-matrix                .... done
Calculating the G,G- and P matrices     .... done
Transforming gradient to internals      .... done
Projecting the internal gradient        .... done
Number of atoms                         ....  22
Number of internal coordinates          ....  94
Current Energy                          ....  -441.404160684 Eh
Current gradient norm                   ....     0.052424479 Eh/bohr
Maximum allowed component of the step   ....  0.300
Current trust radius                    ....  0.300
Evaluating the initial hessian          ....  (Almloef) done
Projecting the Hessian                  .... done
Forming the augmented Hessian           .... done
Diagonalizing the augmented Hessian     .... done
Last element of RFO vector              ....  0.977274372
Lowest eigenvalues of augmented Hessian:
 -0.006284516  0.010087149  0.011028670  0.011216472  0.011251635
Length of the computed step             ....  0.216907667
The final length of the internal step   ....  0.216907667
Converting the step to Cartesian space:
 Initial RMS(Int)=    0.0223723176
Transforming coordinates:
 Iter   0:  RMS(Cart)=    0.0600415992 RMS(Int)=    0.6444543710
 Iter   5:  RMS(Cart)=    0.0000000181 RMS(Int)=    0.0000000098
done
Storing new coordinates                 .... done

                                .--------------------.
          ----------------------|Geometry convergence|-------------------------
          Item                value                   Tolerance       Converged
          ---------------------------------------------------------------------
          RMS gradient        0.0055055049            0.0001000000      NO
          MAX gradient        0.0311578229            0.0003000000      NO
          RMS step            0.0223723176            0.0020000000      NO
          MAX step            0.0684814583            0.0040000000      NO
          -------------------------------------------------------------------------
          ........................................................
          Max(Bonds)      0.0171      Max(Angles)    1.57
          Max(Dihed)        3.92      Max(Improp)    0.00
          ---------------------------------------------------------------------

The optimization has not yet converged - more geometry cycles are needed


    ---------------------------------------------------------------------------
                         Redundant Internal Coordinates
                            (Angstroem and degrees)

        Definition                    Value    dE/dq     Step     New-Value
    ----------------------------------------------------------------------------
     1. B(C   1,C   0)                1.5242 -0.009471  0.0129    1.5371   
     2. B(C   2,C   0)                1.5323 -0.008819  0.0124    1.5447   
     3. B(C   5,C   2)                1.5486 -0.011416  0.0170    1.5656   
     4. B(C   7,C   2)                1.5289 -0.009362  0.0130    1.5419   
     5. B(C   8,C   5)                1.5217 -0.012577  0.0170    1.5387   
     6. B(H   9,C   7)                1.0885 -0.007758  0.0111    1.0997   
     7. B(N  10,H   3)                1.0149 -0.003478  0.0043    1.0191   
     8. B(N  10,C   5)                1.4511 -0.007899  0.0092    1.4603   
     9. B(N  10,H   4)                1.0154 -0.003429  0.0042    1.0196   
    10. B(O  11,C   8)                1.3391 -0.021946  0.0171    1.3562   
    11. B(O  11,H   6)                0.9711 -0.003284  0.0034    0.9745   
    12. B(H  12,C   1)                1.0875 -0.008322  0.0119    1.0994   
    13. B(O  13,C   8)                1.2036 -0.031158  0.0148    1.2183   
    14. B(H  14,C   2)                1.0947 -0.004276  0.0063    1.1010   
    15. B(H  15,C   7)                1.0876 -0.007788  0.0112    1.0988   
    16. B(H  16,C   7)                1.0874 -0.008351  0.0119    1.0993   
    17. B(H  17,C   5)                1.0948 -0.004112  0.0060    1.1008   
    18. B(H  18,C   0)                1.0911 -0.005130  0.0074    1.0986   
    19. B(H  19,C   0)                1.0922 -0.006674  0.0097    1.1019   
    20. B(H  20,C   1)                1.0869 -0.008913  0.0127    1.0996   
    21. B(H  21,C   1)                1.0877 -0.008570  0.0123    1.0999   
    22. A(H  18,C   0,H  19)          107.68  0.001242   -0.58    107.09   
    23. A(C   1,C   0,C   2)          113.26 -0.000446    0.21    113.47   
    24. A(C   1,C   0,H  19)          108.53 -0.000683    0.26    108.79   
    25. A(C   2,C   0,H  18)          109.36  0.000237   -0.08    109.29   
    26. A(C   2,C   0,H  19)          108.18 -0.000024    0.09    108.27   
    27. A(C   1,C   0,H  18)          109.67 -0.000238    0.06    109.73   
    28. A(C   0,C   1,H  20)          111.43 -0.000365    0.08    111.51   
    29. A(H  20,C   1,H  21)          108.23  0.001501   -0.29    107.95   
    30. A(C   0,C   1,H  12)          110.14 -0.002457    0.44    110.58   
    31. A(H  12,C   1,H  20)          108.05  0.001419   -0.24    107.80   
    32. A(H  12,C   1,H  21)          108.42  0.000800   -0.15    108.27   
    33. A(C   0,C   1,H  21)          110.48 -0.000756    0.13    110.61   
    34. A(C   0,C   2,C   7)          110.41 -0.000037    0.46    110.87   
    35. A(C   0,C   2,C   5)          112.13 -0.001561    0.75    112.88   
    36. A(C   5,C   2,H  14)          105.29  0.001716   -0.87    104.41   
    37. A(C   0,C   2,H  14)          108.86  0.000841   -0.68    108.18   
    38. A(C   5,C   2,C   7)          111.38 -0.001172    0.78    112.16   
    39. A(C   7,C   2,H  14)          108.56  0.000405   -0.59    107.98   
    40. A(C   8,C   5,H  17)          107.55  0.000950   -0.31    107.24   
    41. A(C   2,C   5,H  17)          108.71  0.000797   -0.45    108.27   
    42. A(N  10,C   5,H  17)          107.86 -0.000233   -0.21    107.65   
    43. A(C   2,C   5,C   8)          111.17 -0.002022    0.62    111.79   
    44. A(C   8,C   5,N  10)          111.93  0.000444    0.16    112.09   
    45. A(C   2,C   5,N  10)          109.49  0.000148    0.14    109.63   
    46. A(C   2,C   7,H   9)          110.80  0.000017   -0.02    110.78   
    47. A(H  15,C   7,H  16)          108.15  0.000702   -0.07    108.08   
    48. A(H   9,C   7,H  16)          108.33  0.001500   -0.22    108.11   
    49. A(C   2,C   7,H  16)          111.20 -0.002486    0.49    111.69   
    50. A(H   9,C   7,H  15)          108.16  0.000489   -0.20    107.97   
    51. A(C   2,C   7,H  15)          110.09 -0.000108    0.00    110.09   
    52. A(C   5,C   8,O  13)          124.39 -0.000819    0.16    124.54   
    53. A(C   5,C   8,O  11)          113.21  0.003945   -0.49    112.71   
    54. A(O  11,C   8,O  13)          122.39 -0.003161    0.42    122.81   
    55. A(H   3,N  10,H   4)          106.60  0.001022   -0.89    105.71   
    56. A(H   4,N  10,C   5)          109.57  0.002301   -0.69    108.88   
    57. A(H   3,N  10,C   5)          110.24  0.001270   -0.51    109.73   
    58. A(H   6,O  11,C   8)          110.32  0.010408   -1.57    108.75   
    59. D(H  20,C   1,C   0,H  19)    177.59  0.000435    0.05    177.63   
    60. D(H  12,C   1,C   0,H  18)    -59.68 -0.000445    0.52    -59.16   
    61. D(H  12,C   1,C   0,H  19)     57.69  0.000521    0.01     57.70   
    62. D(H  12,C   1,C   0,C   2)    177.84 -0.000266    0.43    178.28   
    63. D(H  20,C   1,C   0,H  18)     60.21 -0.000530    0.56     60.77   
    64. D(H  20,C   1,C   0,C   2)    -62.26 -0.000352    0.47    -61.79   
    65. D(C   5,C   2,C   0,C   1)     73.80  0.002338   -3.55     70.25   
    66. D(C   7,C   2,C   0,H  19)    -41.02 -0.001529   -1.11    -42.13   
    67. D(C   7,C   2,C   0,H  18)     75.99  0.000070   -1.80     74.19   
    68. D(C   7,C   2,C   0,C   1)   -161.37 -0.000371   -1.63   -163.00   
    69. D(C   5,C   2,C   0,H  18)    -48.85  0.002779   -3.72    -52.56   
    70. D(C   5,C   2,C   0,H  19)   -165.86  0.001180   -3.03   -168.89   
    71. D(C   8,C   5,C   2,H  14)   -158.94  0.001035   -2.38   -161.31   
    72. D(C   8,C   5,C   2,C   7)    -41.46  0.001918   -3.18    -44.64   
    73. D(C   8,C   5,C   2,C   0)     82.84 -0.000193   -1.42     81.42   
    74. D(N  10,C   5,C   2,H  14)    -34.75  0.000310   -1.65    -36.39   
    75. D(N  10,C   5,C   2,C   7)     82.73  0.001193   -2.45     80.28   
    76. D(N  10,C   5,C   2,C   0)   -152.97 -0.000918   -0.69   -153.66   
    77. D(H  15,C   7,C   2,H  14)    -53.57  0.000471   -0.34    -53.91   
    78. D(H  15,C   7,C   2,C   5)   -169.05 -0.001192    0.63   -168.42   
    79. D(H  15,C   7,C   2,C   0)     65.69  0.001724   -1.26     64.43   
    80. D(H   9,C   7,C   2,H  14)   -173.18 -0.000079   -0.08   -173.26   
    81. D(H   9,C   7,C   2,C   5)     71.34 -0.001742    0.89     72.23   
    82. D(H   9,C   7,C   2,C   0)    -53.92  0.001174   -1.00    -54.92   
    83. D(O  13,C   8,C   5,N  10)    -15.50  0.001819   -3.92    -19.43   
    84. D(O  13,C   8,C   5,C   2)    107.29  0.000859   -3.18    104.11   
    85. D(O  11,C   8,C   5,H  17)     44.70 -0.000276    0.13     44.83   
    86. D(O  11,C   8,C   5,N  10)    163.00  0.000291   -0.24    162.77   
    87. D(O  11,C   8,C   5,C   2)    -74.21 -0.000670    0.51    -73.69   
    88. D(H   3,N  10,C   5,C   8)    -58.47 -0.002552    1.41    -57.06   
    89. D(H   3,N  10,C   5,C   2)    177.78 -0.000375    0.40    178.19   
    90. D(H   4,N  10,C   5,C   8)     58.54  0.000805   -0.38     58.16   
[...]
      py      :     1.393667
      dz2     :     0.003266  d :     0.023090
      dxz     :     0.004731
      dyz     :     0.004113
      dx2y2   :     0.004161
      dxy     :     0.006819

 12 H s       :     0.884217  s :     0.884217
      pz      :     0.002975  p :     0.011296
      px      :     0.005477
      py      :     0.002844

 13 O s       :     3.876821  s :     3.876821
      pz      :     1.472069  p :     4.525105
      px      :     1.383237
      py      :     1.669799
      dz2     :     0.005677  d :     0.027238
      dxz     :     0.007288
      dyz     :     0.002924
      dx2y2   :     0.006040
      dxy     :     0.005309

 14 H s       :     0.875809  s :     0.875809
      pz      :     0.005043  p :     0.011369
      px      :     0.002593
      py      :     0.003732

 15 H s       :     0.882294  s :     0.882294
      pz      :     0.002940  p :     0.011346
      px      :     0.004130
      py      :     0.004276

 16 H s       :     0.875612  s :     0.875612
      pz      :     0.003090  p :     0.011419
      px      :     0.004786
      py      :     0.003543

 17 H s       :     0.865628  s :     0.865628
      pz      :     0.004115  p :     0.011034
      px      :     0.003310
      py      :     0.003609

 18 H s       :     0.889128  s :     0.889128
      pz      :     0.004915  p :     0.011450
      px      :     0.002674
      py      :     0.003861

 19 H s       :     0.890222  s :     0.890222
      pz      :     0.002993  p :     0.011303
      px      :     0.003767
      py      :     0.004542

 20 H s       :     0.866045  s :     0.866045
      pz      :     0.002690  p :     0.011480
      px      :     0.003628
      py      :     0.005162

 21 H s       :     0.883589  s :     0.883589
      pz      :     0.005140  p :     0.011227
      px      :     0.002681
      py      :     0.003406



                     *******************************
                     * LOEWDIN POPULATION ANALYSIS *
                     *******************************

----------------------
LOEWDIN ATOMIC CHARGES
----------------------
   0 C :   -0.127345
   1 C :   -0.208394
   2 C :   -0.059624
   3 H :    0.127502
   4 H :    0.128652
   5 C :   -0.048348
   6 H :    0.182127
   7 C :   -0.204115
   8 C :    0.126120
   9 H :    0.073215
  10 N :   -0.250086
  11 O :   -0.155927
  12 H :    0.071804
  13 O :   -0.232527
  14 H :    0.076346
  15 H :    0.072145
  16 H :    0.073023
  17 H :    0.082248
  18 H :    0.065109
  19 H :    0.068523
  20 H :    0.071752
  21 H :    0.067799

-------------------------------
LOEWDIN REDUCED ORBITAL CHARGES
-------------------------------
  0 C s       :     2.907045  s :     2.907045
      pz      :     1.053733  p :     3.140431
      px      :     1.029728
      py      :     1.056969
      dz2     :     0.011504  d :     0.079869
      dxz     :     0.016159
      dyz     :     0.021022
      dx2y2   :     0.009701
      dxy     :     0.021483

  1 C s       :     2.925622  s :     2.925622
      pz      :     1.068314  p :     3.221133
      px      :     1.074846
      py      :     1.077973
      dz2     :     0.010883  d :     0.061640
      dxz     :     0.011629
      dyz     :     0.016122
      dx2y2   :     0.009168
      dxy     :     0.013837

  2 C s       :     2.898489  s :     2.898489
      pz      :     1.047639  p :     3.066395
      px      :     1.005484
      py      :     1.013272
      dz2     :     0.013009  d :     0.094740
      dxz     :     0.018603
      dyz     :     0.026011
      dx2y2   :     0.012177
      dxy     :     0.024939

  3 H s       :     0.795416  s :     0.795416
      pz      :     0.024947  p :     0.077082
      px      :     0.021868
      py      :     0.030268

  4 H s       :     0.792458  s :     0.792458
      pz      :     0.031608  p :     0.078890
      px      :     0.024553
      py      :     0.022729

  5 C s       :     2.892707  s :     2.892707
      pz      :     1.019983  p :     3.031983
      px      :     0.986177
      py      :     1.025822
      dz2     :     0.012595  d :     0.123659
      dxz     :     0.026431
      dyz     :     0.037287
      dx2y2   :     0.018248
      dxy     :     0.029098

  6 H s       :     0.704057  s :     0.704057
      pz      :     0.050337  p :     0.113816
      px      :     0.030326
      py      :     0.033153

  7 C s       :     2.925670  s :     2.925670
      pz      :     1.067238  p :     3.216860
      px      :     1.080394
      py      :     1.069229
      dz2     :     0.009007  d :     0.061584
      dxz     :     0.012751
      dyz     :     0.017493
      dx2y2   :     0.003604
      dxy     :     0.018729

  8 C s       :     2.876652  s :     2.876652
      pz      :     0.921464  p :     2.720946
      px      :     0.921659
      py      :     0.877823
      dz2     :     0.047699  d :     0.276282
      dxz     :     0.050619
      dyz     :     0.037206
      dx2y2   :     0.054752
      dxy     :     0.086007

  9 H s       :     0.887505  s :     0.887505
      pz      :     0.018325  p :     0.039280
      px      :     0.009058
      py      :     0.011897

 10 N s       :     3.220947  s :     3.220947
      pz      :     1.348113  p :     3.971827
      px      :     1.196469
      py      :     1.427246
      dz2     :     0.004546  d :     0.057312
      dxz     :     0.019698
      dyz     :     0.010160
      dx2y2   :     0.005690
      dxy     :     0.017218

 11 O s       :     3.499170  s :     3.499170
      pz      :     1.552232  p :     4.608240
      px      :     1.645257
      py      :     1.410750
      dz2     :     0.006734  d :     0.048517
      dxz     :     0.007105
      dyz     :     0.010567
      dx2y2   :     0.008280
      dxy     :     0.015830

 12 H s       :     0.890132  s :     0.890132
      pz      :     0.009350  p :     0.038064
      px      :     0.020299
      py      :     0.008415

 13 O s       :     3.569290  s :     3.569290
      pz      :     1.503235  p :     4.607681
      px      :     1.450074
      py      :     1.654372
      dz2     :     0.008660  d :     0.055557
      dxz     :     0.019365
      dyz     :     0.004809
      dx2y2   :     0.012777
      dxy     :     0.009946

 14 H s       :     0.885040  s :     0.885040
      pz      :     0.018296  p :     0.038613
      px      :     0.007560
      py      :     0.012757

 15 H s       :     0.889480  s :     0.889480
      pz      :     0.008872  p :     0.038374
      px      :     0.014562
      py      :     0.014940

 16 H s       :     0.887955  s :     0.887955
      pz      :     0.009806  p :     0.039022
      px      :     0.017685
      py      :     0.011531

 17 H s       :     0.877843  s :     0.877843
      pz      :     0.015766  p :     0.039909
      px      :     0.012058
      py      :     0.012086

 18 H s       :     0.896223  s :     0.896223
      pz      :     0.018187  p :     0.038667
      px      :     0.007845
      py      :     0.012636

 19 H s       :     0.893585  s :     0.893585
      pz      :     0.008900  p :     0.037891
      px      :     0.012712
      py      :     0.016279

 20 H s       :     0.888914  s :     0.888914
      pz      :     0.007890  p :     0.039333
      px      :     0.011894
      py      :     0.019549

 21 H s       :     0.894230  s :     0.894230
      pz      :     0.019126  p :     0.037971
      px      :     0.007353
      py      :     0.011492



                      *****************************
                      * MAYER POPULATION ANALYSIS *
                      *****************************

  NA   - Mulliken gross atomic population
  ZA   - Total nuclear charge
  QA   - Mulliken gross atomic charge
  VA   - Mayer's total valence
  BVA  - Mayer's bonded valence
  FA   - Mayer's free valence

  ATOM       NA         ZA         QA         VA         BVA        FA
  0 C      6.1796     6.0000    -0.1796     3.8841     3.8841    -0.0000
  1 C      6.3412     6.0000    -0.3412     3.8900     3.8900    -0.0000
  2 C      6.0592     6.0000    -0.0592     3.8961     3.8961     0.0000
  3 H      0.7604     1.0000     0.2396     0.9186     0.9186     0.0000
  4 H      0.7490     1.0000     0.2510     0.9292     0.9292    -0.0000
  5 C      6.0452     6.0000    -0.0452     3.8524     3.8524    -0.0000
  6 H      0.6835     1.0000     0.3165     0.9200     0.9200    -0.0000
  7 C      6.3428     6.0000    -0.3428     3.8798     3.8798     0.0000
  8 C      5.4961     6.0000     0.5039     3.9013     3.9013    -0.0000
  9 H      0.8816     1.0000     0.1184     0.9636     0.9636    -0.0000
 10 N      7.5575     7.0000    -0.5575     2.8991     2.8991    -0.0000
 11 O      8.4602     8.0000    -0.4602     2.0396     2.0396    -0.0000
 12 H      0.8955     1.0000     0.1045     0.9559     0.9559    -0.0000
 13 O      8.4292     8.0000    -0.4292     2.0937     2.0937     0.0000
 14 H      0.8872     1.0000     0.1128     0.9544     0.9544     0.0000
 15 H      0.8936     1.0000     0.1064     0.9585     0.9585     0.0000
 16 H      0.8870     1.0000     0.1130     0.9583     0.9583    -0.0000
 17 H      0.8767     1.0000     0.1233     0.9539     0.9539     0.0000
 18 H      0.9006     1.0000     0.0994     0.9618     0.9618    -0.0000
 19 H      0.9015     1.0000     0.0985     0.9537     0.9537     0.0000
 20 H      0.8775     1.0000     0.1225     0.9603     0.9603    -0.0000
 21 H      0.8948     1.0000     0.1052     0.9558     0.9558    -0.0000

  Mayer bond orders larger than 0.100000
B(  0-C ,  1-C ) :   1.0093 B(  0-C ,  2-C ) :   0.9944 B(  0-C , 18-H ) :   0.9403 
B(  0-C , 19-H ) :   0.9465 B(  1-C , 12-H ) :   0.9601 B(  1-C , 20-H ) :   0.9528 
B(  1-C , 21-H ) :   0.9603 B(  2-C ,  5-C ) :   0.9595 B(  2-C ,  7-C ) :   1.0032 
B(  2-C , 14-H ) :   0.9272 B(  3-H , 10-N ) :   0.9083 B(  4-H , 10-N ) :   0.8895 
B(  5-C ,  8-C ) :   0.8976 B(  5-C , 10-N ) :   1.0437 B(  5-C , 17-H ) :   0.9204 
B(  6-H , 11-O ) :   0.8513 B(  7-C ,  9-H ) :   0.9496 B(  7-C , 15-H ) :   0.9557 
B(  7-C , 16-H ) :   0.9531 B(  8-C , 11-O ) :   1.0605 B(  8-C , 13-O ) :   1.8803 


-------
TIMINGS
-------

Total SCF time: 0 days 0 hours 0 min 3 sec 

Total time                  ....       3.620 sec
Sum of individual times     ....       3.115 sec  ( 86.0%)

SCF preparation             ....       0.032 sec  (  0.9%)
Fock matrix formation       ....       3.047 sec  ( 84.2%)
  Startup                   ....       0.001 sec  (  0.0% of F)
  Split-RI-J                ....       1.201 sec  ( 39.4% of F)
  XC integration            ....       2.284 sec  ( 75.0% of F)
    XC Preparation          ....       0.000 sec  (  0.0% of XC)
    Basis function eval.    ....       0.835 sec  ( 36.6% of XC)
    Density eval.           ....       0.529 sec  ( 23.2% of XC)
    XC-Functional eval.     ....       0.409 sec  ( 17.9% of XC)
    XC-Potential eval.      ....       0.452 sec  ( 19.8% of XC)
Diagonalization             ....       0.000 sec  (  0.0%)
Density matrix formation    ....       0.002 sec  (  0.1%)
Total Energy calculation    ....       0.000 sec  (  0.0%)
Population analysis         ....       0.012 sec  (  0.3%)
Orbital Transformation      ....       0.003 sec  (  0.1%)
Orbital Orthonormalization  ....       0.000 sec  (  0.0%)
DIIS solution               ....       0.004 sec  (  0.1%)
SOSCF solution              ....       0.014 sec  (  0.4%)
Finished LeanSCF after   3.6 sec

Maximum memory used throughout the entire LEANSCF-calculation: 22.6 MB



-------------------------------------------------------------------------------
                          DFT DISPERSION CORRECTION                            
-------------------------------------------------------------------------------
Active option DFTDOPT                   ...         2   
Final C6-coefficient scaling factor     ...     1.250
Final VDW-radii scaling factor          ...     1.100
Damping factor alpha                    ...    20.000
-------------------------   ----------------
Dispersion correction           -0.036132103
-------------------------   ----------------


-------------------------   --------------------
FINAL SINGLE POINT ENERGY      -441.410371175111
-------------------------   --------------------

                                *** OPTIMIZATION RUN DONE ***


------------------------------------------------------------------------------
                              ORCA PROPERTY CALCULATIONS
------------------------------------------------------------------------------

GBWName                                 ... 3.gbw
Number of atoms                         ...     22
Number of basis functions               ...    191
Max core memory                         ...   4096 MB

Electric properties:
Dipole moment                           ... YES
Quadrupole moment                       ...  NO
Static polarizability (Dipole/Dipole)   ...  NO
Static polarizability (Dipole/Quad.)    ...  NO
Static polarizability (Quad./Quad.)     ...  NO
Static polarizability (Velocity)        ...  NO
Static hyperpolarizability              ...  NO

Atomic electric properties:
Dipole moment                           ...  NO
Quadrupole moment                       ...  NO
Static polarizability                   ...  NO

Choice of electric origin               ... Center of mass
Position of electric origin             ...   -14.479072     7.865048    -0.464110

General magnetic properties:
Magnetizability                         ...  NO

EPR properties:
g-Tensor (aka g-matrix)                 ...  NO
Zero-Field splitting spin-orbit         ...  NO
Zero-field splitting spin-spin          ...  NO
Hyperfine couplings                     ...  NO (   0 nuclei)
Quadrupole couplings                    ...  NO (   0 nuclei)
Contact density                         ...  NO (   0 nuclei)

NMR properties:
Chemical shifts                         ...  NO (   0 nuclei)
Spin-rotation constants                 ...  NO (   0 nuclei)
Spin-spin couplings                     ...  NO (   0 nuclei,    0 pairs)

Choice of magnetic origin               ... GIAO
Position of magnetic origin             ...     0.000000     0.000000     0.000000

Properties with geometric perturbations:
SCF Hessian                             ...  NO
IR spectrum                             ...  NO
VCD spectrum                            ...  NO
X-ray spectroscopy properties:
SCF XES/XAS/RIXS spectra                ...  NO

SCF SOC stabilization energy            ...  NO
Diagonal Born-Oppenheimer correction    ...  NO

-------------
DIPOLE MOMENT
-------------

Method             : SCF
Type of density    : Electron Density
Multiplicity       :   1
Irrep              :   0
Energy             :  -441.3742390717078479 Eh
Basis              : AO
                                X                 Y                 Z
Electronic contribution:      7.571692441      -5.809005449      -1.429967146
Nuclear contribution   :     -7.849909870       5.333920906       1.369624008
                        -----------------------------------------
Total Dipole Moment    :     -0.278217429      -0.475084543      -0.060343139
                        -----------------------------------------
Magnitude (a.u.)       :      0.553851564
Magnitude (Debye)      :      1.407778799



--------------------
Rotational spectrum 
--------------------
 
Rotational constants in cm-1:             0.061282             0.044879             0.035580 
Rotational constants in MHz :          1837.178105          1345.443004          1066.671918 

Dipole components along the rotational axes: 
x,y,z [a.u.] :     0.168274    -0.527574     0.010036 
x,y,z [Debye]:     0.427718    -1.340988     0.025510 

 

Dipole moment calculation done in   0.0 sec 

Maximum memory used throughout the entire PROP-calculation: 12.7 MB

--------------------------------
SUGGESTED CITATIONS FOR THIS RUN
--------------------------------

Below you find a list of papers that are relevant to this ORCA run
We neither can nor want to force you to cite these papers, but we appreciate if you do
You receive ORCA, which is the product of decades of hard work by many enthusiastic individuals, for free
The only thing we kindly ask in return is that you cite our papers,
We deeply appreciate it, if you show your appreciation for ORCA by not just citing the generic ORCA reference.

Please note that relegating all ORCA citations to the supporting information does *not* help us.
SI sections are not indexed - citations you put there will not count into any citation statistics
But we need these citations in order to attract the funding resources that allow us to do what we are doing

Therefore, if you are a happy ORCA user, please consider citing a few of the papers listed below in the main body of your paper

In addition to the list printed below, the program has created the file 3.bibtex that contains the list in bibtex format
You can import this file easily into all common literature databanks and citation aid programs


List of essential papers. We consider these as the minimum necessary citations

  1. Neese, F.
     Software update: the ORCA program system, version 6.0
     WIRES Comput. Molec. Sci. 2025 15(1), e70019
     doi.org/10.1002/wcms.7019

List of papers to cite with high priority. The work reported in these papers was absolutely
necessary for this run to complete.
Our perspective: the developers of density functionals and basis sets usually get cited in chemistry papers
Good! But without the algorithms to do something with them, the functionals or basis sets would not do anything.
Hence, in our opinion, the algorithm design and method developments papers are equally worthy of getting cited

  1. Neese, F.
     An improvement of the resolution of the identity approximation for the formation of the Coulomb matrix
     J. Comp. Chem. 2003 24(14), 1740-1747
     doi.org/10.1002/jcc.10318
  2. Grimme, S.
     Semiempirical GGA-type density functional constructed with a long-range dispersion correction
     J.Comput.Chem. 2006 27(15), 1787-1799
     doi.org/10.1002/jcc.20495
  3. Neese, F.
     The SHARK Integral Generation and Digestion System
     J. Comp. Chem. 2022 44(3), 381
     doi.org/10.1002/jcc.26942

List of suggested additional citations. These are papers that are important in the 'surrounding' of 
of this run, or papers that preceded the highly important papers. If you like your results we are grateful for a citation.

  1. Neese, F.
     The ORCA program system
     WIRES Comput. Molec. Sci. 2012 2(1), 73-78
     doi.org/10.1002/wcms.81
  2. Neese, F.
     Software update: the ORCA program system, version 4.0
     WIRES Comput. Molec. Sci. 2018 8(1), 1-6
     doi.org/10.1002/wcms.1327
  3. Neese, F.; Wennmohs, F.; Becker, U.; Riplinger, C.
     The ORCA quantum chemistry program package
     J. Chem. Phys. 2020 152(22), 224108
     doi.org/10.1063/5.0004608
  4. Neese, F.
     Software update: The ORCA program system—Version 5.0
     WIRES Comput. Molec. Sci. 2022 12(1), e1606
     doi.org/10.1002/wcms.1606

List of optional additional citations

  1. Neese, F.
     Approximate second-order SCF convergence for spin unrestricted wavefunctions
     Chem. Phys. Lett. 2000 325(1-3), 93-98
     doi.org/10.1016/s0009-2614(00)00662-x

Timings for individual modules:

Sum of individual times          ...      122.938 sec (=   2.049 min)
Startup calculation              ...        6.149 sec (=   0.102 min)   5.0 %
SCF iterations                   ...       71.740 sec (=   1.196 min)  58.4 %
Property calculations            ...        0.042 sec (=   0.001 min)   0.0 %
SCF Gradient evaluation          ...       44.984 sec (=   0.750 min)  36.6 %
Geometry relaxation              ...        0.024 sec (=   0.000 min)   0.0 %
                             ****ORCA TERMINATED NORMALLY****
TOTAL RUN TIME: 0 days 0 hours 2 minutes 3 seconds 287 msec
