
                                 *****************
                                 * O   R   C   A *
                                 *****************

                                            #,                                       
                                            ###                                      
                                            ####                                     
                                            #####                                    
                                            ######                                   
                                           ########,                                 
                                     ,,################,,,,,                         
                               ,,#################################,,                 
                          ,,##########################################,,             
                       ,#########################################, ''#####,          
                    ,#############################################,,   '####,        
                  ,##################################################,,,,####,       
                ,###########''''           ''''###############################       
              ,#####''   ,,,,##########,,,,          '''####'''          '####       
            ,##' ,,,,###########################,,,                        '##       
           ' ,,###''''                  '''############,,,                           
         ,,##''                                '''############,,,,        ,,,,,,###''
      ,#''                                            '''#######################'''  
     '                                                          ''''####''''         
             ,#######,   #######,   ,#######,      ##                                
            ,#'     '#,  ##    ##  ,#'     '#,    #''#        ,####,    ,#,          
            ##       ##  ##   ,#'  ##            #'  '#       #'       ,# #          
            ##       ##  #######   ##           ,######,      #####,      #          
            '#,     ,#'  ##    ##  '#,     ,#' ,#      #,     #,   #      #          
             '#######'   ##     ##  '#######'  #'      '#     '####' #    #          



                #########################################################
                #                        -***-                          #
                #          Department of theory and spectroscopy        #
                #                                                       #
                #                      Frank Neese                      #
                #                                                       #
                #     Directorship, Architecture, Infrastructure        #
                #                    SHARK, DRIVERS                     #
                #        Core code/Algorithms in most modules           #
                #                                                       #
                #        Max Planck Institute fuer Kohlenforschung      #
                #                Kaiser Wilhelm Platz 1                 #
                #                 D-45470 Muelheim/Ruhr                 #
                #                      Germany                          #
                #                                                       #
                #                  All rights reserved                  #
                #                        -***-                          #
                #########################################################


                         Program Version 6.1.0  -  RELEASE   -
                                (GIT: $679e74b$)
                          ($2025-06-10 18:02:51 +0200$)


 With contributions from (in alphabetic order):
[Max-Planck-Institut fuer Kohlenforschung]                               
  Daniel Aravena         : Magnetic Suceptibility                        
  Michael Atanasov       : Ab Initio Ligand Field Theory (pilot matlab implementation)
  Alexander A. Auer      : GIAO ZORA, VPT2 properties, NMR spectrum      
  Ute Becker             : All parallelization in ORCA, NUMFREQ, NUMCALC 
  Giovanni Bistoni       : ED, misc. LED, open-shell LED, HFLD           
  Dmytro Bykov           : pre 5.0 version of the SCF Hessian            
  Marcos Casanova-Páez   : Triplet and SCS-CIS(D). UHF-(DLPNO)-IP/EA/STEOM-CCSD. UHF-CVS-IP/STEOM-CCSD   
  Vijay G. Chilkuri      : MRCI spin determinant printing, contributions to CSF-ICE 
  Pauline Colinet        : FMM embedding                                 
  Dipayan Datta          : RHF DLPNO-CCSD density                        
  Achintya Kumar Dutta   : EOM-CC, STEOM-CC                              
  Nicolas Foglia         : Exact transition moments, OPA infrastructure, MCD improvements    
  Dmitry Ganyushin       : Spin-Orbit,Spin-Spin,Magnetic field MRCI      
  Miquel Garcia-Rates    : C-PCM and meta-GGA Hessian, CCSD/C-PCM, Gaussian charge scheme 
  Tiago L. C. Gouveia    : GS-ROHF, GS-ROCIS                             
  Yang Guo               : DLPNO-NEVPT2, F12-NEVPT2, CIM, IAO-localization        
  Andreas Hansen         : Spin unrestricted coupled pair/coupled cluster methods 
  Ingolf Harden          : AUTO-CI MPn and infrastructure                
  Benjamin Helmich-Paris : MC-RPA, TRAH-(SCF,CASSCF), AVAS, COSX integrals, SCF dyn. polar., MC-PDFT, srDFT 
  Lee Huntington         : MR-EOM, pCC                                   
  Robert Izsak           : Overlap fitted RIJCOSX, COSX-SCS-MP3, EOM     
  Riya Kayal             : Wick's Theorem for AUTO-CI, AUTO-CI UHF-CCSDT 
  Emily Kempfer          : AUTO-CI RHF CISDT and CCSDT, approximate NEVPT4
  Christian Kollmar      : KDIIS, OOCD, Brueckner-CCSD(T), CCSD density, CASPT2, CASPT2-K, improved NEVPT2 
  Axel Koslowski         : Symmetry handling                             
  Simone Kossmann        : meta-GGA functionals, TD-DFT gradient, OOMP2, (MP2 Hessian; deprecated post 5.0) 
  Lucas Lang             : DCDCAS, Hyperfine gauge corrections, ICE-SOC+SSC
  Marvin Lechner         : AUTO-CI (C++ implementation), FIC-MRCC        
  Spencer Leger          : CASSCF response                               
  Dagmar Lenk            : GEPOL surface, SMD, ORCA-2-JSON               
  Dimitrios Liakos       : Extrapolation schemes; Compound Job, Property file
  Dimitrios Manganas     : Further ROCIS development; embedding schemes. LFT, Crystal Embedding 
  Dimitrios Pantazis     : SARC Basis sets                               
  Anastasios Papadopoulos: AUTO-CI, single reference methods and gradients 
  Taras Petrenko         : pre 6.0 DFT Hessian and TD-DFT gradient,  ECA, NRVS 
  Petra Pikulova         : Analytic Raman intensities                    
  Peter Pinski           : DLPNO-MP2, DLPNO-MP2 Gradient                 
  Shashank Vittal Rao    : ES-AILFT, MagRelax                            
  Christoph Reimann      : Effective Core Potentials                     
  Marius Retegan         : Local ZFS, SOC                                
  Christoph Riplinger    : Optimizer, TS searches, QM/MM, DLPNO-CCSD(T), (RO)-DLPNO pert. Triples 
  Michael Roemelt        : Original ROCIS implementation, recursive CI coupling coefficients
  Masaaki Saitow         : Open-shell DLPNO-CCSD energy and density      
  Barbara Sandhoefer     : DKH picture change effects                    
  Yorick L. A. Schmerwitz: GMF and freeze-and-release deltaSCF, NEB S-IDPP initial path                    
  Kantharuban Sivalingam : CASSCF convergence/infrastructure, NEVPT2, NEVPT3, NEVPT4(SD), FIC-MRCI and CEPA variants
  Bernardo de Souza      : ESD, SOC TD-DFT                               
  Georgi L. Stoychev     : AutoAux, RI-MP2 NMR, DLPNO-MP2 response, X2C  
  Van Anh Tran           : RI-MP2 g-tensors                              
  Willem Van den Heuvel  : Paramagnetic NMR                              
  Zikuan Wang            : NOTCH, Electric field optimization            
  Frank Wennmohs         : Technical directorship and infrastructure     
  Hang Xu                : AUTO-CI-Response properties                   
                                                                         
[FACCTs GmbH]                                                            
  Markus Bursch, Nicolas Foglia, Miquel Garcia-Rates, Ingolf Harden, Hagen Neugebauer, Anastasios Papadopoulos, 
  Christoph Riplinger, Bernardo de Souza, Georgi L. Stoychev                                                    
                                                                 
  APM, various basis sets, CI-OPT, improved COSX, DLPNO-Multilevel,           
  DOCKER, DRACO, updates on ESD, Fragmentator, GOAT, IRC, LR-CPCM, L-BFGS, MBIS, meta-GGA TD-DFT gradient, ML-optimized integration grids, 
  MM, NACMEs, nearIR, NEB, NEB-TS, NL-DFT gradient (VV10), 2- and 3-layer-ONIOM, interface openCOSMO-RS, QMMM,   
  Crystal-QMMM, RESP, rigid body optimization, SF, symmetry and pop. for TD-DFT, various functionals, SOLVATOR                                   
                                                                         
[Other institutions]                                                     
  V. Asgeirsson          : NEB                                           
  Christoph Bannwarth    : sTDA-DFT, sTD-DFT, PBEh-3c, B97-3c, D3        
  Giovanni Bistoni       : ETS/NOCV, ADLD/ADEX, COVALED                  
  Martin Brehm           : Molecular dynamics                            
  Ronald Cardenas        : ETS/NOCV                                      
  Martina Colucci        : COVALED                                       
  Sebastian Ehlert       : rSCAN, r2SCAN, r2SCAN-3c, D4, dhf basis sets  
  Marvin Friede          : D4 for Fr, Ra, Ac-Lr                          
  Lars Goerigk           : TD-DFT with DH, B97 family of functionals     
  Stefan Grimme          : VdW corrections, initial TS optimization, DFT functionals, gCP, sTDA/sTD-DF 
  Waldemar Hujo          : DFT-NL                                        
  H. Jonsson             : NEB                                           
  Holger Kruse           : gCP                                           
  Marcel Mueller         : wB97X-3c, vDZP basis set                      
  Hagen Neugebauer       : wr2SCAN, Native XTB                           
  Gianluca Regni         : ADLD/ADEX                                     
  Tobias Risthaus        : pre 6.0 range-separated hybrid DFT and stability analysis
  Lukas Wittmann         : regularized MP2, r2SCAN double-hybrids, wr2SCAN        
                                                                         
We gratefully acknowledge several colleagues who have allowed us to      
interface, adapt or use parts of their codes:                            
  Ed Valeev, F. Pavosevic, A. Kumar             : LibInt (2-el integral package), F12 methods 
  Garnet Chan, S. Sharma, J. Yang, R. Olivares  : DMRG                   
  Ulf Ekstrom                                   : XCFun DFT Library      
  Mihaly Kallay                                 : mrcc  (arbitrary order and MRCC methods)
  Frank Weinhold                                : gennbo (NPA and NBO analysis)           
  Simon Mueller                                 : openCOSMO-RS                            
  Christopher J. Cramer and Donald G. Truhlar   : smd solvation model                     
  S Lehtola, MJT Oliveira, MAL Marques          : LibXC Library                           
  Liviu Ungur et al                             : ANISO software                          


 Your calculation uses the libint2 library for the computation of 2-el integrals
 For citations please refer to: http://libint.valeyev.net

 Your ORCA version has been built with support for libXC version: 7.0.0
 For citations please refer to: https://libxc.gitlab.io

 This ORCA versions uses:
   CBLAS   interface :  Fast vector & matrix operations
   LAPACKE interface :  Fast linear algebra routines
   SCALAPACK package :  Parallel linear algebra routines
   Shared memory     :  Shared parallel matrices
   BLAS/LAPACK       :  OpenBLAS 0.3.29  USE64BITINT DYNAMIC_ARCH NO_AFFINITY Haswell SINGLE_THREADED
        Core in use  :  Haswell
   Copyright (c) 2011-2014, The OpenBLAS Project


  ***********************************
  * Starting time: Wed Aug  6 21:17:29 2025
  * Host name:     debian
  * Process ID:    125242
  * Working dir.:  /home/uni/mm-project/f
  ***********************************



***************************************
The coordinates will be read from file: f-input-coordinates.xyz
***************************************


Your calculation utilizes the semiempirical GFN2-xTB method
Please cite in your paper:
Bannwarth, C.; Ehlert S.; Grimme, S. J. Chem. Theory Comput. 2019, 15, 1652.
   

================================================================================

================================================================================
                                        WARNINGS
                       Please study these warnings very carefully!
================================================================================


================================================================================
 STARTING AUTOMATIC FRAGMENTATION: 
================================================================================

WARNING: Geometry Optimization
  ===> : Switching off AutoStart
         For restart on a previous wavefunction, please use MOREAD

WARNING: Found dipole moment calculation with XTB calculation
  ===> : Switching off dipole moment calculation


================================================================================
                                       INPUT FILE
================================================================================
NAME = f.inp
|  1> ! xtb goat
|  2> 
|  3> %pal
|  4>   nprocs=9
|  5> end
|  6> 
|  7> * xyzfile 0 1 f-input-coordinates.xyz
|  8> 
|  9>                          ****END OF INPUT****
================================================================================

                       *****************************
                       * Geometry Optimization Run *
                       *****************************


                       *********************************
                       *              GOAT             *
                       * Global Optimization Algorithm *
                       *********************************

Geometry optimization settings:
Update method            Update   .... BFGS
Choice of coordinates    CoordSys .... (2022) Redundant Internals
Initial Hessian          InHess   .... Almloef's Model
Max. no of cycles        MaxIter  .... 69

Convergence Tolerances:
Energy Change            TolE     ....  5.0000e-06 Eh
Max. Gradient            TolMAXG  ....  3.0000e-04 Eh/bohr
RMS Gradient             TolRMSG  ....  1.0000e-04 Eh/bohr
Max. Displacement        TolMAXD  ....  4.0000e-03 bohr
RMS Displacement         TolRMSD  ....  2.0000e-03 bohr
Strict Convergence                .... True

------------------------------------------------------------------------------
                        ORCA OPTIMIZATION COORDINATE SETUP
------------------------------------------------------------------------------

The optimization will be done in redundant internal coordinates (2022)
Making redundant internal coordinates   ...  (2022 redundants) done
Evaluating the initial hessian          ...  (Almloef) done
Evaluating the coordinates              ...  done
Calculating the B-matrix                .... done
Calculating the G-matrix                .... done
The number of degrees of freedom        ....  109

    -----------------------------------------------------------------
                    Redundant Internal Coordinates


    -----------------------------------------------------------------
         Definition                    Initial Value    Approx d2E/dq
    -----------------------------------------------------------------
      1. B(C   1,C   0)                  1.3925         0.619081   
      2. B(H   4,C   2)                  1.0840         0.368085   
      3. B(C   5,C   1)                  1.3981         0.606407   
      4. B(H   7,C   1)                  1.0884         0.362245   
      5. B(C   8,C   6)                  1.5179         0.390498   
      6. B(C   8,C   5)                  1.4053         0.590622   
      7. B(C   8,C   2)                  1.4019         0.598105   
      8. B(H   9,C   0)                  1.0872         0.363874   
      9. B(C  10,H   3)                  1.0858         0.365733   
     10. B(C  10,C   2)                  1.3967         0.609583   
     11. B(C  10,C   0)                  1.3905         0.623594   
     12. B(H  11,C   5)                  1.0910         0.358790   
     13. B(C  12,C   6)                  1.5376         0.363327   
     14. B(H  13,C   6)                  1.0991         0.348242   
     15. B(H  14,C   6)                  1.0998         0.347422   
     16. B(C  15,C  12)                  1.5403         0.359650   
     17. B(N  17,H  16)                  1.9696         0.012740   
     18. B(N  17,C  12)                  1.4938         0.382150   
     19. B(O  18,H  16)                  0.9880         0.469088   
     20. B(O  18,C  15)                  1.3625         0.619141   
     21. B(H  19,N  17)                  1.0269         0.406689   
     22. B(O  20,C  15)                  1.2179         1.053160   
     23. B(H  21,C  12)                  1.0959         0.352339   
     24. B(H  22,N  17)                  1.0247         0.409987   
     25. A(C   1,C   0,C  10)          119.7636         0.434402   
     26. A(C   1,C   0,H   9)          119.9264         0.353444   
     27. A(H   9,C   0,C  10)          120.3064         0.353879   
     28. A(C   0,C   1,C   5)          119.9242         0.432224   
     29. A(C   0,C   1,H   7)          120.1242         0.353175   
     30. A(C   5,C   1,H   7)          119.9507         0.351941   
     31. A(C   8,C   2,C  10)          120.8008         0.429959   
     32. A(H   4,C   2,C   8)          121.6077         0.352073   
     33. A(H   4,C   2,C  10)          117.5905         0.353207   
     34. A(C   1,C   5,C   8)          121.0167         0.428587   
     35. A(C   8,C   5,H  11)          120.3141         0.349810   
     36. A(C   1,C   5,H  11)          118.6662         0.351372   
     37. A(C  12,C   6,H  14)          108.6633         0.320953   
     38. A(H  13,C   6,H  14)          106.3214         0.287697   
     39. A(C   8,C   6,H  14)          108.4920         0.324770   
     40. A(C  12,C   6,H  13)          108.5807         0.321077   
     41. A(C   8,C   6,H  13)          106.6132         0.324896   
     42. A(C   8,C   6,C  12)          117.6127         0.364377   
     43. A(C   5,C   8,C   6)          117.8361         0.396389   
     44. A(C   2,C   8,C   6)          123.9723         0.397266   
     45. A(C   2,C   8,C   5)          118.1308         0.427529   
     46. A(C   0,C  10,H   3)          119.7327         0.354184   
     47. A(C   0,C  10,C   2)          120.3326         0.433195   
     48. A(C   2,C  10,H   3)          119.9322         0.352824   
     49. A(C  15,C  12,N  17)          107.2553         0.360154   
     50. A(C   6,C  12,N  17)          114.2229         0.360779   
     51. A(C   6,C  12,C  15)          110.9817         0.359296   
     52. A(N  17,C  12,H  21)          108.2271         0.322430   
     53. A(C  15,C  12,H  21)          105.6178         0.321156   
     54. A(C   6,C  12,H  21)          110.1257         0.321692   
     55. A(C  12,C  15,O  20)          126.3439         0.430085   
     56. A(C  12,C  15,O  18)          110.4059         0.391445   
     57. A(O  18,C  15,O  20)          123.2426         0.471534   
     58. A(C  12,N  17,H  19)          107.7568         0.327324   
     59. A(H  19,N  17,H  22)          102.9652         0.297707   
     60. A(C  12,N  17,H  22)          107.9717         0.327760   
     61. A(C  15,O  18,H  16)          106.7597         0.363555   
     62. D(C   5,C   1,C   0,H   9)    179.8851         0.026516   
     63. D(H   7,C   1,C   0,C  10)    178.8496         0.026516   
     64. D(H   7,C   1,C   0,H   9)     -0.4626         0.026516   
     65. D(C   5,C   1,C   0,C  10)     -0.8027         0.026516   
     66. D(C   8,C   5,C   1,C   0)     -0.0591         0.025380   
     67. D(H  11,C   5,C   1,C   0)    179.3111         0.025380   
     68. D(C   8,C   5,C   1,H   7)   -179.7119         0.025380   
     69. D(H  11,C   5,C   1,H   7)     -0.3418         0.025380   
     70. D(C   6,C   8,C   5,C   1)    178.7775         0.024008   
     71. D(C   6,C   8,C   2,C  10)   -179.2100         0.024653   
     72. D(C   2,C   8,C   5,C   1)      1.4972         0.024008   
     73. D(C   2,C   8,C   5,H  11)   -177.8625         0.024008   
     74. D(C   6,C   8,C   2,H   4)      0.4333         0.024653   
     75. D(C   5,C   8,C   2,C  10)     -2.1102         0.024653   
     76. D(C   2,C   8,C   6,H  14)   -138.3450         0.011343   
     77. D(C   5,C   8,C   6,C  12)    168.3088         0.011343   
     78. D(C   5,C   8,C   2,H   4)    177.5331         0.024653   
     79. D(C   2,C   8,C   6,H  13)    107.5118         0.011343   
     80. D(C   2,C   8,C   6,C  12)    -14.5835         0.011343   
     81. D(C   5,C   8,C   6,H  13)    -69.5959         0.011343   
     82. D(C   6,C   8,C   5,H  11)     -0.5823         0.024008   
     83. D(H   3,C  10,C   2,C   8)   -179.2786         0.025662   
     84. D(H   3,C  10,C   2,H   4)      1.0641         0.025662   
     85. D(C   0,C  10,C   2,C   8)      1.2967         0.025662   
     86. D(C   0,C  10,C   2,H   4)   -178.3605         0.025662   
     87. D(H   3,C  10,C   0,H   9)      0.0762         0.026928   
     88. D(H   3,C  10,C   0,C   1)   -179.2333         0.026928   
     89. D(C   2,C  10,C   0,C   1)      0.1925         0.026928   
     90. D(C   2,C  10,C   0,H   9)    179.5021         0.026928   
     91. D(C  15,C  12,C   6,H  13)     51.9499         0.010577   
     92. D(C  15,C  12,C   6,C   8)    173.0304         0.010577   
     93. D(N  17,C  12,C   6,H  14)     58.0983         0.010577   
     94. D(N  17,C  12,C   6,H  13)    173.3427         0.010577   
     95. D(N  17,C  12,C   6,C   8)    -65.5769         0.010577   
     96. D(C  15,C  12,C   6,H  14)    -63.2944         0.010577   
     97. D(O  20,C  15,C  12,N  17)   -144.6921         0.010000   
     98. D(O  20,C  15,C  12,C   6)    -19.2942         0.010000   
     99. D(O  18,C  15,C  12,H  21)    -78.9864         0.010000   
    100. D(O  18,C  15,C  12,N  17)     36.2852         0.010000   
    101. D(O  18,C  15,C  12,C   6)    161.6831         0.010000   
    102. D(H  22,N  17,C  12,H  21)    -70.4386         0.013370   
    103. D(H  22,N  17,C  12,C  15)    176.0404         0.013370   
    104. D(H  22,N  17,C  12,C   6)     52.6126         0.013370   
    105. D(H  19,N  17,C  12,H  21)    178.9798         0.013370   
    106. D(H  19,N  17,C  12,C  15)     65.4588         0.013370   
    107. D(H  19,N  17,C  12,C   6)    -57.9691         0.013370   
    108. D(H  16,O  18,C  15,O  20)    174.6053         0.028119   
    109. D(H  16,O  18,C  15,C  12)     -6.3360         0.028119   
    -----------------------------------------------------------------

Number of atoms                         .... 23
Number of degrees of freedom            .... 109


         *************************************************************
         *                GEOMETRY OPTIMIZATION CYCLE   1            *
         *************************************************************
---------------------------------
CARTESIAN COORDINATES (ANGSTROEM)
---------------------------------
  C    -6.890717    0.681872   -0.019316
  C    -6.730537    2.064084    0.034472
  C    -4.490781    0.414571   -0.141257
  H    -5.898442   -1.216719   -0.163490
  H    -3.652105   -0.265266   -0.239060
  C    -5.447296    2.618783    0.015103
  C    -2.949599    2.481175   -0.102230
  H    -7.602481    2.713432    0.085843
  C    -4.306212    1.801694   -0.056970
  H    -7.888460    0.250430   -0.002371
  C    -5.772415   -0.139661   -0.108992
  H    -5.345968    3.704601    0.046653
  C    -1.704656    1.600833    0.095861
  H    -2.877613    2.974215   -1.081915
  H    -2.936258    3.283844    0.649441
  C    -0.414834    2.406323   -0.149483
  H     0.298157    1.000863    0.911277
  N    -1.594795    0.991649    1.455394
  O     0.655163    1.770047    0.404230
  H    -1.589155    1.755731    2.141420
  O    -0.324313    3.454957   -0.762170
  H    -1.692876    0.792405   -0.643984
  H    -2.475309    0.507978    1.657213

----------------------------
CARTESIAN COORDINATES (A.U.)
----------------------------
  NO LB    ZA    FRAG    MASS        X           Y           Z
   0 C   6.0000    1    12.011  -13.021568    1.288551   -0.036502
   1 C   6.0000    1    12.011  -12.718872    3.900553    0.065143
   2 C   6.0000    1    12.011   -8.486346    0.783426   -0.266937
   3 H   1.0000    1     1.008  -11.146440   -2.299266   -0.308951
   4 H   1.0000    1     1.008   -6.901478   -0.501280   -0.451758
   5 C   6.0000    1    12.011  -10.293898    4.948783    0.028541
   6 C   6.0000    1    12.011   -5.573934    4.688741   -0.193187
   7 H   1.0000    1     1.008  -14.366607    5.127643    0.162220
   8 C   6.0000    1    12.011   -8.137561    3.404708   -0.107658
   9 H   1.0000    1     1.008  -14.907029    0.473244   -0.004481
  10 C   6.0000    1    12.011  -10.908283   -0.263921   -0.205965
  11 H   1.0000    1     1.008  -10.102415    7.000681    0.088161
  12 C   6.0000    1    12.011   -3.221333    3.025136    0.181151
  13 H   1.0000    1     1.008   -5.437900    5.620452   -2.044523
  14 H   1.0000    1     1.008   -5.548723    6.205566    1.227266
  15 C   6.0000    1    12.011   -0.783923    4.547291   -0.282482
  16 H   1.0000    1     1.008    0.563435    1.891357    1.722064
  17 N   7.0000    1    14.007   -3.013726    1.873945    2.750296
  18 O   8.0000    1    15.999    1.238079    3.344904    0.763884
  19 H   1.0000    1     1.008   -3.003068    3.317851    4.046697
  20 O   8.0000    1    15.999   -0.612863    6.528923   -1.440293
  21 H   1.0000    1     1.008   -3.199072    1.497428   -1.216953
  22 H   1.0000    1     1.008   -4.677656    0.959939    3.131679

      -----------------------------------------------------------      
     |                   =====================                   |     
     |                           x T B                           |     
     |                   =====================                   |     
     |                         S. Grimme                         |     
     |          Mulliken Center for Theoretical Chemistry        |     
     |                    University of Bonn                     |     
      -----------------------------------------------------------      

   * xtb version 6.7.1 (edcfbbe) compiled by 'albert@albert-system' on 2024-07-22

   xtb is free software: you can redistribute it and/or modify it under
   the terms of the GNU Lesser General Public License as published by
   the Free Software Foundation, either version 3 of the License, or
   (at your option) any later version.
   
   xtb is distributed in the hope that it will be useful,
   but WITHOUT ANY WARRANTY; without even the implied warranty of
   MERCHANTABILITY or FITNESS FOR A PARTICULAR PURPOSE.  See the
   GNU Lesser General Public License for more details.
   
   Cite this work as:
   * C. Bannwarth, E. Caldeweyher, S. Ehlert, A. Hansen, P. Pracht,
     J. Seibert, S. Spicher, S. Grimme, WIREs Comput. Mol. Sci., 2020, 11,
     e01493. DOI: 10.1002/wcms.1493
   
   for GFN2-xTB:
   * C. Bannwarth, S. Ehlert and S. Grimme., J. Chem. Theory Comput., 2019,
     15, 1652-1671. DOI: 10.1021/acs.jctc.8b01176
   for GFN1-xTB:
   * S. Grimme, C. Bannwarth, P. Shushkov, J. Chem. Theory Comput., 2017,
     13, 1989-2009. DOI: 10.1021/acs.jctc.7b00118
   for GFN0-xTB:
   * P. Pracht, E. Caldeweyher, S. Ehlert, S. Grimme, ChemRxiv, 2019, preprint.
     DOI: 10.26434/chemrxiv.8326202.v1
   for GFN-FF:
   * S. Spicher and S. Grimme, Angew. Chem. Int. Ed., 2020, 59, 15665-15673.
     DOI: 10.1002/anie.202004239
   
   for ALPB and GBSA implicit solvation:
   * S. Ehlert, M. Stahn, S. Spicher, S. Grimme, J. Chem. Theory Comput.,
     2021, 17, 4250-4261. DOI: 10.1021/acs.jctc.1c00471
   
   for ddCOSMO and CPCM-X implicit solvation:
   * M. Stahn, S. Ehlert, S. Grimme, J. Phys. Chem. A,
     2023, XX, XXXX-XXXX. DOI: 10.1021/acs.jpca.3c04382
   
   for DFT-D4:
   * E. Caldeweyher, C. Bannwarth and S. Grimme, J. Chem. Phys., 2017,
     147, 034112. DOI: 10.1063/1.4993215
   * E. Caldeweyher, S. Ehlert, A. Hansen, H. Neugebauer, S. Spicher,
     C. Bannwarth and S. Grimme, J. Chem. Phys., 2019, 150, 154122.
     DOI: 10.1063/1.5090222
   * E. Caldeweyher, J.-M. Mewes, S. Ehlert and S. Grimme, Phys. Chem. Chem. Phys.
     2020, 22, 8499-8512. DOI: 10.1039/D0CP00502A
   
   for sTDA-xTB:
   * S. Grimme and C. Bannwarth, J. Chem. Phys., 2016, 145, 054103.
     DOI: 10.1063/1.4959605
   
   in the mass-spec context:
   * V. Asgeirsson, C. Bauer and S. Grimme, Chem. Sci., 2017, 8, 4879.
     DOI: 10.1039/c7sc00601b
   * J. Koopman and S. Grimme, ACS Omega 2019, 4, 12, 15120-15133.
     DOI: 10.1021/acsomega.9b02011
   
   for metadynamics refer to:
   * S. Grimme, J. Chem. Theory Comput., 2019, 155, 2847-2862
     DOI: 10.1021/acs.jctc.9b00143
   
   for SPH calculations refer to:
   * S. Spicher and S. Grimme, J. Chem. Theory Comput., 2021, 17, 1701-1714
     DOI: 10.1021/acs.jctc.0c01306
   
   for ONIOM refer to:
   * C. Plett, A. Katbashev, S. Ehlert, S. Grimme, M. Bursch,
     Phys. Chem. Chem. Phys., 2023, 25, 17860-17868. DOI: 10.1039/D3CP02178E
   
   for DIPRO refer to:
   * J. Kohn, N. Gildemeister, S. Grimme, D. Fazzi, A. Hansen,
     J. Chem. Phys., 2023, just accepted.
   
   for PTB refer to:
   * S. Grimme, M. Mueller, A. Hansen, J. Chem. Phys., 2023, 158, 124111.
     DOI: 10.1063/5.0137838
   
   with help from (in alphabetical order)
   P. Atkinson, C. Bannwarth, F. Bohle, G. Brandenburg, E. Caldeweyher
   M. Checinski, S. Dohm, S. Ehlert, S. Ehrlich, I. Gerasimov, C. Hölzer
   A. Katbashev, J. Kohn, J. Koopman, C. Lavigne, S. Lehtola, F. März, M. Müller,
   F. Musil, H. Neugebauer, J. Pisarek, C. Plett, P. Pracht, F. Pultar,
   J. Seibert, P. Shushkov, S. Spicher, M. Stahn, M. Steiner, T. Strunk,
   J. Stückrath, T. Rose, and J. Unsleber
   
 * started run on 2025/08/06 at 21:17:30.520     
   ID    Z sym.   atoms
    1    6 C      1-3, 6, 7, 9, 11, 13, 16
    2    1 H      4, 5, 8, 10, 12, 14, 15, 17, 20, 22, 23
    3    7 N      18
    4    8 O      19, 21

           -------------------------------------------------
          |                Calculation Setup                |
           -------------------------------------------------

          program call               : /home/uni/orca_6_1_0/otool_xtb f_XTB.xyz --grad -c 0 -u 0 -P 9 --namespace f --input f_XTB.input.tmp --acc 0.200000
          calculation namespace      : f
          coordinate file            : f_XTB.xyz
          omp threads                :                     9


           -------------------------------------------------
          |                 G F N 2 - x T B                 |
           -------------------------------------------------

        Reference                      10.1021/acs.jctc.8b01176
      * Hamiltonian:
        H0-scaling (s, p, d)           1.850000    2.230000    2.230000
        zeta-weighting                 0.500000
      * Dispersion:
        s8                             2.700000
        a1                             0.520000
        a2                             5.000000
        s9                             5.000000
      * Repulsion:
        kExp                           1.500000    1.000000
        rExp                           1.000000
      * Coulomb:
        alpha                          2.000000
        third order                    shell-resolved
        anisotropic                    true
        a3                             3.000000
        a5                             4.000000
        cn-shift                       1.200000
        cn-exp                         4.000000
        max-rad                        5.000000


          ...................................................
          :                      SETUP                      :
          :.................................................:
          :  # basis functions                  59          :
          :  # atomic orbitals                  59          :
          :  # shells                           35          :
          :  # electrons                        64          :
          :  max. iterations                   250          :
          :  Hamiltonian                  GFN2-xTB          :
          :  restarted?                      false          :
          :  GBSA solvation                  false          :
          :  PC potential                    false          :
          :  electronic temp.          300.0000000     K    :
          :  accuracy                    0.2000000          :
          :  -> integral cutoff          0.3198970E+02      :
          :  -> integral neglect         0.2000000E-08      :
          :  -> SCF convergence          0.2000000E-06 Eh   :
          :  -> wf. convergence          0.2000000E-04 e    :
          :  Broyden damping             0.4000000          :
          :  net charge                          0          :
          :  unpaired electrons                  0          :
          ...................................................

 iter      E             dE          RMSdq      gap      omega  full diag
   1    -36.3192248 -0.363192E+02  0.464E+00    3.67       0.0  T
   2    -36.3695031 -0.502783E-01  0.258E+00    4.32       1.0  T
   3    -36.3685149  0.988157E-03  0.124E+00    4.52       1.0  T
   4    -36.3757132 -0.719833E-02  0.207E-01    4.19       1.0  T
   5    -36.3760715 -0.358231E-03  0.853E-02    4.20       1.0  T
   6    -36.3761369 -0.654248E-04  0.430E-02    4.20       1.0  T
   7    -36.3761411 -0.423597E-05  0.115E-02    4.21       1.8  T
   8    -36.3761422 -0.103239E-05  0.348E-03    4.21       6.0  T
   9    -36.3761422 -0.523357E-07  0.170E-03    4.21      12.2  T
  10    -36.3761422 -0.436550E-08  0.636E-04    4.21      32.8  T
  11    -36.3761422 -0.512736E-08  0.283E-04    4.21      73.6  T
  12    -36.3761422 -0.489656E-09  0.116E-04    4.21     179.3  T
  13    -36.3761422 -0.916387E-10  0.404E-05    4.21     516.7  T

   *** convergence criteria satisfied after 13 iterations ***

         #    Occupation            Energy/Eh            Energy/eV
      -------------------------------------------------------------
         1        2.0000           -0.7368380             -20.0504
       ...           ...                  ...                  ...
        26        2.0000           -0.4678450             -12.7307
        27        2.0000           -0.4362003             -11.8696
        28        2.0000           -0.4329542             -11.7813
        29        2.0000           -0.4205910             -11.4449
        30        2.0000           -0.4131086             -11.2413
        31        2.0000           -0.4109292             -11.1820
        32        2.0000           -0.4026324             -10.9562 (HOMO)
        33                         -0.2478902              -6.7454 (LUMO)
        34                         -0.2352392              -6.4012
        35                         -0.2328389              -6.3359
        36                         -0.1091761              -2.9708
        37                         -0.0070655              -0.1923
       ...                                ...                  ...
        59                          0.6214336              16.9101
      -------------------------------------------------------------
                  HL-Gap            0.1547422 Eh            4.2107 eV
             Fermi-level           -0.3252613 Eh           -8.8508 eV

 SCC (total)                   0 d,  0 h,  0 min,  0.018 sec
 SCC setup                      ...        0 min,  0.000 sec (  1.241%)
 Dispersion                     ...        0 min,  0.000 sec (  0.805%)
 classical contributions        ...        0 min,  0.000 sec (  0.597%)
 integral evaluation            ...        0 min,  0.001 sec (  4.064%)
 iterations                     ...        0 min,  0.014 sec ( 79.572%)
 molecular gradient             ...        0 min,  0.002 sec ( 12.797%)
 printout                       ...        0 min,  0.000 sec (  0.800%)

         :::::::::::::::::::::::::::::::::::::::::::::::::::::
         ::                     SUMMARY                     ::
         :::::::::::::::::::::::::::::::::::::::::::::::::::::
         :: total energy             -35.912095514832 Eh    ::
         :: gradient norm              0.060834799060 Eh/a0 ::
         :: HOMO-LUMO gap              4.210749322398 eV    ::
         ::.................................................::
         :: SCC energy               -36.376117878792 Eh    ::
         :: -> isotropic ES            0.057876855375 Eh    ::
         :: -> anisotropic ES          0.002397403349 Eh    ::
         :: -> anisotropic XC          0.017434048223 Eh    ::
         :: -> dispersion             -0.019329235518 Eh    ::
         :: repulsion energy           0.464022363960 Eh    ::
         :: add. restraining           0.000000000000 Eh    ::
         :: total charge              -0.000000000000 e     ::
         :::::::::::::::::::::::::::::::::::::::::::::::::::::


Property printout bound to 'properties.out'

           -------------------------------------------------
          | TOTAL ENERGY              -35.912095514832 Eh   |
          | GRADIENT NORM               0.060834799060 Eh/α |
          | HOMO-LUMO GAP               4.210749322398 eV   |
           -------------------------------------------------

------------------------------------------------------------------------
 * finished run on 2025/08/06 at 21:17:30.547     
------------------------------------------------------------------------
 total:
 * wall-time:     0 d,  0 h,  0 min,  0.026 sec
 *  cpu-time:     0 d,  0 h,  0 min,  0.060 sec
 * ratio c/w:     2.275 speedup
 SCF:
 * wall-time:     0 d,  0 h,  0 min,  0.018 sec
 *  cpu-time:     0 d,  0 h,  0 min,  0.050 sec
 * ratio c/w:     2.746 speedup


-------------------------   --------------------
FINAL SINGLE POINT ENERGY       -35.912095514830
-------------------------   --------------------


-------------
DIPOLE MOMENT
-------------
                                X             Y             Z
Total Dipole Moment    :     -1.34900      -1.09300       0.85900
                        -----------------------------------------
Magnitude (a.u.)       :      1.93709
Magnitude (Debye)      :      4.92370


------------------
CARTESIAN GRADIENT
------------------

   1   C   :   -0.002451512   -0.001816836    0.000123019
   2   C   :   -0.009582375    0.000406206    0.000610195
   3   C   :    0.006276032   -0.004809909   -0.001738219
   4   H   :   -0.001360180   -0.003965921   -0.000053454
   5   H   :    0.000684492   -0.003303757   -0.000740259
   6   C   :    0.004671303    0.006777494   -0.000592984
   7   C   :    0.003812579   -0.001518496    0.002084074
   8   H   :   -0.005076057    0.003231687    0.000118054
   9   C   :    0.006291882    0.003972239    0.001083291
  10   H   :   -0.004664475   -0.001579469   -0.000111791
  11   C   :   -0.001488391   -0.007125570    0.000231652
  12   H   :   -0.001528522    0.007235412   -0.000436042
  13   C   :    0.004648027   -0.004956970   -0.009754092
  14   H   :   -0.003133361    0.001154150   -0.002754391
  15   H   :   -0.000465587    0.002500537    0.001961109
  16   C   :   -0.016476088   -0.014035042    0.006039025
  17   H   :   -0.004772144   -0.006453826    0.002750405
  18   N   :    0.011304841   -0.010973734    0.007928023
  19   O   :    0.018876544   -0.006549962    0.005790924
  20   H   :   -0.003754065    0.003425151    0.004045571
  21   O   :    0.004375787    0.034585726   -0.019251842
  22   H   :    0.000831125    0.001537006   -0.000859129
  23   H   :   -0.007019853    0.002263883    0.003526860

Difference to translation invariance:
           :    0.0000000000   -0.0000000000    0.0000000000

Difference to rotation invariance:
           :    0.0000000142    0.0000002420    0.0000002800

Norm of the Cartesian gradient     ...    0.0608347991
RMS gradient                       ...    0.0073236492
MAX gradient                       ...    0.0345857262
------------------------------------------------------------------------------
                         ORCA GEOMETRY RELAXATION STEP
------------------------------------------------------------------------------

Reading the OPT-File                    .... done
Getting information on internals        .... done
Copying old internal coords+grads       .... done
Making the new internal coordinates     .... (2022 redundants) done
Validating the new internal coordinates .... (2022 redundants) done
Calculating the B-matrix                .... done
Calculating the G,G- and P matrices     .... done
Transforming gradient to internals      .... done
Projecting the internal gradient        .... done
Number of atoms                         ....  23
Number of internal coordinates          .... 109
Current Energy                          ....   -35.912095515 Eh
Current gradient norm                   ....     0.060834799 Eh/bohr
Maximum allowed component of the step   ....  0.300
Current trust radius                    ....  0.300
Evaluating the initial hessian          ....  (Almloef) done
Projecting the Hessian                  .... done
Forming the augmented Hessian           .... done
Diagonalizing the augmented Hessian     .... done
Last element of RFO vector              ....  0.979490437
Lowest eigenvalues of augmented Hessian:
 -0.007342245  0.010578355  0.010884109  0.011403252  0.013492806
Length of the computed step             ....  0.205709671
The final length of the internal step   ....  0.205709671
Converting the step to Cartesian space:
 Initial RMS(Int)=    0.0197034130
Transforming coordinates:
 Iter   0:  RMS(Cart)=    0.0561899682 RMS(Int)=    0.0196017190
 Iter   5:  RMS(Cart)=    0.0000000393 RMS(Int)=    0.0000000294
done
Storing new coordinates                 .... done

                                .--------------------.
          ----------------------|Geometry convergence|-------------------------
          Item                value                   Tolerance       Converged
          ---------------------------------------------------------------------
          RMS gradient        0.0060584344            0.0001000000      NO
          MAX gradient        0.0397900688            0.0003000000      NO
          RMS step            0.0197034130            0.0020000000      NO
          MAX step            0.0569487410            0.0040000000      NO
          -------------------------------------------------------------------------
          ........................................................
          Max(Bonds)      0.0220      Max(Angles)    1.66
          Max(Dihed)        3.26      Max(Improp)    0.00
          ---------------------------------------------------------------------

    ---------------------------------------------------------------------------
                         Redundant Internal Coordinates
                            (Angstroem and degrees)

        Definition                    Value    dE/dq     Step     New-Value
    ----------------------------------------------------------------------------
     1. B(C   1,C   0)                1.3925  0.008745 -0.0073    1.3852   
     2. B(H   4,C   2)                1.0840  0.002668 -0.0038    1.0803   
     3. B(C   5,C   1)                1.3981  0.015446 -0.0134    1.3847   
     4. B(H   7,C   1)                1.0884  0.006000 -0.0086    1.0798   
     5. B(C   8,C   6)                1.5179  0.007746 -0.0103    1.5076   
     6. B(C   8,C   5)                1.4053  0.014405 -0.0129    1.3924   
     7. B(C   8,C   2)                1.4019  0.014171 -0.0125    1.3894   
     8. B(H   9,C   0)                1.0872  0.004906 -0.0070    1.0802   
     9. B(C  10,H   3)                1.0858  0.004095 -0.0058    1.0800   
    10. B(C  10,C   2)                1.3967  0.011475 -0.0098    1.3869   
    11. B(C  10,C   0)                1.3905  0.008997 -0.0074    1.3831   
    12. B(H  11,C   5)                1.0910  0.007047 -0.0102    1.0808   
    13. B(C  12,C   6)                1.5376  0.007180 -0.0102    1.5273   
    14. B(H  13,C   6)                1.0991  0.002768 -0.0041    1.0950   
    15. B(H  14,C   6)                1.0998  0.003160 -0.0047    1.0950   
    16. B(C  15,C  12)                1.5403  0.007209 -0.0087    1.5317   
    17. B(N  17,H  16)                1.9696 -0.000988 -0.0112    1.9584   
    18. B(N  17,C  12)                1.4938  0.016482 -0.0220    1.4718   
    19. B(O  18,H  16)                0.9880  0.007674 -0.0093    0.9787   
    20. B(O  18,C  15)                1.3625  0.021253 -0.0172    1.3453   
    21. B(H  19,N  17)                1.0269  0.005231 -0.0067    1.0202   
    22. B(O  20,C  15)                1.2179  0.039790 -0.0199    1.1980   
    23. B(H  21,C  12)                1.0959 -0.000545  0.0008    1.0967   
    24. B(H  22,N  17)                1.0247  0.005658 -0.0072    1.0175   
    25. A(C   1,C   0,C  10)          119.76  0.001558   -0.17    119.59   
    26. A(C   1,C   0,H   9)          119.93 -0.001180    0.15    120.08   
    27. A(H   9,C   0,C  10)          120.31 -0.000381    0.03    120.33   
    28. A(C   0,C   1,C   5)          119.92 -0.000371    0.06    119.98   
    29. A(C   0,C   1,H   7)          120.12 -0.000270    0.05    120.17   
    30. A(C   5,C   1,H   7)          119.95  0.000641   -0.10    119.85   
    31. A(C   8,C   2,C  10)          120.80  0.000553   -0.08    120.72   
    32. A(H   4,C   2,C   8)          121.61  0.001920   -0.31    121.30   
    33. A(H   4,C   2,C  10)          117.59 -0.002472    0.39    117.98   
    34. A(C   1,C   5,C   8)          121.02 -0.000307    0.01    121.03   
    35. A(C   8,C   5,H  11)          120.31  0.002387   -0.36    119.95   
    36. A(C   1,C   5,H  11)          118.67 -0.002083    0.35    119.02   
    37. A(C  12,C   6,H  14)          108.66 -0.001296    0.01    108.68   
    38. A(H  13,C   6,H  14)          106.32  0.000508    0.16    106.48   
    39. A(C   8,C   6,H  14)          108.49 -0.002160    0.25    108.74   
    40. A(C  12,C   6,H  13)          108.58  0.000406   -0.14    108.44   
    41. A(C   8,C   6,H  13)          106.61 -0.005020    1.06    107.67   
    42. A(C   8,C   6,C  12)          117.61  0.007021   -1.20    116.41   
    43. A(C   5,C   8,C   6)          117.84 -0.000613    0.13    117.97   
    44. A(C   2,C   8,C   6)          123.97  0.002540   -0.32    123.66   
    45. A(C   2,C   8,C   5)          118.13 -0.001948    0.25    118.38   
    46. A(C   0,C  10,H   3)          119.73 -0.001172    0.16    119.90   
    47. A(C   0,C  10,C   2)          120.33  0.000500   -0.03    120.30   
    48. A(C   2,C  10,H   3)          119.93  0.000670   -0.13    119.80   
    49. A(C  15,C  12,N  17)          107.26  0.002142   -0.06    107.20   
    50. A(C   6,C  12,N  17)          114.22 -0.003008    0.50    114.72   
    51. A(C   6,C  12,C  15)          110.98  0.000120   -0.07    110.92   
    52. A(N  17,C  12,H  21)          108.23  0.002527   -0.61    107.62   
    53. A(C  15,C  12,H  21)          105.62 -0.001501    0.13    105.75   
    54. A(C   6,C  12,H  21)          110.13 -0.000085    0.06    110.19   
    55. A(C  12,C  15,O  20)          126.34  0.005841   -1.03    125.32   
    56. A(C  12,C  15,O  18)          110.41 -0.008128    1.54    111.94   
    57. A(O  18,C  15,O  20)          123.24  0.002277   -0.51    122.73   
    58. A(C  12,N  17,H  19)          107.76 -0.000391    0.47    108.23   
    59. A(H  19,N  17,H  22)          102.97 -0.003037    1.66    104.62   
    60. A(C  12,N  17,H  22)          107.97 -0.001176    0.60    108.57   
    61. A(C  15,O  18,H  16)          106.76 -0.002333    0.69    107.45   
    62. D(C   5,C   1,C   0,H   9)    179.89  0.000090   -0.18    179.71   
    63. D(H   7,C   1,C   0,C  10)    178.85 -0.000283    0.59    179.44   
    64. D(H   7,C   1,C   0,H   9)     -0.46 -0.000052    0.12     -0.34   
    65. D(C   5,C   1,C   0,C  10)     -0.80 -0.000140    0.30     -0.51   
    66. D(C   8,C   5,C   1,C   0)     -0.06 -0.000038    0.19      0.13   
    67. D(H  11,C   5,C   1,C   0)    179.31 -0.000305    0.65    179.96   
    68. D(C   8,C   5,C   1,H   7)   -179.71  0.000108   -0.11   -179.82   
    69. D(H  11,C   5,C   1,H   7)     -0.34 -0.000159    0.35      0.01   
    70. D(C   6,C   8,C   5,C   1)    178.78 -0.000089    0.58    179.36   
    71. D(C   6,C   8,C   2,C  10)   -179.21  0.000037   -0.39   -179.60   
    72. D(C   2,C   8,C   5,C   1)      1.50  0.000318   -0.94      0.56   
    73. D(C   2,C   8,C   5,H  11)   -177.86  0.000617   -1.41   -179.28   
    74. D(C   6,C   8,C   2,H   4)      0.43  0.000086   -0.54     -0.11   
    75. D(C   5,C   8,C   2,C  10)     -2.11 -0.000499    1.24     -0.87   
    76. D(C   2,C   8,C   6,H  14)   -138.34 -0.001660   -0.04   -138.38   
    77. D(C   5,C   8,C   6,C  12)    168.31  0.000592   -2.34    165.97   
    78. D(C   5,C   8,C   2,H   4)    177.53 -0.000451    1.09    178.62   
    79. D(C   2,C   8,C   6,H  13)    107.51  0.001293   -0.87    106.64   
    80. D(C   2,C   8,C   6,C  12)    -14.58  0.000020   -0.71    -15.30   
    81. D(C   5,C   8,C   6,H  13)    -69.60  0.001865   -2.50    -72.10   
    82. D(C   6,C   8,C   5,H  11)     -0.58  0.000211    0.10     -0.48   
    83. D(H   3,C  10,C   2,C   8)   -179.28  0.000183   -0.40   -179.67   
    84. D(H   3,C  10,C   2,H   4)      1.06  0.000121   -0.25      0.81   
    85. D(C   0,C  10,C   2,C   8)      1.30  0.000400   -0.79      0.51   
    86. D(C   0,C  10,C   2,H   4)   -178.36  0.000338   -0.65   -179.01   
    87. D(H   3,C  10,C   0,H   9)      0.08 -0.000062    0.09      0.16   
    88. D(H   3,C  10,C   0,C   1)   -179.23  0.000175   -0.39   -179.62   
    89. D(C   2,C  10,C   0,C   1)      0.19 -0.000031    0.00      0.19   
    90. D(C   2,C  10,C   0,H   9)    179.50 -0.000268    0.48    179.98   
    91. D(C  15,C  12,C   6,H  13)     51.95  0.000234   -0.52     51.43   
    92. D(C  15,C  12,C   6,C   8)    173.03 -0.001152   -0.08    172.95   
    93. D(N  17,C  12,C   6,H  14)     58.10  0.000834   -0.41     57.69   
    94. D(N  17,C  12,C   6,H  13)    173.34  0.000962   -0.29    173.05   
    95. D(N  17,C  12,C   6,C   8)    -65.58 -0.000425    0.15    -65.43   
    96. D(C  15,C  12,C   6,H  14)    -63.29  0.000106   -0.64    -63.93   
    97. D(O  20,C  15,C  12,N  17)   -144.69  0.002374   -3.26   -147.96   
    98. D(O  20,C  15,C  12,C   6)    -19.29  0.000158   -2.72    -22.02   
    99. D(O  18,C  15,C  12,H  21)    -78.99 -0.000115   -2.47    -81.46   
   100. D(O  18,C  15,C  12,N  17)     36.29  0.003034   -3.13     33.16   
   101. D(O  18,C  15,C  12,C   6)    161.68  0.000818   -2.59    159.10   
   102. D(H  22,N  17,C  12,H  21)    -70.44 -0.002471    2.91    -67.53   
   103. D(H  22,N  17,C  12,C  15)    176.04 -0.003010    3.07    179.12   
   104. D(H  22,N  17,C  12,C   6)     52.61 -0.002745    2.87     55.48   
   105. D(H  19,N  17,C  12,H  21)    178.98  0.001747    0.51    179.49   
   106. D(H  19,N  17,C  12,C  15)     65.46  0.001208    0.68     66.13   
   107. D(H  19,N  17,C  12,C   6)    -57.97  0.001473    0.47    -57.50   
   108. D(H  16,O  18,C  15,O  20)    174.61  0.001527   -1.31    173.29   
   109. D(H  16,O  18,C  15,C  12)     -6.34  0.000938   -1.45     -7.79   
    ----------------------------------------------------------------------------

Geometry step timings:
Preparation and reading OPT file:      0.000 s ( 0.711 %)
Internal coordinates            :      0.000 s ( 0.711 %)
B/P matrices and projection     :      0.001 s (29.055 %)
Hessian update/contruction      :      0.000 s ( 9.313 %)
Making the step                 :      0.001 s (45.039 %)
Converting the step to Cartesian:      0.000 s ( 3.183 %)
Storing new data                :      0.000 s ( 0.610 %)
Checking convergence            :      0.000 s ( 0.643 %)
Final printing                  :      0.000 s (10.735 %)
Total time                      :      0.003 s

Time for energy+gradient        :      0.032 s
Time for complete geometry iter :      0.035 s

         *************************************************************
         *                GEOMETRY OPTIMIZATION CYCLE   2            *
         *************************************************************
---------------------------------
CARTESIAN COORDINATES (ANGSTROEM)
---------------------------------
  C    -6.857608    0.685049   -0.007937
  C    -6.701664    2.059638    0.062296
  C    -4.473090    0.435491   -0.162967
  H    -5.857726   -1.195824   -0.183796
  H    -3.628890   -0.230059   -0.269510
  C    -5.433524    2.614784    0.028197
  C    -2.955344    2.489735   -0.124723
  H    -7.566946    2.700537    0.142841
  C    -4.301109    1.811664   -0.078872
  H    -7.845799    0.250000    0.023275
  C    -5.741578   -0.123871   -0.122526
  H    -5.329845    3.689188    0.083443
  C    -1.736320    1.595251    0.091121
  H    -2.860578    2.974537   -1.101966
  H    -2.939316    3.290429    0.622105
  C    -0.438528    2.371160   -0.152055
  H     0.269402    1.059558    1.003018
  N    -1.640502    0.998075    1.432841
  O     0.615085    1.785780    0.445129
  H    -1.632772    1.753548    2.118406
  O    -0.340155    3.369165   -0.807459
  H    -1.734366    0.775836   -0.637836
  H    -2.500326    0.488173    1.622643

----------------------------
CARTESIAN COORDINATES (A.U.)
----------------------------
  NO LB    ZA    FRAG    MASS        X           Y           Z
   0 C   6.0000    1    12.011  -12.959002    1.294554   -0.014998
   1 C   6.0000    1    12.011  -12.664310    3.892151    0.117723
   2 C   6.0000    1    12.011   -8.452915    0.822959   -0.307962
   3 H   1.0000    1     1.008  -11.069498   -2.259781   -0.347324
   4 H   1.0000    1     1.008   -6.857609   -0.434749   -0.509299
   5 C   6.0000    1    12.011  -10.267873    4.941225    0.053284
   6 C   6.0000    1    12.011   -5.584791    4.704918   -0.235693
   7 H   1.0000    1     1.008  -14.299455    5.103275    0.269931
   8 C   6.0000    1    12.011   -8.127918    3.423548   -0.149047
   9 H   1.0000    1     1.008  -14.826412    0.472431    0.043983
  10 C   6.0000    1    12.011  -10.850009   -0.234082   -0.231541
  11 H   1.0000    1     1.008  -10.071947    6.971554    0.157684
  12 C   6.0000    1    12.011   -3.281170    3.014587    0.172195
  13 H   1.0000    1     1.008   -5.405709    5.621060   -2.082414
  14 H   1.0000    1     1.008   -5.554503    6.218010    1.175608
  15 C   6.0000    1    12.011   -0.828698    4.480842   -0.287342
  16 H   1.0000    1     1.008    0.509095    2.002275    1.895429
  17 N   7.0000    1    14.007   -3.100100    1.886088    2.707678
  18 O   8.0000    1    15.999    1.162341    3.374634    0.841171
  19 H   1.0000    1     1.008   -3.085493    3.313726    4.003208
  20 O   8.0000    1    15.999   -0.642800    6.366799   -1.525876
  21 H   1.0000    1     1.008   -3.277477    1.466118   -1.205335
  22 H   1.0000    1     1.008   -4.724932    0.922514    3.066351

      -----------------------------------------------------------      
     |                   =====================                   |     
     |                           x T B                           |     
     |                   =====================                   |     
     |                         S. Grimme                         |     
     |          Mulliken Center for Theoretical Chemistry        |     
     |                    University of Bonn                     |     
      -----------------------------------------------------------      

   * xtb version 6.7.1 (edcfbbe) compiled by 'albert@albert-system' on 2024-07-22

   xtb is free software: you can redistribute it and/or modify it under
   the terms of the GNU Lesser General Public License as published by
   the Free Software Foundation, either version 3 of the License, or
   (at your option) any later version.
   
   xtb is distributed in the hope that it will be useful,
   but WITHOUT ANY WARRANTY; without even the implied warranty of
   MERCHANTABILITY or FITNESS FOR A PARTICULAR PURPOSE.  See the
   GNU Lesser General Public License for more details.
   
   Cite this work as:
   * C. Bannwarth, E. Caldeweyher, S. Ehlert, A. Hansen, P. Pracht,
     J. Seibert, S. Spicher, S. Grimme, WIREs Comput. Mol. Sci., 2020, 11,
     e01493. DOI: 10.1002/wcms.1493
   
   for GFN2-xTB:
   * C. Bannwarth, S. Ehlert and S. Grimme., J. Chem. Theory Comput., 2019,
     15, 1652-1671. DOI: 10.1021/acs.jctc.8b01176
   for GFN1-xTB:
   * S. Grimme, C. Bannwarth, P. Shushkov, J. Chem. Theory Comput., 2017,
     13, 1989-2009. DOI: 10.1021/acs.jctc.7b00118
   for GFN0-xTB:
   * P. Pracht, E. Caldeweyher, S. Ehlert, S. Grimme, ChemRxiv, 2019, preprint.
     DOI: 10.26434/chemrxiv.8326202.v1
   for GFN-FF:
   * S. Spicher and S. Grimme, Angew. Chem. Int. Ed., 2020, 59, 15665-15673.
     DOI: 10.1002/anie.202004239
   
   for ALPB and GBSA implicit solvation:
   * S. Ehlert, M. Stahn, S. Spicher, S. Grimme, J. Chem. Theory Comput.,
     2021, 17, 4250-4261. DOI: 10.1021/acs.jctc.1c00471
   
   for ddCOSMO and CPCM-X implicit solvation:
   * M. Stahn, S. Ehlert, S. Grimme, J. Phys. Chem. A,
     2023, XX, XXXX-XXXX. DOI: 10.1021/acs.jpca.3c04382
   
   for DFT-D4:
   * E. Caldeweyher, C. Bannwarth and S. Grimme, J. Chem. Phys., 2017,
     147, 034112. DOI: 10.1063/1.4993215
   * E. Caldeweyher, S. Ehlert, A. Hansen, H. Neugebauer, S. Spicher,
     C. Bannwarth and S. Grimme, J. Chem. Phys., 2019, 150, 154122.
     DOI: 10.1063/1.5090222
   * E. Caldeweyher, J.-M. Mewes, S. Ehlert and S. Grimme, Phys. Chem. Chem. Phys.
     2020, 22, 8499-8512. DOI: 10.1039/D0CP00502A
   
   for sTDA-xTB:
   * S. Grimme and C. Bannwarth, J. Chem. Phys., 2016, 145, 054103.
     DOI: 10.1063/1.4959605
   
   in the mass-spec context:
   * V. Asgeirsson, C. Bauer and S. Grimme, Chem. Sci., 2017, 8, 4879.
     DOI: 10.1039/c7sc00601b
   * J. Koopman and S. Grimme, ACS Omega 2019, 4, 12, 15120-15133.
     DOI: 10.1021/acsomega.9b02011
   
   for metadynamics refer to:
   * S. Grimme, J. Chem. Theory Comput., 2019, 155, 2847-2862
     DOI: 10.1021/acs.jctc.9b00143
   
   for SPH calculations refer to:
   * S. Spicher and S. Grimme, J. Chem. Theory Comput., 2021, 17, 1701-1714
     DOI: 10.1021/acs.jctc.0c01306
   
   for ONIOM refer to:
   * C. Plett, A. Katbashev, S. Ehlert, S. Grimme, M. Bursch,
     Phys. Chem. Chem. Phys., 2023, 25, 17860-17868. DOI: 10.1039/D3CP02178E
   
   for DIPRO refer to:
   * J. Kohn, N. Gildemeister, S. Grimme, D. Fazzi, A. Hansen,
     J. Chem. Phys., 2023, just accepted.
   
   for PTB refer to:
   * S. Grimme, M. Mueller, A. Hansen, J. Chem. Phys., 2023, 158, 124111.
     DOI: 10.1063/5.0137838
   
   with help from (in alphabetical order)
   P. Atkinson, C. Bannwarth, F. Bohle, G. Brandenburg, E. Caldeweyher
   M. Checinski, S. Dohm, S. Ehlert, S. Ehrlich, I. Gerasimov, C. Hölzer
   A. Katbashev, J. Kohn, J. Koopman, C. Lavigne, S. Lehtola, F. März, M. Müller,
   F. Musil, H. Neugebauer, J. Pisarek, C. Plett, P. Pracht, F. Pultar,
   J. Seibert, P. Shushkov, S. Spicher, M. Stahn, M. Steiner, T. Strunk,
   J. Stückrath, T. Rose, and J. Unsleber
   
 * started run on 2025/08/06 at 21:17:30.555     
   ID    Z sym.   atoms
    1    6 C      1-3, 6, 7, 9, 11, 13, 16
    2    1 H      4, 5, 8, 10, 12, 14, 15, 17, 20, 22, 23
    3    7 N      18
    4    8 O      19, 21

           -------------------------------------------------
          |                Calculation Setup                |
           -------------------------------------------------

          program call               : /home/uni/orca_6_1_0/otool_xtb f_XTB.xyz --grad -c 0 -u 0 -P 9 --namespace f --input f_XTB.input.tmp --acc 0.200000
          calculation namespace      : f
          coordinate file            : f_XTB.xyz
          omp threads                :                     9


           -------------------------------------------------
          |                 G F N 2 - x T B                 |
           -------------------------------------------------

        Reference                      10.1021/acs.jctc.8b01176
      * Hamiltonian:
        H0-scaling (s, p, d)           1.850000    2.230000    2.230000
        zeta-weighting                 0.500000
      * Dispersion:
        s8                             2.700000
        a1                             0.520000
        a2                             5.000000
        s9                             5.000000
      * Repulsion:
        kExp                           1.500000    1.000000
        rExp                           1.000000
      * Coulomb:
        alpha                          2.000000
        third order                    shell-resolved
        anisotropic                    true
        a3                             3.000000
        a5                             4.000000
        cn-shift                       1.200000
        cn-exp                         4.000000
        max-rad                        5.000000

q/qsh data taken from xtbrestart
CAMM data taken from xtbrestart

          ...................................................
          :                      SETUP                      :
          :.................................................:
          :  # basis functions                  59          :
          :  # atomic orbitals                  59          :
          :  # shells                           35          :
          :  # electrons                        64          :
          :  max. iterations                   250          :
          :  Hamiltonian                  GFN2-xTB          :
          :  restarted?                       true          :
          :  GBSA solvation                  false          :
          :  PC potential                    false          :
          :  electronic temp.          300.0000000     K    :
          :  accuracy                    0.2000000          :
          :  -> integral cutoff          0.3198970E+02      :
          :  -> integral neglect         0.2000000E-08      :
          :  -> SCF convergence          0.2000000E-06 Eh   :
          :  -> wf. convergence          0.2000000E-04 e    :
          :  Broyden damping             0.4000000          :
          :  net charge                          0          :
          :  unpaired electrons                  0          :
          ...................................................

 iter      E             dE          RMSdq      gap      omega  full diag
   1    -36.4145602 -0.364146E+02  0.254E-01    4.52       0.0  T
   2    -36.4146229 -0.627716E-04  0.151E-01    4.47       1.0  T
   3    -36.4146029  0.200030E-04  0.567E-02    4.49       1.0  T
   4    -36.4146391 -0.361914E-04  0.750E-03    4.47       2.8  T
   5    -36.4146396 -0.467568E-06  0.433E-03    4.47       4.8  T
   6    -36.4146397 -0.937219E-07  0.148E-03    4.47      14.1  T
   7    -36.4146397 -0.481024E-08  0.344E-04    4.47      60.5  T
   8    -36.4146397 -0.342368E-09  0.172E-04    4.47     121.6  T
   9    -36.4146397 -0.373888E-10  0.675E-05    4.47     308.9  T

   *** convergence criteria satisfied after 9 iterations ***

         #    Occupation            Energy/Eh            Energy/eV
      -------------------------------------------------------------
         1        2.0000           -0.7403965             -20.1472
       ...           ...                  ...                  ...
        26        2.0000           -0.4681775             -12.7398
        27        2.0000           -0.4353444             -11.8463
        28        2.0000           -0.4321423             -11.7592
        29        2.0000           -0.4192273             -11.4078
        30        2.0000           -0.4130222             -11.2389
        31        2.0000           -0.4100391             -11.1577
        32        2.0000           -0.4026542             -10.9568 (HOMO)
        33                         -0.2382484              -6.4831 (LUMO)
        34                         -0.2322095              -6.3187
        35                         -0.2299819              -6.2581
        36                         -0.1025764              -2.7912
        37                          0.0097160               0.2644
       ...                                ...                  ...
        59                          0.6542476              17.8030
      -------------------------------------------------------------
                  HL-Gap            0.1644057 Eh            4.4737 eV
             Fermi-level           -0.3204513 Eh           -8.7199 eV

 SCC (total)                   0 d,  0 h,  0 min,  0.015 sec
 SCC setup                      ...        0 min,  0.000 sec (  1.742%)
 Dispersion                     ...        0 min,  0.000 sec (  1.260%)
 classical contributions        ...        0 min,  0.000 sec (  0.312%)
 integral evaluation            ...        0 min,  0.001 sec (  4.426%)
 iterations                     ...        0 min,  0.011 sec ( 77.464%)
 molecular gradient             ...        0 min,  0.002 sec ( 14.051%)
 printout                       ...        0 min,  0.000 sec (  0.617%)

         :::::::::::::::::::::::::::::::::::::::::::::::::::::
         ::                     SUMMARY                     ::
         :::::::::::::::::::::::::::::::::::::::::::::::::::::
         :: total energy             -35.916608182402 Eh    ::
         :: gradient norm              0.018709233840 Eh/a0 ::
         :: HOMO-LUMO gap              4.473707852743 eV    ::
         ::.................................................::
         :: SCC energy               -36.414613864392 Eh    ::
         :: -> isotropic ES            0.057837848987 Eh    ::
         :: -> anisotropic ES          0.002154361778 Eh    ::
         :: -> anisotropic XC          0.016294427265 Eh    ::
         :: -> dispersion             -0.019541013339 Eh    ::
         :: repulsion energy           0.498005681990 Eh    ::
         :: add. restraining           0.000000000000 Eh    ::
         :: total charge              -0.000000000000 e     ::
         :::::::::::::::::::::::::::::::::::::::::::::::::::::


Property printout bound to 'properties.out'

           -------------------------------------------------
          | TOTAL ENERGY              -35.916608182402 Eh   |
          | GRADIENT NORM               0.018709233840 Eh/α |
          | HOMO-LUMO GAP               4.473707852743 eV   |
           -------------------------------------------------

------------------------------------------------------------------------
 * finished run on 2025/08/06 at 21:17:30.577     
------------------------------------------------------------------------
 total:
 * wall-time:     0 d,  0 h,  0 min,  0.022 sec
 *  cpu-time:     0 d,  0 h,  0 min,  0.052 sec
 * ratio c/w:     2.397 speedup
 SCF:
 * wall-time:     0 d,  0 h,  0 min,  0.015 sec
 *  cpu-time:     0 d,  0 h,  0 min,  0.042 sec
 * ratio c/w:     2.835 speedup


-------------------------   --------------------
FINAL SINGLE POINT ENERGY       -35.916608182400
-------------------------   --------------------


-------------
DIPOLE MOMENT
-------------
                                X             Y             Z
Total Dipole Moment    :     -1.31400      -1.04500       0.94200
                        -----------------------------------------
Magnitude (a.u.)       :      1.92509
Magnitude (Debye)      :      4.89320


------------------
CARTESIAN GRADIENT
------------------

   1   C   :    0.000446512    0.000018024   -0.000045247
   2   C   :   -0.002757584    0.000087435    0.000270935
   3   C   :    0.001435689    0.000736143   -0.000138490
   4   H   :   -0.000487782    0.000102299    0.000077395
   5   H   :   -0.000521145   -0.000739878    0.000018066
   6   C   :    0.003426896    0.001317293   -0.000750048
   7   C   :    0.002242785   -0.002409001    0.002453853
   8   H   :   -0.000063235   -0.000013351   -0.000079615
   9   C   :    0.000056681    0.000922533   -0.000461304
  10   H   :   -0.000337952    0.000167054    0.000025327
  11   C   :    0.000362943   -0.001721505    0.000006158
  12   H   :   -0.001503582    0.000280631   -0.000082286
  13   C   :    0.001523659   -0.000235401   -0.004042503
  14   H   :   -0.002161723   -0.000017379   -0.000440343
  15   H   :   -0.000354412   -0.000010412    0.000098370
  16   C   :   -0.009849288    0.001025643   -0.000998588
  17   H   :   -0.001960774    0.000216067    0.000097770
  18   N   :    0.005528081   -0.004627085    0.001768175
  19   O   :    0.007270706   -0.003837354    0.002173417
  20   H   :   -0.001800432    0.000676177    0.000172583
  21   O   :    0.001894485    0.004154785   -0.001536795
  22   H   :    0.000423376    0.000707534    0.000584874
  23   H   :   -0.002813904    0.003199745    0.000828296

Difference to translation invariance:
           :    0.0000000000    0.0000000000   -0.0000000000

Difference to rotation invariance:
           :   -0.0000000952    0.0000003586    0.0000001940

Norm of the Cartesian gradient     ...    0.0187092338
RMS gradient                       ...    0.0022523271
MAX gradient                       ...    0.0098492878
------------------------------------------------------------------------------
                         ORCA GEOMETRY RELAXATION STEP
------------------------------------------------------------------------------

Reading the OPT-File                    .... done
Getting information on internals        .... done
Copying old internal coords+grads       .... done
Making the new internal coordinates     .... (2022 redundants) done
Validating the new internal coordinates .... (2022 redundants) done
Calculating the B-matrix                .... done
Calculating the G,G- and P matrices     .... done
Transforming gradient to internals      .... done
Projecting the internal gradient        .... done
Number of atoms                         ....  23
Number of internal coordinates          .... 109
Current Energy                          ....   -35.916608182 Eh
Current gradient norm                   ....     0.018709234 Eh/bohr
Maximum allowed component of the step   ....  0.300
Current trust radius                    ....  0.300
Updating the Hessian (BFGS)             .... done
Forming the augmented Hessian           .... done
Diagonalizing the augmented Hessian     .... done
Last element of RFO vector              ....  0.973091133
Lowest eigenvalues of augmented Hessian:
 -0.001372465  0.010577562  0.010753327  0.011355901  0.013290784
Length of the computed step             ....  0.236792403
The final length of the internal step   ....  0.236792403
Converting the step to Cartesian space:
 Initial RMS(Int)=    0.0226805988
Transforming coordinates:
 Iter   0:  RMS(Cart)=    0.0574190576 RMS(Int)=    1.1977272827
 Iter   5:  RMS(Cart)=    0.0000000556 RMS(Int)=    0.0000000387
done
Storing new coordinates                 .... done
The predicted energy change is          ....    -0.000724710
Previously predicted energy change      ....    -0.003826472
Actually observed energy change         ....    -0.004512668
Ratio of predicted to observed change   ....     1.179328623
New trust radius                        ....     0.450000000

                                .--------------------.
          ----------------------|Geometry convergence|-------------------------
          Item                value                   Tolerance       Converged
          ---------------------------------------------------------------------
          Energy change      -0.0045126676            0.0000050000      NO
          RMS gradient        0.0012463666            0.0001000000      NO
          MAX gradient        0.0073298700            0.0003000000      NO
          RMS step            0.0226805988            0.0020000000      NO
          MAX step            0.0838659028            0.0040000000      NO
          -------------------------------------------------------------------------
          ........................................................
          Max(Bonds)      0.0091      Max(Angles)    1.44
          Max(Dihed)        4.81      Max(Improp)    0.00
          ---------------------------------------------------------------------

    ---------------------------------------------------------------------------
                         Redundant Internal Coordinates
                            (Angstroem and degrees)

        Definition                    Value    dE/dq     Step     New-Value
    ----------------------------------------------------------------------------
     1. B(C   1,C   0)                1.3852  0.000319 -0.0011    1.3841   
     2. B(H   4,C   2)                1.0803  0.000047 -0.0005    1.0798   
     3. B(C   5,C   1)                1.3847  0.002175 -0.0038    1.3810   
     4. B(H   7,C   1)                1.0798  0.000037 -0.0009    1.0789   
     5. B(C   8,C   6)                1.5076 -0.000607  0.0000    1.5076   
     6. B(C   8,C   5)                1.3924  0.000942 -0.0024    1.3900   
     7. B(C   8,C   2)                1.3894  0.001003 -0.0024    1.3870   
     8. B(H   9,C   0)                1.0802  0.000243 -0.0011    1.0790   
     9. B(C  10,H   3)                1.0800 -0.000053 -0.0005    1.0795   
    10. B(C  10,C   2)                1.3869  0.000977 -0.0020    1.3849   
    11. B(C  10,C   0)                1.3831  0.000722 -0.0015    1.3816   
    12. B(H  11,C   5)                1.0808  0.000131 -0.0013    1.0795   
    13. B(C  12,C   6)                1.5273 -0.000712  0.0003    1.5276   
    14. B(H  13,C   6)                1.0950  0.000198 -0.0008    1.0942   
    15. B(H  14,C   6)                1.0950  0.000054 -0.0006    1.0945   
    16. B(C  15,C  12)                1.5315 -0.000621  0.0017    1.5332   
    17. B(N  17,H  16)                1.9586 -0.000899 -0.0025    1.9562   
    18. B(N  17,C  12)                1.4717  0.003023 -0.0072    1.4645   
    19. B(O  18,H  16)                0.9788  0.000145 -0.0018    0.9771   
    20. B(O  18,C  15)                1.3451  0.007330 -0.0091    1.3361   
    21. B(H  19,N  17)                1.0202  0.000603 -0.0017    1.0185   
    22. B(O  20,C  15)                1.1980  0.004457 -0.0049    1.1931   
    23. B(H  21,C  12)                1.0967 -0.000917  0.0018    1.0986   
    24. B(H  22,N  17)                1.0175  0.000929 -0.0022    1.0153   
    25. A(C   1,C   0,C  10)          119.59  0.000620   -0.12    119.46   
    26. A(C   1,C   0,H   9)          120.08 -0.000605    0.13    120.21   
    27. A(H   9,C   0,C  10)          120.33 -0.000015   -0.01    120.33   
    28. A(C   0,C   1,C   5)          119.98 -0.000310    0.06    120.04   
    29. A(C   0,C   1,H   7)          120.17  0.000105   -0.01    120.16   
    30. A(C   5,C   1,H   7)          119.85  0.000206   -0.05    119.80   
    31. A(C   8,C   2,C  10)          120.72  0.000046   -0.01    120.71   
    32. A(H   4,C   2,C   8)          121.30  0.000900   -0.22    121.08   
    33. A(H   4,C   2,C  10)          117.98 -0.000944    0.23    118.21   
    34. A(C   1,C   5,C   8)          121.03 -0.000303    0.05    121.08   
    35. A(C   8,C   5,H  11)          119.95  0.001699   -0.38    119.57   
    36. A(C   1,C   5,H  11)          119.02 -0.001397    0.33    119.35   
    37. A(C  12,C   6,H  14)          108.67  0.000114   -0.20    108.47   
    38. A(H  13,C   6,H  14)          106.48  0.000252   -0.07    106.41   
    39. A(C   8,C   6,H  14)          108.73 -0.000481    0.06    108.80   
    40. A(C  12,C   6,H  13)          108.44  0.000934   -0.22    108.22   
    41. A(C   8,C   6,H  13)          107.67 -0.002280    0.85    108.52   
    42. A(C   8,C   6,C  12)          116.41  0.001375   -0.39    116.02   
    43. A(C   5,C   8,C   6)          117.96 -0.000087    0.04    118.00   
    44. A(C   2,C   8,C   6)          123.65 -0.000094   -0.01    123.64   
    45. A(C   2,C   8,C   5)          118.38  0.000178   -0.00    118.37   
    46. A(C   0,C  10,H   3)          119.90 -0.000394    0.10    119.99   
    47. A(C   0,C  10,C   2)          120.30 -0.000233    0.05    120.35   
    48. A(C   2,C  10,H   3)          119.80  0.000626   -0.14    119.66   
    49. A(C  15,C  12,N  17)          107.17  0.000808    0.16    107.32   
    50. A(C   6,C  12,N  17)          114.74 -0.001883    0.51    115.24   
    51. A(C   6,C  12,C  15)          110.93  0.000508   -0.18    110.75   
    52. A(N  17,C  12,H  21)          107.62  0.000639   -0.29    107.33   
    53. A(C  15,C  12,H  21)          105.75 -0.000012   -0.21    105.54   
    54. A(C   6,C  12,H  21)          110.19  0.000097   -0.04    110.15   
    55. A(C  12,C  15,O  20)          125.35  0.002879   -0.77    124.57   
    56. A(C  12,C  15,O  18)          111.89 -0.001944    0.85    112.74   
    57. A(O  18,C  15,O  20)          122.76 -0.000939   -0.08    122.68   
    58. A(C  12,N  17,H  19)          108.22 -0.001278    0.71    108.93   
    59. A(H  19,N  17,H  22)          104.60 -0.000971    1.44    106.05   
    60. A(C  12,N  17,H  22)          108.56 -0.002489    0.99    109.56   
    61. A(C  15,O  18,H  16)          107.41 -0.002023    0.75    108.16   
    62. D(C   5,C   1,C   0,H   9)    179.71 -0.000012    0.01    179.72   
    63. D(H   7,C   1,C   0,C  10)    179.44 -0.000087    0.32    179.76   
    64. D(H   7,C   1,C   0,H   9)     -0.34 -0.000051    0.15     -0.19   
    65. D(C   5,C   1,C   0,C  10)     -0.51 -0.000048    0.18     -0.33   
    66. D(C   8,C   5,C   1,C   0)      0.13 -0.000007    0.10      0.23   
    67. D(H  11,C   5,C   1,C   0)    179.96 -0.000067    0.25    180.22   
    68. D(C   8,C   5,C   1,H   7)   -179.82  0.000033   -0.04   -179.86   
    69. D(H  11,C   5,C   1,H   7)      0.01 -0.000027    0.12      0.13   
    70. D(C   6,C   8,C   5,C   1)    179.36 -0.000026    0.28    179.64   
    71. D(C   6,C   8,C   2,C  10)   -179.60 -0.000027   -0.16   -179.77   
    72. D(C   2,C   8,C   5,C   1)      0.56  0.000116   -0.54      0.02   
    73. D(C   2,C   8,C   5,H  11)   -179.28  0.000182   -0.70   -179.97   
    74. D(C   6,C   8,C   2,H   4)     -0.10  0.000094   -0.54     -0.64   
    75. D(C   5,C   8,C   2,C  10)     -0.87 -0.000178    0.71     -0.16   
    76. D(C   2,C   8,C   6,H  14)   -138.38 -0.000289   -2.25   -140.63   
    77. D(C   5,C   8,C   6,C  12)    165.97  0.000621   -3.63    162.34   
    78. D(C   5,C   8,C   2,H   4)    178.62 -0.000057    0.34    178.96   
    79. D(C   2,C   8,C   6,H  13)    106.63  0.000852   -2.63    104.00   
    80. D(C   2,C   8,C   6,C  12)    -15.30  0.000474   -2.76    -18.06   
[...]
     DOI: 10.1021/acs.jctc.9b00143
   
   for SPH calculations refer to:
   * S. Spicher and S. Grimme, J. Chem. Theory Comput., 2021, 17, 1701-1714
     DOI: 10.1021/acs.jctc.0c01306
   
   for ONIOM refer to:
   * C. Plett, A. Katbashev, S. Ehlert, S. Grimme, M. Bursch,
     Phys. Chem. Chem. Phys., 2023, 25, 17860-17868. DOI: 10.1039/D3CP02178E
   
   for DIPRO refer to:
   * J. Kohn, N. Gildemeister, S. Grimme, D. Fazzi, A. Hansen,
     J. Chem. Phys., 2023, just accepted.
   
   for PTB refer to:
   * S. Grimme, M. Mueller, A. Hansen, J. Chem. Phys., 2023, 158, 124111.
     DOI: 10.1063/5.0137838
   
   with help from (in alphabetical order)
   P. Atkinson, C. Bannwarth, F. Bohle, G. Brandenburg, E. Caldeweyher
   M. Checinski, S. Dohm, S. Ehlert, S. Ehrlich, I. Gerasimov, C. Hölzer
   A. Katbashev, J. Kohn, J. Koopman, C. Lavigne, S. Lehtola, F. März, M. Müller,
   F. Musil, H. Neugebauer, J. Pisarek, C. Plett, P. Pracht, F. Pultar,
   J. Seibert, P. Shushkov, S. Spicher, M. Stahn, M. Steiner, T. Strunk,
   J. Stückrath, T. Rose, and J. Unsleber
   
 * started run on 2025/08/06 at 21:17:31.026     
   ID    Z sym.   atoms
    1    6 C      1-3, 6, 7, 9, 11, 13, 16
    2    1 H      4, 5, 8, 10, 12, 14, 15, 17, 20, 22, 23
    3    7 N      18
    4    8 O      19, 21

           -------------------------------------------------
          |                Calculation Setup                |
           -------------------------------------------------

          program call               : /home/uni/orca_6_1_0/otool_xtb f_XTB.xyz --grad -c 0 -u 0 -P 9 --namespace f --input f_XTB.input.tmp --acc 0.200000
          calculation namespace      : f
          coordinate file            : f_XTB.xyz
          omp threads                :                     9


           -------------------------------------------------
          |                 G F N 2 - x T B                 |
           -------------------------------------------------

        Reference                      10.1021/acs.jctc.8b01176
      * Hamiltonian:
        H0-scaling (s, p, d)           1.850000    2.230000    2.230000
        zeta-weighting                 0.500000
      * Dispersion:
        s8                             2.700000
        a1                             0.520000
        a2                             5.000000
        s9                             5.000000
      * Repulsion:
        kExp                           1.500000    1.000000
        rExp                           1.000000
      * Coulomb:
        alpha                          2.000000
        third order                    shell-resolved
        anisotropic                    true
        a3                             3.000000
        a5                             4.000000
        cn-shift                       1.200000
        cn-exp                         4.000000
        max-rad                        5.000000

q/qsh data taken from xtbrestart
CAMM data taken from xtbrestart

          ...................................................
          :                      SETUP                      :
          :.................................................:
          :  # basis functions                  59          :
          :  # atomic orbitals                  59          :
          :  # shells                           35          :
          :  # electrons                        64          :
          :  max. iterations                   250          :
          :  Hamiltonian                  GFN2-xTB          :
          :  restarted?                       true          :
          :  GBSA solvation                  false          :
          :  PC potential                    false          :
          :  electronic temp.          300.0000000     K    :
          :  accuracy                    0.2000000          :
          :  -> integral cutoff          0.3198970E+02      :
          :  -> integral neglect         0.2000000E-08      :
          :  -> SCF convergence          0.2000000E-06 Eh   :
          :  -> wf. convergence          0.2000000E-04 e    :
          :  Broyden damping             0.4000000          :
          :  net charge                          0          :
          :  unpaired electrons                  0          :
          ...................................................

 iter      E             dE          RMSdq      gap      omega  full diag
   1    -36.4239567 -0.364240E+02  0.757E-03    4.38       0.0  T
   2    -36.4239567 -0.893490E-08  0.445E-03    4.38       4.7  T
   3    -36.4239567  0.509477E-08  0.611E-04    4.38      34.1  T
   4    -36.4239568 -0.893156E-08  0.188E-04    4.38     111.2  T
   5    -36.4239568 -0.906297E-10  0.895E-05    4.38     233.0  T

   *** convergence criteria satisfied after 5 iterations ***

         #    Occupation            Energy/Eh            Energy/eV
      -------------------------------------------------------------
         1        2.0000           -0.7404284             -20.1481
       ...           ...                  ...                  ...
        26        2.0000           -0.4629956             -12.5988
        27        2.0000           -0.4358799             -11.8609
        28        2.0000           -0.4305950             -11.7171
        29        2.0000           -0.4258332             -11.5875
        30        2.0000           -0.4141894             -11.2707
        31        2.0000           -0.4131540             -11.2425
        32        2.0000           -0.3968450             -10.7987 (HOMO)
        33                         -0.2358904              -6.4189 (LUMO)
        34                         -0.2321097              -6.3160
        35                         -0.2275837              -6.1929
        36                         -0.1038645              -2.8263
        37                          0.0061818               0.1682
       ...                                ...                  ...
        59                          0.6566421              17.8681
      -------------------------------------------------------------
                  HL-Gap            0.1609546 Eh            4.3798 eV
             Fermi-level           -0.3163677 Eh           -8.6088 eV

 SCC (total)                   0 d,  0 h,  0 min,  0.013 sec
 SCC setup                      ...        0 min,  0.000 sec (  1.493%)
 Dispersion                     ...        0 min,  0.000 sec (  1.060%)
 classical contributions        ...        0 min,  0.000 sec (  0.714%)
 integral evaluation            ...        0 min,  0.001 sec (  7.019%)
 iterations                     ...        0 min,  0.010 sec ( 71.489%)
 molecular gradient             ...        0 min,  0.002 sec ( 17.134%)
 printout                       ...        0 min,  0.000 sec (  0.954%)

         :::::::::::::::::::::::::::::::::::::::::::::::::::::
         ::                     SUMMARY                     ::
         :::::::::::::::::::::::::::::::::::::::::::::::::::::
         :: total energy             -35.921604216398 Eh    ::
         :: gradient norm              0.000269294254 Eh/a0 ::
         :: HOMO-LUMO gap              4.379798844558 eV    ::
         ::.................................................::
         :: SCC energy               -36.423888483337 Eh    ::
         :: -> isotropic ES            0.057765613298 Eh    ::
         :: -> anisotropic ES          0.002120269318 Eh    ::
         :: -> anisotropic XC          0.015842720538 Eh    ::
         :: -> dispersion             -0.019811943444 Eh    ::
         :: repulsion energy           0.502284266939 Eh    ::
         :: add. restraining           0.000000000000 Eh    ::
         :: total charge               0.000000000000 e     ::
         :::::::::::::::::::::::::::::::::::::::::::::::::::::


Property printout bound to 'properties.out'

           -------------------------------------------------
          | TOTAL ENERGY              -35.921604216398 Eh   |
          | GRADIENT NORM               0.000269294254 Eh/α |
          | HOMO-LUMO GAP               4.379798844558 eV   |
           -------------------------------------------------

------------------------------------------------------------------------
 * finished run on 2025/08/06 at 21:17:31.047     
------------------------------------------------------------------------
 total:
 * wall-time:     0 d,  0 h,  0 min,  0.020 sec
 *  cpu-time:     0 d,  0 h,  0 min,  0.039 sec
 * ratio c/w:     1.937 speedup
 SCF:
 * wall-time:     0 d,  0 h,  0 min,  0.013 sec
 *  cpu-time:     0 d,  0 h,  0 min,  0.030 sec
 * ratio c/w:     2.206 speedup


-------------------------   --------------------
FINAL SINGLE POINT ENERGY       -35.921604216400
-------------------------   --------------------


-------------
DIPOLE MOMENT
-------------
                                X             Y             Z
Total Dipole Moment    :     -1.59700      -0.34300       1.32900
                        -----------------------------------------
Magnitude (a.u.)       :      2.10578
Magnitude (Debye)      :      5.35246

                                *** OPTIMIZATION RUN DONE ***

		     ------------------------------
			                   _   
			                  | |  
			  __ _  ___   __ _| |_ 
			 / _` |/ _ \ / _` | __|
			| (_| | (_) | (_| | |_ 
			 \__, |\___/ \__,_|\__|
			 __/ |                
			|___/                 

		      A Global Optimizer Algorithm
		     ------------------------------

Global parameters
-----------------
  GOAT version                               ... default
  Minimum global steps                       ... 3
  Number of base workers                     ... 4
  Split workers by                           ... 2
  Final number of workers                    ... 8
  Number of available CPUs                   ... 9
  Parameter list (worker : temperature)      ...  0 : 2903.97,  1 : 1451.98, 
                                                  2 :  725.99,  3 :  363.00, 
                                                  4 : 2903.97,  5 : 1451.98, 
                                                  6 :  725.99,  7 :  363.00 
  GradComp (mean : sigma)                    ... 1.00 : 0.50
  Number of fragments                        ... 1
  Number of atoms                            ... 23
  Flexibility parameter                      ... 0.36
  Optimizations per global step              ... 160
  Optimizations per worker                   ... 20

Filtering criteria
------------------
  RMSD                                       ... 0.125 Angs (atom. pos.)
  EnDiff                                     ... 0.100 kcal/mol
  RotConst                                   ... 1.00-2.50 %
  Maximum Conf. Energy                       ... 6.000 kcal/mol

Thermodynamics
--------------
  Ensemble temperature                       ... 298.15 K
  Degeneracy of conformers                   ... 1
  *No rotamers will be included in Gconf

------------------------------------------------------------------------------
   Iter  MinTemp     MaxEn       GradComp    NOpt   NProcs    Output
------------------------------------------------------------------------------
List of participating nodes    ...  f.goat.0.hostnames

   1     1451.98     69.00    1.00 : 0.50      20        1    f.goat.0.1.out
   0     2903.97     69.00    1.00 : 0.50      20        1    f.goat.0.0.out
   5     1451.98     69.00    1.00 : 0.50      20        1    f.goat.0.5.out
   2      725.99     69.00    1.00 : 0.50      20        1    f.goat.0.2.out
   7      363.00     69.00    1.00 : 0.50      20        1    f.goat.0.7.out
   3      363.00     69.00    1.00 : 0.50      20        1    f.goat.0.3.out
   6      725.99     69.00    1.00 : 0.50      20        1    f.goat.0.6.out
   4     2903.97     69.00    1.00 : 0.50      20        1    f.goat.0.4.out

			     GOAT Global Iter 1
		Iter    Min En       Sconf       Gconf   
		        Hartree      cal/(molK)  kcal/mol
		=========================================

		   1    -35.925355   2.113       -0.240

List of participating nodes    ...  f.goat.1.hostnames

   1     1451.98     69.00    1.00 : 0.50      20        1    f.goat.1.1.out
   0     2903.97     69.00    1.00 : 0.50      20        1    f.goat.1.0.out
   6      725.99     69.00    1.00 : 0.50      20        1    f.goat.1.6.out
   2      725.99     69.00    1.00 : 0.50      20        1    f.goat.1.2.out
   7      363.00     69.00    1.00 : 0.50      20        1    f.goat.1.7.out
   3      363.00     69.00    1.00 : 0.50      20        1    f.goat.1.3.out
   5     1451.98     69.00    1.00 : 0.50      20        1    f.goat.1.5.out
   4     2903.97     69.00    1.00 : 0.50      20        1    f.goat.1.4.out

			     GOAT Global Iter 2
		Iter    Min En       Sconf       Gconf   
		        Hartree      cal/(molK)  kcal/mol
		=========================================

		   1    -35.925355   2.113       -0.240
		   2    -35.925356   3.764       -0.549

List of participating nodes    ...  f.goat.2.hostnames

   3      363.00     69.00    1.00 : 0.50      20        1    f.goat.2.3.out
   7      363.00     69.00    1.00 : 0.50      20        1    f.goat.2.7.out
   0     2903.97     69.00    1.00 : 0.50      20        1    f.goat.2.0.out
   4     2903.97     69.00    1.00 : 0.50      20        1    f.goat.2.4.out
   2      725.99     69.00    1.00 : 0.50      20        1    f.goat.2.2.out
   6      725.99     69.00    1.00 : 0.50      20        1    f.goat.2.6.out
   5     1451.98     69.00    1.00 : 0.50      20        1    f.goat.2.5.out
   1     1451.98     69.00    1.00 : 0.50      20        1    f.goat.2.1.out

			     GOAT Global Iter 3
		Iter    Min En       Sconf       Gconf   
		        Hartree      cal/(molK)  kcal/mol
		=========================================

		   1    -35.925355   2.113       -0.240
		   2    -35.925356   3.764       -0.549
		   3    -35.925356   3.957       -0.566

		Global minimum found!
		Writing structure to f.globalminimum.xyz

		# Final ensemble info #
		Conformer     Energy     Degen.   % total   % cumul.  
		              (kcal/mol)
		------------------------------------------------------
		        0     0.000	     1      38.47      38.47
		        1     0.360	     1      20.97      59.44
		        2     0.729	     1      11.23      70.67
		        3     1.171	     1       5.33      76.00
		        4     1.193	     1       5.13      81.14
		        5     1.238	     1       4.76      85.90
		        6     1.446	     1       3.35      89.25
		        7     1.712	     1       2.14      91.39
		        8     1.714	     1       2.13      93.52
		        9     1.922	     1       1.50      95.02
		       10     2.015	     1       1.28      96.31
		       11     2.295	     1       0.80      97.10
		       12     2.325	     1       0.76      97.86
		       13     2.354	     1       0.72      98.59
		       14     2.796	     1       0.34      98.93
		       15     2.833	     1       0.32      99.25
		       16     2.943	     1       0.27      99.52
		       17     3.111	     1       0.20      99.72
		       18     3.874	     1       0.06      99.78
		       19     4.071	     1       0.04      99.82
		       20     4.088	     1       0.04      99.86
		       21     4.165	     1       0.03      99.89
		       22     4.192	     1       0.03      99.92
		       23     4.356	     1       0.02      99.95
		       24     4.424	     1       0.02      99.97
		       25     4.483	     1       0.02      99.99
		       26     5.298	     1       0.01     100.00
		       27     5.501	     1       0.00     100.00

		Conformers below 3 kcal/mol: 17
		Lowest energy conformer    : -35.925356 Eh
		Sconf at 298.15 K          :  3.96 cal/(molK)
		Gconf at 298.15 K          : -0.57 kcal/mol

		Writing final ensemble to f.finalensemble.xyz

--------------------------------
SUGGESTED CITATIONS FOR THIS RUN
--------------------------------

Below you find a list of papers that are relevant to this ORCA run
We neither can nor want to force you to cite these papers, but we appreciate if you do
You receive ORCA, which is the product of decades of hard work by many enthusiastic individuals, for free
The only thing we kindly ask in return is that you cite our papers,
We deeply appreciate it, if you show your appreciation for ORCA by not just citing the generic ORCA reference.

Please note that relegating all ORCA citations to the supporting information does *not* help us.
SI sections are not indexed - citations you put there will not count into any citation statistics
But we need these citations in order to attract the funding resources that allow us to do what we are doing

Therefore, if you are a happy ORCA user, please consider citing a few of the papers listed below in the main body of your paper

In addition to the list printed below, the program has created the file f.bibtex that contains the list in bibtex format
You can import this file easily into all common literature databanks and citation aid programs


List of essential papers. We consider these as the minimum necessary citations

  1. Bannwarth, C.; Ehlert, S.; Grimme, S.
     GFN2-xTB—An Accurate and Broadly Parametrized Self-Consistent Tight-Binding Quantum Chemical Method with Multipole Electrostatics and Density-Dependent Dispersion Contributions
     J. Chem. Theory Comput. 2019 15(3), 1652-1671
     doi.org/10.1021/acs.jctc.8b01176
  2. Neese, F.
     Software update: the ORCA program system, version 6.0
     WIRES Comput. Molec. Sci. 2025 15(1), e70019
     doi.org/10.1002/wcms.7019
  3. de Souza, B.
     GOAT: A Global Optimization Algorithm for Molecules and Atomic Clusters
     Angewandte Chemie 2025 64(18), e202500393
     doi.org/10.1002/anie.202500393

List of papers to cite with high priority. The work reported in these papers was absolutely
necessary for this run to complete.
Our perspective: the developers of density functionals and basis sets usually get cited in chemistry papers
Good! But without the algorithms to do something with them, the functionals or basis sets would not do anything.
Hence, in our opinion, the algorithm design and method developments papers are equally worthy of getting cited

  1. Bannwarth, C.; Caldeweyher, E.; Ehlert, S.; Hansen, A.; Pracht, P.; Seibert, J.; Spicher, S.; Grimme, S.
     Extended tight-binding quantum chemistry methods
     WIRES Comput. Molec. Sci. 2020 11(2), e1493
     doi.org/10.1002/wcms.1493

List of suggested additional citations. These are papers that are important in the 'surrounding' of 
of this run, or papers that preceded the highly important papers. If you like your results we are grateful for a citation.

  1. Neese, F.
     The ORCA program system
     WIRES Comput. Molec. Sci. 2012 2(1), 73-78
     doi.org/10.1002/wcms.81
  2. Neese, F.
     Software update: the ORCA program system, version 4.0
     WIRES Comput. Molec. Sci. 2018 8(1), 1-6
     doi.org/10.1002/wcms.1327
  3. Neese, F.; Wennmohs, F.; Becker, U.; Riplinger, C.
     The ORCA quantum chemistry program package
     J. Chem. Phys. 2020 152(22), 224108
     doi.org/10.1063/5.0004608
  4. Neese, F.
     Software update: The ORCA program system—Version 5.0
     WIRES Comput. Molec. Sci. 2022 12(1), e1606
     doi.org/10.1002/wcms.1606

List of optional additional citations

  1. Neese, F.
     Approximate second-order SCF convergence for spin unrestricted wavefunctions
     Chem. Phys. Lett. 2000 325(1-3), 93-98
     doi.org/10.1016/s0009-2614(00)00662-x

Timings for individual modules:

Sum of individual times          ...      135.402 sec (=   2.257 min)
Geometry relaxation              ...        0.045 sec (=   0.001 min)   0.0 %
GOAT                             ...      134.891 sec (=   2.248 min)  99.6 %
XTB module                       ...        0.465 sec (=   0.008 min)   0.3 %
                             ****ORCA TERMINATED NORMALLY****
TOTAL RUN TIME: 0 days 0 hours 2 minutes 16 seconds 420 msec
