
                                 *****************
                                 * O   R   C   A *
                                 *****************

                                            #,                                       
                                            ###                                      
                                            ####                                     
                                            #####                                    
                                            ######                                   
                                           ########,                                 
                                     ,,################,,,,,                         
                               ,,#################################,,                 
                          ,,##########################################,,             
                       ,#########################################, ''#####,          
                    ,#############################################,,   '####,        
                  ,##################################################,,,,####,       
                ,###########''''           ''''###############################       
              ,#####''   ,,,,##########,,,,          '''####'''          '####       
            ,##' ,,,,###########################,,,                        '##       
           ' ,,###''''                  '''############,,,                           
         ,,##''                                '''############,,,,        ,,,,,,###''
      ,#''                                            '''#######################'''  
     '                                                          ''''####''''         
             ,#######,   #######,   ,#######,      ##                                
            ,#'     '#,  ##    ##  ,#'     '#,    #''#        ,####,    ,#,          
            ##       ##  ##   ,#'  ##            #'  '#       #'       ,# #          
            ##       ##  #######   ##           ,######,      #####,      #          
            '#,     ,#'  ##    ##  '#,     ,#' ,#      #,     #,   #      #          
             '#######'   ##     ##  '#######'  #'      '#     '####' #    #          



                #########################################################
                #                        -***-                          #
                #          Department of theory and spectroscopy        #
                #                                                       #
                #                      Frank Neese                      #
                #                                                       #
                #     Directorship, Architecture, Infrastructure        #
                #                    SHARK, DRIVERS                     #
                #        Core code/Algorithms in most modules           #
                #                                                       #
                #        Max Planck Institute fuer Kohlenforschung      #
                #                Kaiser Wilhelm Platz 1                 #
                #                 D-45470 Muelheim/Ruhr                 #
                #                      Germany                          #
                #                                                       #
                #                  All rights reserved                  #
                #                        -***-                          #
                #########################################################


                         Program Version 6.1.0  -  RELEASE   -
                                (GIT: $679e74b$)
                          ($2025-06-10 18:02:51 +0200$)


 With contributions from (in alphabetic order):
[Max-Planck-Institut fuer Kohlenforschung]                               
  Daniel Aravena         : Magnetic Suceptibility                        
  Michael Atanasov       : Ab Initio Ligand Field Theory (pilot matlab implementation)
  Alexander A. Auer      : GIAO ZORA, VPT2 properties, NMR spectrum      
  Ute Becker             : All parallelization in ORCA, NUMFREQ, NUMCALC 
  Giovanni Bistoni       : ED, misc. LED, open-shell LED, HFLD           
  Dmytro Bykov           : pre 5.0 version of the SCF Hessian            
  Marcos Casanova-Páez   : Triplet and SCS-CIS(D). UHF-(DLPNO)-IP/EA/STEOM-CCSD. UHF-CVS-IP/STEOM-CCSD   
  Vijay G. Chilkuri      : MRCI spin determinant printing, contributions to CSF-ICE 
  Pauline Colinet        : FMM embedding                                 
  Dipayan Datta          : RHF DLPNO-CCSD density                        
  Achintya Kumar Dutta   : EOM-CC, STEOM-CC                              
  Nicolas Foglia         : Exact transition moments, OPA infrastructure, MCD improvements    
  Dmitry Ganyushin       : Spin-Orbit,Spin-Spin,Magnetic field MRCI      
  Miquel Garcia-Rates    : C-PCM and meta-GGA Hessian, CCSD/C-PCM, Gaussian charge scheme 
  Tiago L. C. Gouveia    : GS-ROHF, GS-ROCIS                             
  Yang Guo               : DLPNO-NEVPT2, F12-NEVPT2, CIM, IAO-localization        
  Andreas Hansen         : Spin unrestricted coupled pair/coupled cluster methods 
  Ingolf Harden          : AUTO-CI MPn and infrastructure                
  Benjamin Helmich-Paris : MC-RPA, TRAH-(SCF,CASSCF), AVAS, COSX integrals, SCF dyn. polar., MC-PDFT, srDFT 
  Lee Huntington         : MR-EOM, pCC                                   
  Robert Izsak           : Overlap fitted RIJCOSX, COSX-SCS-MP3, EOM     
  Riya Kayal             : Wick's Theorem for AUTO-CI, AUTO-CI UHF-CCSDT 
  Emily Kempfer          : AUTO-CI RHF CISDT and CCSDT, approximate NEVPT4
  Christian Kollmar      : KDIIS, OOCD, Brueckner-CCSD(T), CCSD density, CASPT2, CASPT2-K, improved NEVPT2 
  Axel Koslowski         : Symmetry handling                             
  Simone Kossmann        : meta-GGA functionals, TD-DFT gradient, OOMP2, (MP2 Hessian; deprecated post 5.0) 
  Lucas Lang             : DCDCAS, Hyperfine gauge corrections, ICE-SOC+SSC
  Marvin Lechner         : AUTO-CI (C++ implementation), FIC-MRCC        
  Spencer Leger          : CASSCF response                               
  Dagmar Lenk            : GEPOL surface, SMD, ORCA-2-JSON               
  Dimitrios Liakos       : Extrapolation schemes; Compound Job, Property file
  Dimitrios Manganas     : Further ROCIS development; embedding schemes. LFT, Crystal Embedding 
  Dimitrios Pantazis     : SARC Basis sets                               
  Anastasios Papadopoulos: AUTO-CI, single reference methods and gradients 
  Taras Petrenko         : pre 6.0 DFT Hessian and TD-DFT gradient,  ECA, NRVS 
  Petra Pikulova         : Analytic Raman intensities                    
  Peter Pinski           : DLPNO-MP2, DLPNO-MP2 Gradient                 
  Shashank Vittal Rao    : ES-AILFT, MagRelax                            
  Christoph Reimann      : Effective Core Potentials                     
  Marius Retegan         : Local ZFS, SOC                                
  Christoph Riplinger    : Optimizer, TS searches, QM/MM, DLPNO-CCSD(T), (RO)-DLPNO pert. Triples 
  Michael Roemelt        : Original ROCIS implementation, recursive CI coupling coefficients
  Masaaki Saitow         : Open-shell DLPNO-CCSD energy and density      
  Barbara Sandhoefer     : DKH picture change effects                    
  Yorick L. A. Schmerwitz: GMF and freeze-and-release deltaSCF, NEB S-IDPP initial path                    
  Kantharuban Sivalingam : CASSCF convergence/infrastructure, NEVPT2, NEVPT3, NEVPT4(SD), FIC-MRCI and CEPA variants
  Bernardo de Souza      : ESD, SOC TD-DFT                               
  Georgi L. Stoychev     : AutoAux, RI-MP2 NMR, DLPNO-MP2 response, X2C  
  Van Anh Tran           : RI-MP2 g-tensors                              
  Willem Van den Heuvel  : Paramagnetic NMR                              
  Zikuan Wang            : NOTCH, Electric field optimization            
  Frank Wennmohs         : Technical directorship and infrastructure     
  Hang Xu                : AUTO-CI-Response properties                   
                                                                         
[FACCTs GmbH]                                                            
  Markus Bursch, Nicolas Foglia, Miquel Garcia-Rates, Ingolf Harden, Hagen Neugebauer, Anastasios Papadopoulos, 
  Christoph Riplinger, Bernardo de Souza, Georgi L. Stoychev                                                    
                                                                 
  APM, various basis sets, CI-OPT, improved COSX, DLPNO-Multilevel,           
  DOCKER, DRACO, updates on ESD, Fragmentator, GOAT, IRC, LR-CPCM, L-BFGS, MBIS, meta-GGA TD-DFT gradient, ML-optimized integration grids, 
  MM, NACMEs, nearIR, NEB, NEB-TS, NL-DFT gradient (VV10), 2- and 3-layer-ONIOM, interface openCOSMO-RS, QMMM,   
  Crystal-QMMM, RESP, rigid body optimization, SF, symmetry and pop. for TD-DFT, various functionals, SOLVATOR                                   
                                                                         
[Other institutions]                                                     
  V. Asgeirsson          : NEB                                           
  Christoph Bannwarth    : sTDA-DFT, sTD-DFT, PBEh-3c, B97-3c, D3        
  Giovanni Bistoni       : ETS/NOCV, ADLD/ADEX, COVALED                  
  Martin Brehm           : Molecular dynamics                            
  Ronald Cardenas        : ETS/NOCV                                      
  Martina Colucci        : COVALED                                       
  Sebastian Ehlert       : rSCAN, r2SCAN, r2SCAN-3c, D4, dhf basis sets  
  Marvin Friede          : D4 for Fr, Ra, Ac-Lr                          
  Lars Goerigk           : TD-DFT with DH, B97 family of functionals     
  Stefan Grimme          : VdW corrections, initial TS optimization, DFT functionals, gCP, sTDA/sTD-DF 
  Waldemar Hujo          : DFT-NL                                        
  H. Jonsson             : NEB                                           
  Holger Kruse           : gCP                                           
  Marcel Mueller         : wB97X-3c, vDZP basis set                      
  Hagen Neugebauer       : wr2SCAN, Native XTB                           
  Gianluca Regni         : ADLD/ADEX                                     
  Tobias Risthaus        : pre 6.0 range-separated hybrid DFT and stability analysis
  Lukas Wittmann         : regularized MP2, r2SCAN double-hybrids, wr2SCAN        
                                                                         
We gratefully acknowledge several colleagues who have allowed us to      
interface, adapt or use parts of their codes:                            
  Ed Valeev, F. Pavosevic, A. Kumar             : LibInt (2-el integral package), F12 methods 
  Garnet Chan, S. Sharma, J. Yang, R. Olivares  : DMRG                   
  Ulf Ekstrom                                   : XCFun DFT Library      
  Mihaly Kallay                                 : mrcc  (arbitrary order and MRCC methods)
  Frank Weinhold                                : gennbo (NPA and NBO analysis)           
  Simon Mueller                                 : openCOSMO-RS                            
  Christopher J. Cramer and Donald G. Truhlar   : smd solvation model                     
  S Lehtola, MJT Oliveira, MAL Marques          : LibXC Library                           
  Liviu Ungur et al                             : ANISO software                          


 Your calculation uses the libint2 library for the computation of 2-el integrals
 For citations please refer to: http://libint.valeyev.net

 Your ORCA version has been built with support for libXC version: 7.0.0
 For citations please refer to: https://libxc.gitlab.io

 This ORCA versions uses:
   CBLAS   interface :  Fast vector & matrix operations
   LAPACKE interface :  Fast linear algebra routines
   SCALAPACK package :  Parallel linear algebra routines
   Shared memory     :  Shared parallel matrices
   BLAS/LAPACK       :  OpenBLAS 0.3.29  USE64BITINT DYNAMIC_ARCH NO_AFFINITY Haswell SINGLE_THREADED
        Core in use  :  Haswell
   Copyright (c) 2011-2014, The OpenBLAS Project


  ***********************************
  * Starting time: Sun Aug 31 11:11:17 2025
  * Host name:     chemlab03
  * Process ID:    90038
  * Working dir.:  /home/vivek/mm-project/vivek/xtb-goat/MP2-opt/l/1
  ***********************************



***************************************
The coordinates will be read from file: /home/vivek/mm-project/vivek/xtb-goat/xtb-goat/l/L_CONF/1.xyz
***************************************


================================================================================

----- Orbital basis set information -----
Your calculation utilizes the basis: 6-31G**
   H-He, Li-Ne : W. J. Hehre, R. Ditchfield and J.A. Pople, J. Chem. Phys. 56, 2257 (1972).
                 Note: He and Ne are unpublished basis sets taken from the Gaussian program.
                 Note: Li and B from J. D. Dill and J. A. Pople, J. Chem. Phys. 62, 2921 (1975).
   Na - Ar     : M. M. Francl, W. J. Pietro, W. J. Hehre, J. S. Binkley, M. S. Gordon, 
                 D. J. DeFrees and J. A. Pople, J. Chem. Phys. 77, 3654 (1982).
   K - Zn      : V. A. Rassolov, J. A. Pople, M. A. Ratner, and T. L. Windus, J. Chem. Phys. 109, 1223 (1998).

================================================================================
                                        WARNINGS
                       Please study these warnings very carefully!
================================================================================

WARNING: Old DensityContainer found on disk!
         Will remove this file - 
         If you want to keep old densities, please start your calculation with a different basename. 


WARNING: The frozen-core approximation for MP2-gradient calculations is turned on by default.

WARNING: Geometry Optimization
  ===> : Switching off AutoStart
         For restart on a previous wavefunction, please use MOREAD

WARNING: Post HF methods need fully converged wavefunctions
  ===> : Setting SCFConvForced true
         You can overwrite this default with %scf ConvForced false 


================================================================================
                                       INPUT FILE
================================================================================
NAME = 1.inp
|  1> ! MP2 6-31G** opt
|  2> 
|  3> * xyzfile 0 1 /home/vivek/mm-project/vivek/xtb-goat/xtb-goat/l/L_CONF/1.xyz
|  4> 
|  5>                          ****END OF INPUT****
================================================================================

                       *****************************
                       * Geometry Optimization Run *
                       *****************************

Geometry optimization settings:
Update method            Update   .... BFGS
Choice of coordinates    CoordSys .... (2022) Redundant Internals
Initial Hessian          InHess   .... Almloef's Model
Max. no of cycles        MaxIter  .... 66

Convergence Tolerances:
Energy Change            TolE     ....  5.0000e-06 Eh
Max. Gradient            TolMAXG  ....  3.0000e-04 Eh/bohr
RMS Gradient             TolRMSG  ....  1.0000e-04 Eh/bohr
Max. Displacement        TolMAXD  ....  4.0000e-03 bohr
RMS Displacement         TolRMSD  ....  2.0000e-03 bohr
Strict Convergence                .... False

------------------------------------------------------------------------------
                        ORCA OPTIMIZATION COORDINATE SETUP
------------------------------------------------------------------------------

The optimization will be done in redundant internal coordinates (2022)
Making redundant internal coordinates   ...  (2022 redundants) done
Evaluating the initial hessian          ...  (Almloef) done
Evaluating the coordinates              ...  done
Calculating the B-matrix                .... done
Calculating the G-matrix                .... done
The number of degrees of freedom        ....   94

    -----------------------------------------------------------------
                    Redundant Internal Coordinates


    -----------------------------------------------------------------
         Definition                    Initial Value    Approx d2E/dq
    -----------------------------------------------------------------
      1. B(C   1,C   0)                  1.5256         0.379650   
      2. B(C   4,C   0)                  1.5388         0.361693   
      3. B(H   5,C   0)                  1.0964         0.351791   
      4. B(N   7,H   3)                  1.0149         0.424973   
      5. B(N   7,C   0)                  1.4491         0.450366   
      6. B(N   7,H   2)                  1.0159         0.423479   
      7. B(C   8,C   4)                  1.5333         0.369140   
      8. B(H   9,C   4)                  1.0922         0.357197   
      9. B(H  10,C   4)                  1.0919         0.357585   
     10. B(C  11,C   8)                  1.5252         0.380204   
     11. B(H  12,C  11)                  1.0854         0.366303   
     12. B(C  13,C   8)                  1.5283         0.375901   
     13. B(C  13,H   6)                  1.0874         0.363601   
     14. B(H  14,C  11)                  1.0879         0.362867   
     15. B(H  15,C  11)                  1.0876         0.363286   
     16. B(H  16,C   8)                  1.0953         0.353181   
     17. B(H  17,C  13)                  1.0880         0.362733   
     18. B(H  18,C  13)                  1.0879         0.362940   
     19. B(O  19,C   1)                  1.3379         0.677738   
     20. B(H  20,O  19)                  0.9708         0.499685   
     21. B(O  21,C   1)                  1.2031         1.111726   
     22. A(C   4,C   0,N   7)          111.8768         0.370785   
     23. A(C   1,C   0,H   5)          107.6082         0.323935   
     24. A(H   5,C   0,N   7)          108.5626         0.331186   
     25. A(C   4,C   0,H   5)          108.7470         0.321373   
     26. A(C   1,C   0,N   7)          111.6346         0.373892   
     27. A(C   1,C   0,C   4)          108.2856         0.362348   
     28. A(C   0,C   1,O  21)          124.3591         0.438545   
     29. A(C   0,C   1,O  19)          112.9189         0.401503   
     30. A(O  19,C   1,O  21)          122.7219         0.484256   
     31. A(H   9,C   4,H  10)          108.2630         0.290151   
     32. A(C   0,C   4,H  10)          107.6032         0.322233   
     33. A(C   8,C   4,H   9)          109.4669         0.323254   
     34. A(C   0,C   4,H   9)          108.7898         0.322176   
     35. A(C   0,C   4,C   8)          113.9620         0.360616   
     36. A(C   8,C   4,H  10)          108.6014         0.323312   
     37. A(C   0,N   7,H   2)          109.3243         0.338626   
     38. A(H   2,N   7,H   3)          106.8811         0.301345   
     39. A(C   0,N   7,H   3)          110.0801         0.338825   
     40. A(C  13,C   8,H  16)          108.4137         0.323617   
     41. A(C   4,C   8,H  16)          108.2397         0.322655   
     42. A(C  11,C   8,H  16)          108.6758         0.324222   
     43. A(C  11,C   8,C  13)          110.1722         0.364833   
     44. A(C   4,C   8,C  13)          109.5286         0.362995   
     45. A(C   4,C   8,C  11)          111.7280         0.363702   
     46. A(H  14,C  11,H  15)          108.3337         0.291593   
     47. A(H  12,C  11,H  15)          109.1971         0.292026   
     48. A(C   8,C  11,H  15)          110.2989         0.325729   
     49. A(H  12,C  11,H  14)          108.6026         0.291972   
     50. A(C   8,C  11,H  14)          110.1980         0.325667   
     51. A(C   8,C  11,H  12)          110.1649         0.326173   
     52. A(H   6,C  13,H  18)          108.3219         0.291642   
     53. A(C   8,C  13,H  17)          110.3738         0.325039   
     54. A(H   6,C  13,H  17)          108.2906         0.291616   
     55. A(H   6,C  13,C   8)          110.3347         0.325166   
     56. A(H  17,C  13,H  18)          108.4259         0.291532   
     57. A(C   8,C  13,H  18)          111.0125         0.325069   
     58. A(C   1,O  19,H  20)          110.4691         0.373269   
     59. D(O  19,C   1,C   0,H   5)     48.7185         0.010757   
     60. D(O  21,C   1,C   0,H   5)   -131.1864         0.010757   
     61. D(O  21,C   1,C   0,C   4)    111.4268         0.010757   
     62. D(O  19,C   1,C   0,N   7)    167.7428         0.010757   
     63. D(O  19,C   1,C   0,C   4)    -68.6683         0.010757   
     64. D(C   8,C   4,C   0,C   1)    164.5810         0.010489   
     65. D(C   8,C   4,C   0,H   5)     47.9275         0.010489   
     66. D(H   9,C   4,C   0,H   5)    170.3685         0.010489   
     67. D(H   9,C   4,C   0,N   7)     50.4650         0.010489   
     68. D(C   8,C   4,C   0,N   7)    -71.9760         0.010489   
     69. D(H   9,C   4,C   0,C   1)    -72.9780         0.010489   
     70. D(H   2,N   7,C   0,H   5)    176.5102         0.017303   
     71. D(H   2,N   7,C   0,C   4)    -63.4782         0.017303   
     72. D(H   3,N   7,C   0,C   1)    -59.0640         0.017303   
     73. D(H   2,N   7,C   0,C   1)     58.0543         0.017303   
     74. D(H   3,N   7,C   0,C   4)    179.4035         0.017303   
     75. D(C  13,C   8,C   4,H  10)    -45.1128         0.010896   
     76. D(C  13,C   8,C   4,H   9)     72.8997         0.010896   
     77. D(C  13,C   8,C   4,C   0)   -165.0314         0.010896   
     78. D(C  11,C   8,C   4,H  10)   -167.4716         0.010896   
     79. D(C  11,C   8,C   4,H   9)    -49.4591         0.010896   
     80. D(C  11,C   8,C   4,C   0)     72.6098         0.010896   
     81. D(H  14,C  11,C   8,H  16)   -176.5698         0.011520   
     82. D(H  14,C  11,C   8,C  13)    -57.9236         0.011520   
     83. D(H  14,C  11,C   8,C   4)     64.0659         0.011520   
     84. D(H  12,C  11,C   8,H  16)     63.6153         0.011520   
     85. D(H  12,C  11,C   8,C  13)   -177.7385         0.011520   
     86. D(H  12,C  11,C   8,C   4)    -55.7490         0.011520   
     87. D(H   6,C  13,C   8,H  16)     62.3747         0.011275   
     88. D(H   6,C  13,C   8,C  11)    -56.4320         0.011275   
     89. D(H   6,C  13,C   8,C   4)   -179.7144         0.011275   
     90. D(H  17,C  13,C   8,H  16)   -177.9779         0.011275   
     91. D(H  17,C  13,C   8,C  11)     63.2155         0.011275   
     92. D(H  17,C  13,C   8,C   4)    -60.0669         0.011275   
     93. D(H  20,O  19,C   1,O  21)     -0.7718         0.034191   
     94. D(H  20,O  19,C   1,C   0)    179.3215         0.034191   
    -----------------------------------------------------------------

Number of atoms                         .... 22
Number of degrees of freedom            .... 94


         *************************************************************
         *                GEOMETRY OPTIMIZATION CYCLE   1            *
         *************************************************************
---------------------------------
CARTESIAN COORDINATES (ANGSTROEM)
---------------------------------
  C     -9.276162    6.455258   -2.085801
  C     -8.358719    7.401386   -1.317282
  H     -7.916551    5.998543   -3.517258
  H     -8.892349    7.241160   -3.922893
  C     -9.278908    5.095010   -1.366343
  H    -10.288717    6.874217   -2.051192
  H    -11.366229    2.359547   -1.074909
  N     -8.875226    6.331650   -3.472847
  C    -10.423128    4.167568   -1.792337
  H     -8.322407    4.599614   -1.546885
  H     -9.367459    5.288117   -0.295301
  C    -10.202281    3.604830   -3.192631
  H    -10.064884    4.413443   -3.903443
  C    -10.560710    3.028816   -0.782363
  H     -9.315817    2.974362   -3.208583
  H    -11.055707    3.002890   -3.496294
  H    -11.352834    4.746602   -1.789653
  H     -9.639024    2.452750   -0.733142
  H    -10.779428    3.413225    0.211536
  O     -8.845998    7.740016   -0.118216
  H     -8.230798    8.332531    0.343255
  O     -7.305858    7.811274   -1.730828

----------------------------
CARTESIAN COORDINATES (A.U.)
----------------------------
  NO LB      ZA    FRAG     MASS         X           Y           Z
   0 C     6.0000    0    12.011  -17.529406   12.198670   -3.941593
   1 C     6.0000    0    12.011  -15.795690   13.986593   -2.489301
   2 H     1.0000    0     1.008  -14.960114   11.335603   -6.646654
   3 H     1.0000    0     1.008  -16.804104   13.683809   -7.413194
   4 C     6.0000    0    12.011  -17.534596    9.628174   -2.582015
   5 H     1.0000    0     1.008  -19.442858   12.990388   -3.876192
   6 H     1.0000    0     1.008  -21.479060    4.458897   -2.031283
   7 N     7.0000    0    14.007  -16.771746   11.965085   -6.562730
   8 C     6.0000    0    12.011  -19.696857    7.875562   -3.387027
   9 H     1.0000    0     1.008  -15.727070    8.692011   -2.923189
  10 H     1.0000    0     1.008  -17.701932    9.993092   -0.558038
  11 C     6.0000    0    12.011  -19.279516    6.812141   -6.033199
  12 H     1.0000    0     1.008  -19.019874    8.340199   -7.376438
  13 C     6.0000    0    12.011  -19.956849    5.723633   -1.478451
  14 H     1.0000    0     1.008  -17.604342    5.620729   -6.063343
  15 H     1.0000    0     1.008  -20.892258    5.674640   -6.607039
  16 H     1.0000    0     1.008  -21.453746    8.969779   -3.381954
  17 H     1.0000    0     1.008  -18.215115    4.635025   -1.385438
  18 H     1.0000    0     1.008  -20.370166    6.450060    0.399745
  19 O     8.0000    0    15.999  -16.716514   14.626511   -0.223396
  20 H     1.0000    0     1.008  -15.553953   15.746201    0.648658
  21 O     8.0000    0    15.999  -13.806070   14.761169   -3.270791

--------------------------------
INTERNAL COORDINATES (ANGSTROEM)
--------------------------------
 C      0   0   0     0.000000000000     0.00000000     0.00000000
 C      1   0   0     1.525608873780     0.00000000     0.00000000
 H      1   2   0     2.026375919471    95.28676824     0.00000000
 H      3   1   2     1.631201512080    66.58424188   266.91375590
 C      1   2   3     1.538798757201   108.28562696    99.81390165
 H      1   2   3     1.096354243234   107.60822267   217.20067940
 H      5   1   2     3.453201443828   137.79745554   155.37585207
 N      4   3   1     1.014910130664    36.57949822   320.02524691
 C      5   1   2     1.533251121041   113.96196996   164.58099080
 H      5   1   2     1.092203038646   108.78979886   287.02204414
 H      5   1   2     1.091907880954   107.60322909    44.10175873
 C      9   5   1     1.525211683025   111.72798714    72.60982259
 H     12   9   5     1.085350829592   110.16489530   304.25098122
 C      7   5   1     1.087366186153    24.12676102   200.93837707
 H     12   9   5     1.087916550889   110.19795722    64.06591976
 H     12   9   5     1.087602430347   110.29888407   183.63241606
 H      9   5   1     1.095281132942   108.23970670   312.98818010
 H     14   7   5     1.088016551246   108.29061173   239.39286263
 H     14   7   5     1.087861257228   108.32190684   121.99741373
 O      2   1   3     1.337859802549   112.91891135   191.51779534
 H     20   2   1     0.970824626748   110.46911055   179.32154722
 O      2   1   3     1.203140461507   124.35911345    11.61288684

---------------------------
INTERNAL COORDINATES (A.U.)
---------------------------
 C      0   0   0     0.000000000000     0.00000000     0.00000000
 C      1   0   0     2.882982958925     0.00000000     0.00000000
 H      1   2   0     3.829295532174    95.28676824     0.00000000
 H      3   1   2     3.082524127069    66.58424188   266.91375590
 C      1   2   3     2.907908226328   108.28562696    99.81390165
 H      1   2   3     2.071809265475   107.60822267   217.20067940
 H      5   1   2     6.525605014096   137.79745554   155.37585207
 N      4   3   1     1.917902197497    36.57949822   320.02524691
 C      5   1   2     2.897424713296   113.96196996   164.58099080
 H      5   1   2     2.063964625677   108.78979886   287.02204414
 H      5   1   2     2.063406858473   107.60322909    44.10175873
 C      9   5   1     2.882232377175   111.72798714    72.60982259
 H     12   9   5     2.051015827153   110.16489530   304.25098122
 C      7   5   1     2.054824299116    24.12676102   200.93837707
 H     12   9   5     2.055864337740   110.19795722    64.06591976
 H     12   9   5     2.055270735943   110.29888407   183.63241606
 H      9   5   1     2.069781380912   108.23970670   312.98818010
 H     14   7   5     2.056053311029   108.29061173   239.39286263
 H     14   7   5     2.055759847865   108.32190684   121.99741373
 O      2   1   3     2.528188632400   112.91891135   191.51779534
 H     20   2   1     1.834592668620   110.46911055   179.32154722
 O      2   1   3     2.273605972888   124.35911345    11.61288684

---------------------
BASIS SET INFORMATION
---------------------
There are 4 groups of distinct atoms

 Group   1 Type C   : 10s4p1d contracted to 3s2p1d pattern {631/31/1}
 Group   2 Type H   : 4s1p contracted to 2s1p pattern {31/1}
 Group   3 Type N   : 10s4p1d contracted to 3s2p1d pattern {631/31/1}
 Group   4 Type O   : 10s4p1d contracted to 3s2p1d pattern {631/31/1}

Atom   0C    basis set group =>   1
Atom   1C    basis set group =>   1
Atom   2H    basis set group =>   2
Atom   3H    basis set group =>   2
Atom   4C    basis set group =>   1
Atom   5H    basis set group =>   2
Atom   6H    basis set group =>   2
Atom   7N    basis set group =>   3
Atom   8C    basis set group =>   1
Atom   9H    basis set group =>   2
Atom  10H    basis set group =>   2
Atom  11C    basis set group =>   1
Atom  12H    basis set group =>   2
Atom  13C    basis set group =>   1
Atom  14H    basis set group =>   2
Atom  15H    basis set group =>   2
Atom  16H    basis set group =>   2
Atom  17H    basis set group =>   2
Atom  18H    basis set group =>   2
Atom  19O    basis set group =>   4
Atom  20H    basis set group =>   2
Atom  21O    basis set group =>   4
------------------------------------------------------------------------------
                             ORCA STARTUP CALCULATIONS
------------------------------------------------------------------------------
------------------------------------------------------------------------------
                   ___                                                        
                  /   \      - P O W E R E D   B Y -                         
                 /     \                                                     
                 |  |  |   _    _      __       _____    __    __             
                 |  |  |  | |  | |    /  \     |  _  \  |  |  /  |          
                  \  \/   | |  | |   /    \    | | | |  |  | /  /          
                 / \  \   | |__| |  /  /\  \   | |_| |  |  |/  /          
                |  |  |   |  __  | /  /__\  \  |    /   |      \           
                |  |  |   | |  | | |   __   |  |    \   |  |\   \          
                \     /   | |  | | |  |  |  |  | |\  \  |  | \   \       
                 \___/    |_|  |_| |__|  |__|  |_| \__\ |__|  \__/        
                                                                              
                      - O R C A' S   B I G   F R I E N D -                    
                                      &                                       
                       - I N T E G R A L  F E E D E R -                       
                                                                              
 v1 FN, 2020, v2 2021, v3 2022-2024                                           
------------------------------------------------------------------------------


----------------------
SHARK INTEGRAL PACKAGE
----------------------

Number of atoms                             ...     22
Number of basis functions                   ...    191
Number of shells                            ...     93
Maximum angular momentum                    ...      2
Integral batch strategy                     ... SHARK/LIBINT Hybrid
RI-J (if used) integral strategy            ... SPLIT-RIJ (Revised 2003 algorithm where possible)
Printlevel                                  ...      1
Contraction scheme used                     ... SEGMENTED contraction
Prescreening option                         ... SCHWARTZ
   Thresh                                   ... 2.500e-11
   Tcut                                     ... 2.500e-12
   Tpresel                                  ... 2.500e-12 
Coulomb Range Separation                    ... NOT USED
Exchange Range Separation                   ... NOT USED
Multipole approximations                    ... NOT USED
Finite Nucleus Model                        ... NOT USED
CABS basis                                  ... NOT available
Auxiliary Coulomb fitting basis             ... NOT available
Auxiliary J/K fitting basis                 ... NOT available
Auxiliary Correlation fitting basis         ... NOT available
Auxiliary 'external' fitting basis          ... NOT available

Checking pre-screening integrals            ... done (  0.0 sec) Dimension = 93
   => SHARK Basis and OBASIS are compatible. Storing Pre-screening
Shell pair information
Shell pair cut-off parameter TPreSel        ...   2.5e-12
Total number of shell pairs                 ...      4371
Shell pairs after pre-screening             ...      3888
Total number of primitive shell pairs       ...     20328
Primitive shell pairs kept                  ...     12136
          la=0 lb=0:   1292 shell pairs
          la=1 lb=0:   1459 shell pairs
          la=1 lb=1:    432 shell pairs
          la=2 lb=0:    421 shell pairs
          la=2 lb=1:    244 shell pairs
          la=2 lb=2:     40 shell pairs

Checking whether 4 symmetric matrices of dimension 191 fit in memory
:Max Core in MB      =   4096.00
 MB in use           =      6.40
 MB left             =   4089.60
 MB needed           =      0.56
 Data fit in memory  = YES
Calculating Nuclear repulsion               ... done (  0.0 sec) ENN=    482.765383124241 Eh

Diagonalization of the overlap matrix:
Smallest eigenvalue                        ... 2.830e-03
Time for diagonalization                   ...    0.002 sec
Threshold for overlap eigenvalues          ... 1.000e-07
Number of eigenvalues below threshold      ... 0
Time for construction of square roots      ...    0.001 sec
Total time needed                          ...    0.003 sec

-------------------
DFT GRID GENERATION
-------------------

General Integration Accuracy     IntAcc      ... 4.388
Radial Grid Type                 RadialGrid  ... OptM3 with GC (2021)
Angular Grid (max. ang.)         AngularGrid ... 4 (Lebedev-302)
Angular grid pruning method      GridPruning ... 4 (adaptive)
Weight generation scheme         WeightScheme... mBecke (2022)
Basis function cutoff            BFCut       ... 1.0000e-11
Integration weight cutoff        WCut        ... 1.0000e-14
Partially contracted basis set               ... off
Rotationally invariant grid construction     ... off
Angular grids for H and He will be reduced by one unit

Total number of grid points                  ...    95615
Total number of batches                      ...     1506
Average number of points per batch           ...       63
Average number of grid points per atom       ...     4346
Grids setup in   0.4 sec
Initializing property integral containers    ... done (  0.0 sec)

SHARK setup successfully completed in   0.4 seconds

Maximum memory used throughout the entire STARTUP-calculation: 38.4 MB
-------------------------------------------------------------------------------
                                 ORCA GUESS
                   Start orbitals & Density for SCF / CASSCF
-------------------------------------------------------------------------------

------------
SCF SETTINGS
------------
Hamiltonian:
 Ab initio Hamiltonian  Method          .... Hartree-Fock(GTOs)


General Settings:
 Integral files         IntName         .... 1
 Hartree-Fock type      HFTyp           .... RHF
 Total Charge           Charge          ....    0
 Multiplicity           Mult            ....    1
 Number of Electrons    NEL             ....   72
 Basis Dimension        Dim             ....  191
 Nuclear Repulsion      ENuc            ....    482.7653831242 Eh

Convergence Acceleration:
 AO-DIIS                CNVDIIS         .... on
   Start iteration      DIISMaxIt       ....    12
   Startup error        DIISStart       ....  0.200000
   # of expansion vecs  DIISMaxEq       ....     5
   Bias factor          DIISBfac        ....   1.050
   Max. coefficient     DIISMaxC        ....  10.000
 MO-DIIS                CNVKDIIS        .... off
 Trust-Rad. Augm. Hess. CNVTRAH         .... auto
   Auto Start mean grad. ratio tolernc. ....  1.125000
   Auto Start start iteration           ....    50
   Auto Start num. interpolation iter.  ....    10
   Max. Number of Micro iterations      ....    24
   Max. Number of Macro iterations      .... Maxiter - #DIIS iter
   Number of Davidson start vectors     ....     2
   Converg. threshold    (grad. norm)   ....   1.000e-05
   Grad. Scal. Fac. for Micro threshold ....   0.100
   Minimum threshold for Micro iter.    ....   1.000e-02
   NR start threshold (gradient norm)   ....   1.000e-04
   Initial trust radius                 ....   0.400
   Minimum AH scaling param. (alpha)    ....   1.000
   Maximum AH scaling param. (alpha)    .... 1000.000
   Quad. conv. algorithm                .... NR
   White noise on init. David. guess    .... on
   Maximum white noise                  ....   0.010
   Pseudo random numbers                .... off
   Inactive MOs                         .... canonical
   Orbital update algorithm             .... Taylor
   Preconditioner                       .... Diag
   Full preconditioner red. dimension   ....   250
 SOSCF                 CNVSOSCF           .... on
   Start iteration     SOSCFMaxIt         ....   150
   Startup grad/error  SOSCFStart         ....  0.003300
   Hessian update      SOSCFHessUp        .... L-BFGS
   Autom. constraints  SOSCFAutoConstrain .... off
 Level Shifting         CNVShift        .... on
   Level shift para.    LevelShift      ....    0.2500
   Turn off err/grad.   ShiftErr        ....    0.0010
 Zerner damping         CNVZerner       .... off
 Static damping         CNVDamp         .... on
   Fraction old density DampFac         ....    0.7000
   Max. Damping (<1)    DampMax         ....    0.9800
   Min. Damping (>=0)   DampMin         ....    0.0000
   Turn off err/grad.   DampErr         ....    0.1000

SCF Procedure:
 Maximum # iterations   MaxIter         ....   125
 SCF integral mode      SCFMode         .... Direct
   Integral package                     .... SHARK and LIBINT hybrid scheme
 Reset frequency        DirectResetFreq ....    20
 Integral Threshold     Thresh          ....  2.500e-11 Eh
 Primitive CutOff       TCut            ....  2.500e-12 Eh

Convergence Tolerance:
 Convergence Check Mode ConvCheckMode   .... Total+1el-Energy
 Convergence forced     ConvForced      .... 1
 Energy Change          TolE            ....  1.000e-08 Eh
 1-El. energy change                    ....  1.000e-05 Eh
 Orbital Gradient       TolG            ....  1.000e-05
 Orbital Rotation angle TolX            ....  1.000e-05
 DIIS Error             TolErr          ....  5.000e-07

------------------------------
INITIAL GUESS: MODEL POTENTIAL
------------------------------
Loading Hartree-Fock densities                     ... done
Calculating cut-offs                               ... done
Initializing the effective Hamiltonian             ... done
Setting up the integral package (SHARK)            ... done
Starting the Coulomb interaction                   ... done (   0.1 sec)
Making the grid                                    ... done (   0.1 sec)
Mapping shells                                     ... done
Starting the XC term evaluation                    ... done (   0.0 sec)
Transforming the Hamiltonian                       ... done (   0.0 sec)
Diagonalizing the Hamiltonian                      ... done (   0.0 sec)
Back transforming the eigenvectors                 ... done (   0.0 sec)
Now organizing SCF variables                       ... done
                      ------------------
                      INITIAL GUESS DONE (   0.2 sec)
                      ------------------
             **** ENERGY FILE WAS UPDATED (1.en.tmp) ****
Finished Guess after   0.3 sec
Maximum memory used throughout the entire GUESS-calculation: 11.6 MB

-------------------------------------------------------------------------------------------
                                      ORCA LEAN-SCF
                              memory conserving SCF solver
-------------------------------------------------------------------------------------------

----------------------------------------D-I-I-S--------------------------------------------
Iteration    Energy (Eh)           Delta-E    RMSDP     MaxDP     DIISErr   Damp  Time(sec)
-------------------------------------------------------------------------------------------
               ***  Starting incremental Fock matrix formation  ***
    1    -438.5343391062476144     0.00e+00  2.50e-03  6.25e-02  2.45e-01  0.700   2.0
    2    -438.7000448662269605    -1.66e-01  1.90e-03  4.49e-02  1.51e-01  0.700   1.9
                               ***Turning on AO-DIIS***
    3    -438.7969645921620554    -9.69e-02  1.02e-03  2.34e-02  8.43e-02  0.700   1.8
    4    -438.8577542621530370    -6.08e-02  2.31e-03  4.93e-02  5.83e-02  0.000   1.8
    5    -438.9919587959857949    -1.34e-01  2.73e-04  4.78e-03  4.42e-03  0.000   1.8
                              *** Initializing SOSCF ***
---------------------------------------S-O-S-C-F--------------------------------------
Iteration    Energy (Eh)           Delta-E    RMSDP     MaxDP     MaxGrad    Time(sec)
--------------------------------------------------------------------------------------
    6    -438.9924665881013084    -5.08e-04  1.34e-04  2.80e-03  2.96e-03     1.7
               *** Restarting incremental Fock matrix formation ***
    7    -438.9925775020598735    -1.11e-04  7.72e-05  2.16e-03  1.44e-03     2.0
    8    -438.9926082974934047    -3.08e-05  7.60e-05  1.77e-03  3.77e-04     1.6
    9    -438.9926190303431781    -1.07e-05  1.32e-05  2.66e-04  1.64e-04     1.6
   10    -438.9926197627443685    -7.32e-07  7.56e-06  1.47e-04  4.88e-05     1.4
   11    -438.9926198963666479    -1.34e-07  1.72e-06  4.48e-05  1.72e-05     1.4
   12    -438.9926199090181740    -1.27e-08  4.69e-07  1.43e-05  4.20e-06     1.2
   13    -438.9926199121428567    -3.12e-09  1.59e-07  3.17e-06  1.17e-06     1.1
                 **** Energy Check signals convergence ****

               *****************************************************
               *                     SUCCESS                       *
               *           SCF CONVERGED AFTER  13 CYCLES          *
               *****************************************************

             **** ENERGY FILE WAS UPDATED (1.en.tmp) ****

----------------
TOTAL SCF ENERGY
----------------

Total Energy       :       -438.99261991448446 Eh          -11945.59649 eV

Components:
Nuclear Repulsion  :        482.76538312424071 Eh           13136.71393 eV
Electronic Energy  :       -921.75800303872518 Eh          -25082.31042 eV
One Electron Energy:      -1556.19673381153484 Eh          -42346.26597 eV
Two Electron Energy:        634.43873077280966 Eh           17263.95555 eV

Virial components:
Potential Energy   :       -877.62745855013213 Eh          -23881.45726 eV
Kinetic Energy     :        438.63483863564761 Eh           11935.86077 eV
Virial Ratio       :          2.00081567000002

---------------
SCF CONVERGENCE
---------------

  Last Energy change         ...    3.1247e-09  Tolerance :   1.0000e-08
  Last MAX-Density change    ...    3.1701e-06  Tolerance :   1.0000e-07
  Last RMS-Density change    ...    1.5938e-07  Tolerance :   5.0000e-09
  Last DIIS Error            ...    2.9639e-03  Tolerance :   5.0000e-07
  Last Orbital Gradient      ...    1.1685e-06  Tolerance :   1.0000e-05
  Last Orbital Rotation      ...    2.1206e-06  Tolerance :   1.0000e-05


----------------
ORBITAL ENERGIES
----------------

  NO   OCC          E(Eh)            E(eV) 
   0   2.0000     -20.618558      -561.0595 
   1   2.0000     -20.554510      -559.3166 
   2   2.0000     -15.547929      -423.0807 
   3   2.0000     -11.382038      -309.7210 
   4   2.0000     -11.274425      -306.7927 
   5   2.0000     -11.227483      -305.5154 
   6   2.0000     -11.222525      -305.3804 
   7   2.0000     -11.207819      -304.9803 
   8   2.0000     -11.192846      -304.5728 
   9   2.0000      -1.469217       -39.9794 
  10   2.0000      -1.362925       -37.0871 
  11   2.0000      -1.199446       -32.6386 
  12   2.0000      -1.086636       -29.5689 
  13   2.0000      -0.999124       -27.1876 
  14   2.0000      -0.923179       -25.1210 
  15   2.0000      -0.898738       -24.4559 
  16   2.0000      -0.803307       -21.8591 
  17   2.0000      -0.772360       -21.0170 
  18   2.0000      -0.704106       -19.1597 
  19   2.0000      -0.698604       -19.0100 
  20   2.0000      -0.671567       -18.2743 
  21   2.0000      -0.642876       -17.4935 
  22   2.0000      -0.620029       -16.8718 
  23   2.0000      -0.599893       -16.3239 
  24   2.0000      -0.584067       -15.8933 
  25   2.0000      -0.573324       -15.6009 
  26   2.0000      -0.564036       -15.3482 
  27   2.0000      -0.530234       -14.4284 
  28   2.0000      -0.509242       -13.8572 
  29   2.0000      -0.505422       -13.7532 
  30   2.0000      -0.483793       -13.1647 
  31   2.0000      -0.474077       -12.9003 
  32   2.0000      -0.462238       -12.5781 
  33   2.0000      -0.456657       -12.4263 
  34   2.0000      -0.444280       -12.0895 
  35   2.0000      -0.392127       -10.6703 
  36   0.0000       0.184028         5.0077 
  37   0.0000       0.217293         5.9128 
  38   0.0000       0.230908         6.2833 
  39   0.0000       0.246207         6.6996 
  40   0.0000       0.253517         6.8985 
  41   0.0000       0.297773         8.1028 
  42   0.0000       0.301968         8.2170 
  43   0.0000       0.309494         8.4218 
  44   0.0000       0.320712         8.7270 
  45   0.0000       0.321748         8.7552 
  46   0.0000       0.340739         9.2720 
*Only the first 10 virtual orbitals were printed.

                    ********************************
                    * MULLIKEN POPULATION ANALYSIS *
                    ********************************

-----------------------
MULLIKEN ATOMIC CHARGES
-----------------------
   0 C :   -0.026478
   1 C :    0.777373
   2 H :    0.280861
   3 H :    0.278146
   4 C :   -0.220460
   5 H :    0.156672
   6 H :    0.113116
   7 N :   -0.678871
   8 C :   -0.130406
   9 H :    0.118176
  10 H :    0.143051
  11 C :   -0.328151
  12 H :    0.167420
  13 C :   -0.317933
  14 H :    0.094029
  15 H :    0.099405
  16 H :    0.109323
  17 H :    0.107229
  18 H :    0.107659
  19 O :   -0.636932
  20 H :    0.372436
  21 O :   -0.585663
Sum of atomic charges:    0.0000000

--------------------------------
MULLIKEN REDUCED ORBITAL CHARGES
--------------------------------
  0 C s       :     3.207719  s :     3.207719
      pz      :     0.769505  p :     2.748334
      px      :     1.007745
      py      :     0.971084
      dz2     :     0.018975  d :     0.070425
      dxz     :     0.013826
      dyz     :     0.017117
      dx2y2   :     0.008523
      dxy     :     0.011984

  1 C s       :     2.951511  s :     2.951511
      pz      :     0.655117  p :     2.125408
      px      :     0.756007
      py      :     0.714283
      dz2     :     0.035618  d :     0.145709
      dxz     :     0.040760
      dyz     :     0.020147
      dx2y2   :     0.021154
      dxy     :     0.028029

  2 H s       :     0.693104  s :     0.693104
      pz      :     0.004224  p :     0.026035
      px      :     0.014853
      py      :     0.006959

  3 H s       :     0.695788  s :     0.695788
      pz      :     0.007403  p :     0.026066
      px      :     0.005165
      py      :     0.013498

  4 C s       :     3.231591  s :     3.231591
      pz      :     1.025632  p :     2.940687
      px      :     1.013781
      py      :     0.901274
      dz2     :     0.014153  d :     0.048182
      dxz     :     0.003022
      dyz     :     0.008696
      dx2y2   :     0.010066
      dxy     :     0.012246

  5 H s       :     0.831164  s :     0.831164
      pz      :     0.001075  p :     0.012164
      px      :     0.008392
      py      :     0.002698

  6 H s       :     0.874220  s :     0.874220
      pz      :     0.002314  p :     0.012664
      px      :     0.005753
      py      :     0.004597

  7 N s       :     3.601454  s :     3.601454
      pz      :     1.229009  p :     4.043019
      px      :     1.395138
      py      :     1.418871
      dz2     :     0.012418  d :     0.034399
      dxz     :     0.002240
      dyz     :     0.005786
      dx2y2   :     0.012269
      dxy     :     0.001686

  8 C s       :     3.235832  s :     3.235832
      pz      :     0.927942  p :     2.838645
      px      :     0.970166
      py      :     0.940537
      dz2     :     0.013975  d :     0.055929
      dxz     :     0.005409
      dyz     :     0.014318
      dx2y2   :     0.006514
      dxy     :     0.015713

  9 H s       :     0.869493  s :     0.869493
      pz      :     0.001891  p :     0.012331
      px      :     0.007211
      py      :     0.003229

 10 H s       :     0.844342  s :     0.844342
      pz      :     0.008967  p :     0.012607
      px      :     0.001752
      py      :     0.001888

 11 C s       :     3.247690  s :     3.247690
      pz      :     0.960281  p :     3.038625
      px      :     1.028269
      py      :     1.050075
      dz2     :     0.010528  d :     0.041836
      dxz     :     0.003452
      dyz     :     0.011587
      dx2y2   :     0.003456
      dxy     :     0.012813

 12 H s       :     0.818750  s :     0.818750
      pz      :     0.004851  p :     0.013830
      px      :     0.002015
      py      :     0.006964

 13 C s       :     3.248041  s :     3.248041
      pz      :     0.994740  p :     3.027582
      px      :     1.046703
      py      :     0.986139
      dz2     :     0.011613  d :     0.042311
      dxz     :     0.002895
      dyz     :     0.010294
      dx2y2   :     0.003901
      dxy     :     0.013608

 14 H s       :     0.893388  s :     0.893388
      pz      :     0.001792  p :     0.012583
      px      :     0.006495
      py      :     0.004296

 15 H s       :     0.887995  s :     0.887995
      pz      :     0.002426  p :     0.012600
      px      :     0.006145
      py      :     0.004030

 16 H s       :     0.878473  s :     0.878473
      pz      :     0.001672  p :     0.012204
      px      :     0.006968
      py      :     0.003564

 17 H s       :     0.880169  s :     0.880169
      pz      :     0.001820  p :     0.012602
      px      :     0.006904
      py      :     0.003878

 18 H s       :     0.879729  s :     0.879729
      pz      :     0.007812  p :     0.012612
      px      :     0.002151
      py      :     0.002649

 19 O s       :     3.836739  s :     3.836739
      pz      :     1.412853  p :     4.774908
      px      :     1.689558
      py      :     1.672497
      dz2     :     0.006342  d :     0.025285
      dxz     :     0.008195
      dyz     :     0.003024
      dx2y2   :     0.001662
      dxy     :     0.006062

 20 H s       :     0.586030  s :     0.586030
      pz      :     0.011283  p :     0.041534
      px      :     0.014767
      py      :     0.015484

 21 O s       :     3.871500  s :     3.871500
      pz      :     1.727567  p :     4.681479
      px      :     1.398079
      py      :     1.555833
      dz2     :     0.004011  d :     0.032684
      dxz     :     0.007315
      dyz     :     0.003043
      dx2y2   :     0.010028
      dxy     :     0.008288



                     *******************************
                     * LOEWDIN POPULATION ANALYSIS *
                     *******************************

----------------------
LOEWDIN ATOMIC CHARGES
----------------------
   0 C :   -0.024208
   1 C :    0.227153
   2 H :    0.133972
   3 H :    0.131946
   4 C :   -0.105164
   5 H :    0.080263
   6 H :    0.063849
   7 N :   -0.266301
   8 C :   -0.061718
   9 H :    0.063281
  10 H :    0.071937
  11 C :   -0.187698
  12 H :    0.081489
  13 C :   -0.178282
  14 H :    0.055763
  15 H :    0.056885
  16 H :    0.056445
  17 H :    0.061171
  18 H :    0.059965
  19 O :   -0.210942
  20 H :    0.201486
  21 O :   -0.311292

-------------------------------
LOEWDIN REDUCED ORBITAL CHARGES
-------------------------------
  0 C s       :     2.869942  s :     2.869942
      pz      :     0.940081  p :     3.013148
      px      :     1.037224
      py      :     1.035842
      dz2     :     0.037650  d :     0.141118
      dxz     :     0.028191
      dyz     :     0.035909
      dx2y2   :     0.016404
      dxy     :     0.022965

  1 C s       :     2.849657  s :     2.849657
      pz      :     0.853649  p :     2.607129
      px      :     0.958567
      py      :     0.794914
      dz2     :     0.078466  d :     0.316060
      dxz     :     0.095166
      dyz     :     0.041248
      dx2y2   :     0.042996
      dxy     :     0.058185

  2 H s       :     0.784069  s :     0.784069
      pz      :     0.014070  p :     0.081959
      px      :     0.046384
      py      :     0.021504

  3 H s       :     0.786370  s :     0.786370
      pz      :     0.022663  p :     0.081683
      px      :     0.016258
      py      :     0.042762

  4 C s       :     2.894067  s :     2.894067
      pz      :     1.057679  p :     3.120311
      px      :     1.062956
      py      :     0.999675
      dz2     :     0.024752  d :     0.090785
      dxz     :     0.005694
      dyz     :     0.017028
      dx2y2   :     0.019779
      dxy     :     0.023531

  5 H s       :     0.880223  s :     0.880223
      pz      :     0.004868  p :     0.039514
      px      :     0.025285
      py      :     0.009361

  6 H s       :     0.896526  s :     0.896526
      pz      :     0.007903  p :     0.039624
      px      :     0.017407
      py      :     0.014314

  7 N s       :     3.187097  s :     3.187097
      pz      :     1.263644  p :     4.018190
      px      :     1.370425
      py      :     1.384121
      dz2     :     0.022170  d :     0.061014
      dxz     :     0.006157
      dyz     :     0.012690
      dx2y2   :     0.016596
      dxy     :     0.003401

  8 C s       :     2.872881  s :     2.872881
      pz      :     1.026776  p :     3.078311
      px      :     1.030454
      py      :     1.021082
      dz2     :     0.027246  d :     0.110526
      dxz     :     0.011089
      dyz     :     0.029368
      dx2y2   :     0.012821
      dxy     :     0.030001

  9 H s       :     0.896701  s :     0.896701
      pz      :     0.007149  p :     0.040018
      px      :     0.021865
      py      :     0.011005

 10 H s       :     0.887508  s :     0.887508
      pz      :     0.026653  p :     0.040555
      px      :     0.006942
      py      :     0.006960

 11 C s       :     2.907985  s :     2.907985
      pz      :     1.045382  p :     3.205036
      px      :     1.075679
      py      :     1.083975
      dz2     :     0.020119  d :     0.074677
      dxz     :     0.007040
      dyz     :     0.020820
      dx2y2   :     0.005438
      dxy     :     0.021261

 12 H s       :     0.873521  s :     0.873521
      pz      :     0.016027  p :     0.044990
      px      :     0.007334
      py      :     0.021629

 13 C s       :     2.909092  s :     2.909092
      pz      :     1.056417  p :     3.193872
      px      :     1.082423
      py      :     1.055032
      dz2     :     0.020526  d :     0.075319
      dxz     :     0.005096
      dyz     :     0.019169
      dx2y2   :     0.007193
      dxy     :     0.023336

 14 H s       :     0.904776  s :     0.904776
      pz      :     0.006747  p :     0.039461
      px      :     0.019287
      py      :     0.013427

 15 H s       :     0.903606  s :     0.903606
      pz      :     0.008548  p :     0.039509
      px      :     0.018195
      py      :     0.012767

 16 H s       :     0.905121  s :     0.905121
      pz      :     0.006739  p :     0.038434
      px      :     0.020273
      py      :     0.011422

 17 H s       :     0.899189  s :     0.899189
      pz      :     0.006682  p :     0.039640
      px      :     0.020504
      py      :     0.012454

 18 H s       :     0.900550  s :     0.900550
      pz      :     0.023122  p :     0.039485
      px      :     0.007526
      py      :     0.008838

 19 O s       :     3.457549  s :     3.457549
      pz      :     1.414725  p :     4.705402
      px      :     1.660819
      py      :     1.629859
      dz2     :     0.013261  d :     0.047990
      dxz     :     0.015039
      dyz     :     0.009279
      dx2y2   :     0.002173
      dxy     :     0.008239

 20 H s       :     0.678129  s :     0.678129
      pz      :     0.031862  p :     0.120385
      px      :     0.044108
      py      :     0.044415

 21 O s       :     3.548164  s :     3.548164
      pz      :     1.701585  p :     4.705920
      px      :     1.465749
      py      :     1.538587
      dz2     :     0.008007  d :     0.057209
      dxz     :     0.014458
      dyz     :     0.004115
      dx2y2   :     0.015713
      dxy     :     0.014915



                      *****************************
                      * MAYER POPULATION ANALYSIS *
                      *****************************

  NA   - Mulliken gross atomic population
  ZA   - Total nuclear charge
  QA   - Mulliken gross atomic charge
  VA   - Mayer's total valence
  BVA  - Mayer's bonded valence
  FA   - Mayer's free valence

  ATOM       NA         ZA         QA         VA         BVA        FA
  0 C      6.0265     6.0000    -0.0265     3.7411     3.7411     0.0000
  1 C      5.2226     6.0000     0.7774     3.7016     3.7016     0.0000
  2 H      0.7191     1.0000     0.2809     0.9061     0.9061     0.0000
  3 H      0.7219     1.0000     0.2781     0.9050     0.9050    -0.0000
  4 C      6.2205     6.0000    -0.2205     3.7551     3.7551     0.0000
  5 H      0.8433     1.0000     0.1567     0.9414     0.9414     0.0000
  6 H      0.8869     1.0000     0.1131     0.9544     0.9544     0.0000
  7 N      7.6789     7.0000    -0.6789     2.7729     2.7729     0.0000
  8 C      6.1304     6.0000    -0.1304     3.8074     3.8074     0.0000
  9 H      0.8818     1.0000     0.1182     0.9532     0.9532     0.0000
 10 H      0.8569     1.0000     0.1431     0.9494     0.9494     0.0000
 11 C      6.3282     6.0000    -0.3282     3.8186     3.8186     0.0000
 12 H      0.8326     1.0000     0.1674     0.9516     0.9516     0.0000
 13 C      6.3179     6.0000    -0.3179     3.8452     3.8452     0.0000
 14 H      0.9060     1.0000     0.0940     0.9565     0.9565    -0.0000
 15 H      0.9006     1.0000     0.0994     0.9548     0.9548    -0.0000
 16 H      0.8907     1.0000     0.1093     0.9453     0.9453    -0.0000
 17 H      0.8928     1.0000     0.1072     0.9534     0.9534    -0.0000
 18 H      0.8923     1.0000     0.1077     0.9535     0.9535     0.0000
 19 O      8.6369     8.0000    -0.6369     1.8171     1.8171     0.0000
 20 H      0.6276     1.0000     0.3724     0.8717     0.8717    -0.0000
 21 O      8.5857     8.0000    -0.5857     1.9010     1.9010     0.0000

  Mayer bond orders larger than 0.100000
B(  0-C ,  1-C ) :   0.9218 B(  0-C ,  4-C ) :   0.9514 B(  0-C ,  5-H ) :   0.9559 
B(  0-C ,  7-N ) :   0.9816 B(  1-C , 19-O ) :   0.9654 B(  1-C , 21-O ) :   1.8364 
B(  2-H ,  7-N ) :   0.8993 B(  3-H ,  7-N ) :   0.9075 B(  4-C ,  8-C ) :   0.9666 
B(  4-C ,  9-H ) :   0.9645 B(  4-C , 10-H ) :   0.9687 B(  6-H , 13-C ) :   0.9766 
B(  8-C , 11-C ) :   0.9759 B(  8-C , 13-C ) :   0.9813 B(  8-C , 16-H ) :   0.9738 
B( 11-C , 12-H ) :   0.9574 B( 11-C , 14-H ) :   0.9741 B( 11-C , 15-H ) :   0.9765 
B( 13-C , 17-H ) :   0.9724 B( 13-C , 18-H ) :   0.9767 B( 19-O , 20-H ) :   0.8399 


-------
TIMINGS
-------

Total SCF time: 0 days 0 hours 0 min 22 sec 

Total time                  ....      22.368 sec
Sum of individual times     ....      21.375 sec  ( 95.6%)

SCF preparation             ....       0.022 sec  (  0.1%)
Fock matrix formation       ....      21.195 sec  ( 94.8%)
  Startup                   ....       0.001 sec  (  0.0% of F)
  Coulomb+Exchange Fock     ....      22.170 sec  (104.6% of F)
Diagonalization             ....       0.000 sec  (  0.0%)
Density matrix formation    ....       0.071 sec  (  0.3%)
Total Energy calculation    ....       0.001 sec  (  0.0%)
Population analysis         ....       0.003 sec  (  0.0%)
Orbital Transformation      ....       0.023 sec  (  0.1%)
Orbital Orthonormalization  ....       0.000 sec  (  0.0%)
DIIS solution               ....       0.043 sec  (  0.2%)
SOSCF solution              ....       0.017 sec  (  0.1%)
Finished LeanSCF after  22.4 sec

Maximum memory used throughout the entire LEANSCF-calculation: 15.2 MB

------------------------------------------------------------------------------
                                ORCA  MP2 
------------------------------------------------------------------------------

Freezing NCore=18 chemical core electrons
MP2 will be done in the AO integral direct mode
The Q1-step will be done using symmetric double matrices
Dimension of the basis                    ...  191
Memory devoted for MP2                    ... 4096 MB   
Memory needed for all in one shot         ...  722 MB
Number of MOs that can be treated together...  152      
MP2 density construction                  ... relaxed
The MP2 gradient is requested => amplitudes will be stored on disk
Total number of MOs              ...   27
Number of MOs treated per batch  ...   27 
Number of batches necessary      ...    1 
OPERATORS   0/  0 PASS   0
-----------------------------------------------
 MP2 CORRELATION ENERGY   :     -1.368752767 Eh
-----------------------------------------------


---------------------
MP2 DENSITY FORMATION
---------------------

Completing the external part of the density      ... done
Storing the unrelaxed density                    ... done

Calculating G(D)                                 ... done
Completing the Lagrangian                        ... done
Solving the Z-vector equations                   ... 
-------------------
SHARK CP-SCF DRIVER
-------------------

Dimension of the orbital basis          ...    191
Dimension of the CPSCF-problem          ...   5580
Number of operators                     ...      1
Max. number of iterations               ...    128
Convergence Tolerance                   ... 1.0e-04
Number of perturbations                 ...      1
Perturbation type                       ... REAL

----------------------------
POPLE LINEAR EQUATION SOLVER
----------------------------

  ITERATION   0:   ||err||_max =   1.2480e-01 (   2.5 sec)
  ITERATION   1:   ||err||_max =   3.2522e-02 (   2.6 sec)
  ITERATION   2:   ||err||_max =   1.4032e-02 (   2.6 sec)
  ITERATION   3:   ||err||_max =   3.3741e-03 (   2.6 sec)
  ITERATION   4:   ||err||_max =   1.2494e-03 (   2.6 sec)
  ITERATION   5:   ||err||_max =   3.0061e-04 (   2.6 sec)
  ITERATION   6:   ||err||_max =   9.7402e-05 (   2.6 sec)
                                                 ... done
Finalizing the relaxed density                   ... done
Transforming P to the AO basis                   ... done
Storing the relaxed density                      ... done

------------------------------------
ENERGY WEIGHTED DENSITY FINALIZATION
------------------------------------

Gathering the parts of the W-matrix              ...                                                      done
Forming the Z-density                            ... done
Transforming Z to the AO basis                   ... done
Calculating G(Z)                                 ... done
Finalizing the W-matrix                          ...                                                      done
Transforming W to the AO basis and storing       ... done

                *********************************************
                * UNRELAXED MP2 DENSITY POPULATION ANALYSIS *
                *********************************************

------------------------------------------------------------------------------
                           ORCA POPULATION ANALYSIS
------------------------------------------------------------------------------
Input electron density              ... 1.pmp2ur
BaseName (.gbw .S,...)              ... 1

                    ********************************
                    * MULLIKEN POPULATION ANALYSIS *
                    ********************************

-----------------------
MULLIKEN ATOMIC CHARGES
-----------------------
   0 C :   -0.031695
   1 C :    0.744257
   2 H :    0.279300
   3 H :    0.276836
   4 C :   -0.221767
   5 H :    0.157290
   6 H :    0.114048
   7 N :   -0.670636
   8 C :   -0.133006
   9 H :    0.119016
  10 H :    0.143512
  11 C :   -0.330098
  12 H :    0.167389
  13 C :   -0.320009
  14 H :    0.095043
  15 H :    0.100389
  16 H :    0.110306
  17 H :    0.108156
  18 H :    0.108635
  19 O :   -0.623357
  20 H :    0.369221
  21 O :   -0.562829
Sum of atomic charges:    0.0000000

--------------------------------
MULLIKEN REDUCED ORBITAL CHARGES
--------------------------------
  0 C s       :     3.204461  s :     3.204461
      pz      :     0.770200  p :     2.741258
      px      :     1.004301
      py      :     0.966758
      dz2     :     0.021871  d :     0.085976
      dxz     :     0.016836
      dyz     :     0.020142
      dx2y2   :     0.011942
      dxy     :     0.015184
  1 C s       :     2.953137  s :     2.953137
      pz      :     0.662662  p :     2.146352
      px      :     0.759358
      py      :     0.724332
      dz2     :     0.037756  d :     0.156254
      dxz     :     0.042864
      dyz     :     0.022194
      dx2y2   :     0.023373
      dxy     :     0.030067
  2 H s       :     0.692638  s :     0.692638
      pz      :     0.005101  p :     0.028063
      px      :     0.015228
      py      :     0.007733
  3 H s       :     0.695080  s :     0.695080
      pz      :     0.008124  p :     0.028084
      px      :     0.006021
      py      :     0.013940
  4 C s       :     3.228318  s :     3.228318
      pz      :     1.021529  p :     2.928850
      px      :     1.009211
      py      :     0.898109
      dz2     :     0.017271  d :     0.064600
      dxz     :     0.006526
      dyz     :     0.011948
      dx2y2   :     0.013398
      dxy     :     0.015457
  5 H s       :     0.827828  s :     0.827828
      pz      :     0.002114  p :     0.014882
      px      :     0.009066
      py      :     0.003703
  6 H s       :     0.870526  s :     0.870526
      pz      :     0.003330  p :     0.015426
      px      :     0.006582
      py      :     0.005514
  7 N s       :     3.596781  s :     3.596781
      pz      :     1.221137  p :     4.017319
      px      :     1.386358
      py      :     1.409824
      dz2     :     0.016508  d :     0.056535
      dxz     :     0.006807
      dyz     :     0.010377
      dx2y2   :     0.016587
      dxy     :     0.006256
  8 C s       :     3.232097  s :     3.232097
      pz      :     0.924303  p :     2.828574
      px      :     0.967149
      py      :     0.937122
      dz2     :     0.017201  d :     0.072334
      dxz     :     0.009047
      dyz     :     0.017407
      dx2y2   :     0.009992
      dxy     :     0.018686
  9 H s       :     0.865805  s :     0.865805
      pz      :     0.002945  p :     0.015179
      px      :     0.008005
      py      :     0.004228
 10 H s       :     0.841060  s :     0.841060
      pz      :     0.009640  p :     0.015428
      px      :     0.002815
      py      :     0.002973
 11 C s       :     3.244549  s :     3.244549
      pz      :     0.956741  p :     3.027874
      px      :     1.024961
      py      :     1.046171
      dz2     :     0.013601  d :     0.057675
      dxz     :     0.006911
      dyz     :     0.014666
      dx2y2   :     0.006735
      dxy     :     0.015763
 12 H s       :     0.816106  s :     0.816106
      pz      :     0.005732  p :     0.016505
      px      :     0.003046
      py      :     0.007728
 13 C s       :     3.244864  s :     3.244864
      pz      :     0.991312  p :     3.017172
      px      :     1.043222
      py      :     0.982637
      dz2     :     0.014764  d :     0.057973
      dxz     :     0.006251
      dyz     :     0.013188
      dx2y2   :     0.007149
      dxy     :     0.016621
 14 H s       :     0.889543  s :     0.889543
      pz      :     0.002870  p :     0.015414
      px      :     0.007306
      py      :     0.005239
 15 H s       :     0.884210  s :     0.884210
      pz      :     0.003470  p :     0.015400
      px      :     0.006957
      py      :     0.004974
 16 H s       :     0.874598  s :     0.874598
      pz      :     0.002745  p :     0.015095
      px      :     0.007792
      py      :     0.004558
 17 H s       :     0.876449  s :     0.876449
      pz      :     0.002878  p :     0.015395
      px      :     0.007673
      py      :     0.004844
 18 H s       :     0.875968  s :     0.875968
      pz      :     0.008567  p :     0.015397
      px      :     0.003178
      py      :     0.003652
 19 O s       :     3.832557  s :     3.832557
      pz      :     1.403487  p :     4.742520
      px      :     1.678232
      py      :     1.660801
      dz2     :     0.010944  d :     0.048280
      dxz     :     0.012723
      dyz     :     0.007813
      dx2y2   :     0.006233
      dxy     :     0.010567
 20 H s       :     0.588096  s :     0.588096
      pz      :     0.011682  p :     0.042684
      px      :     0.015162
      py      :     0.015840
 21 O s       :     3.866930  s :     3.866930
      pz      :     1.713248  p :     4.641611
      px      :     1.387672
      py      :     1.540690
      dz2     :     0.008488  d :     0.054289
      dxz     :     0.011737
      dyz     :     0.007411
      dx2y2   :     0.014137
      dxy     :     0.012516


                     *******************************
                     * LOEWDIN POPULATION ANALYSIS *
                     *******************************

----------------------
LOEWDIN ATOMIC CHARGES
----------------------
   0 C :   -0.027625
   1 C :    0.203040
   2 H :    0.133089
   3 H :    0.131214
   4 C :   -0.105451
   5 H :    0.080366
   6 H :    0.064059
   7 N :   -0.261290
   8 C :   -0.063294
   9 H :    0.063570
  10 H :    0.072002
  11 C :   -0.187755
  12 H :    0.081209
  13 C :   -0.178377
  14 H :    0.055974
  15 H :    0.057081
  16 H :    0.056806
  17 H :    0.061371
  18 H :    0.060195
  19 O :   -0.202383
  20 H :    0.199114
  21 O :   -0.292915

-------------------------------
LOEWDIN REDUCED ORBITAL CHARGES
-------------------------------
  0 C s       :     2.870217  s :     2.870217
      pz      :     0.936765  p :     2.998289
      px      :     1.032016
      py      :     1.029508
      dz2     :     0.041227  d :     0.159118
      dxz     :     0.031433
      dyz     :     0.039281
      dx2y2   :     0.020465
      dxy     :     0.026711
  1 C s       :     2.850364  s :     2.850364
      pz      :     0.857039  p :     2.619047
      px      :     0.959278
      py      :     0.802731
      dz2     :     0.080552  d :     0.327549
      dxz     :     0.097222
      dyz     :     0.043546
      dx2y2   :     0.045605
      dxy     :     0.060625
  2 H s       :     0.781242  s :     0.781242
      pz      :     0.015093  p :     0.085669
      px      :     0.048114
      py      :     0.022463
  3 H s       :     0.783374  s :     0.783374
      pz      :     0.023770  p :     0.085412
      px      :     0.017207
      py      :     0.044436
  4 C s       :     2.893708  s :     2.893708
      pz      :     1.051641  p :     3.101958
      px      :     1.056563
      py      :     0.993755
      dz2     :     0.028610  d :     0.109784
      dxz     :     0.009448
      dyz     :     0.020751
      dx2y2   :     0.023555
      dxy     :     0.027420
  5 H s       :     0.875297  s :     0.875297
      pz      :     0.006270  p :     0.044337
      px      :     0.027209
      py      :     0.010858
  6 H s       :     0.891703  s :     0.891703
      pz      :     0.009194  p :     0.044238
      px      :     0.019117
      py      :     0.015926
  7 N s       :     3.185155  s :     3.185155
      pz      :     1.254935  p :     3.990937
      px      :     1.361308
      py      :     1.374694
      dz2     :     0.027079  d :     0.085198
      dxz     :     0.010902
      dyz     :     0.017618
      dx2y2   :     0.021521
      dxy     :     0.008078
  8 C s       :     2.872972  s :     2.872972
      pz      :     1.020681  p :     3.060857
      px      :     1.024933
      py      :     1.015243
      dz2     :     0.031085  d :     0.129466
      dxz     :     0.014931
      dyz     :     0.033138
      dx2y2   :     0.016627
      dxy     :     0.033685
  9 H s       :     0.891509  s :     0.891509
      pz      :     0.008495  p :     0.044921
      px      :     0.023892
      py      :     0.012534
 10 H s       :     0.882577  s :     0.882577
      pz      :     0.028782  p :     0.045421
      px      :     0.008274
      py      :     0.008365
 11 C s       :     2.907232  s :     2.907232
      pz      :     1.039177  p :     3.187770
      px      :     1.070380
      py      :     1.078213
      dz2     :     0.023755  d :     0.092753
      dxz     :     0.010676
      dyz     :     0.024541
      dx2y2   :     0.008957
      dxy     :     0.024825
 12 H s       :     0.869300  s :     0.869300
      pz      :     0.017660  p :     0.049491
      px      :     0.008594
      py      :     0.023237
 13 C s       :     2.908246  s :     2.908246
      pz      :     1.050718  p :     3.176960
      px      :     1.077080
      py      :     1.049162
      dz2     :     0.024184  d :     0.093171
      dxz     :     0.008630
      dyz     :     0.022683
      dx2y2   :     0.010699
      dxy     :     0.026975
 14 H s       :     0.899857  s :     0.899857
      pz      :     0.008016  p :     0.044169
      px      :     0.021143
      py      :     0.015011
 15 H s       :     0.898728  s :     0.898728
      pz      :     0.009897  p :     0.044191
      px      :     0.019978
      py      :     0.014316
 16 H s       :     0.899723  s :     0.899723
      pz      :     0.008118  p :     0.043471
      px      :     0.022289
      py      :     0.013065
 17 H s       :     0.894355  s :     0.894355
      pz      :     0.007935  p :     0.044275
      px      :     0.022364
      py      :     0.013976
 18 H s       :     0.895679  s :     0.895679
      pz      :     0.025153  p :     0.044126
      px      :     0.008800
      py      :     0.010173
 19 O s       :     3.455631  s :     3.455631
      pz      :     1.405775  p :     4.674270
      px      :     1.649977
      py      :     1.618518
      dz2     :     0.018338  d :     0.072482
      dxz     :     0.020042
      dyz     :     0.014370
      dx2y2   :     0.006666
      dxy     :     0.013067
 20 H s       :     0.678037  s :     0.678037
      pz      :     0.032574  p :     0.122849
      px      :     0.045074
      py      :     0.045201
 21 O s       :     3.545182  s :     3.545182
      pz      :     1.687759  p :     4.666368
      px      :     1.454636
      py      :     1.523973
      dz2     :     0.012760  d :     0.081365
      dxz     :     0.019471
      dyz     :     0.008688
      dx2y2   :     0.020641
      dxy     :     0.019805


                      *****************************
                      * MAYER POPULATION ANALYSIS *
                      *****************************

  NA   - Mulliken gross atomic population
  ZA   - Total nuclear charge
  QA   - Mulliken gross atomic charge
  VA   - Mayer's total valence
  BVA  - Mayer's bonded valence
  FA   - Mayer's free valence

  ATOM       NA         ZA         QA         VA         BVA        FA
  0 C      6.0317     6.0000    -0.0317     3.8165     3.5379     0.2786
  1 C      5.2557     6.0000     0.7443     3.7649     3.4744     0.2905
  2 H      0.7207     1.0000     0.2793     0.9135     0.8676     0.0460
  3 H      0.7232     1.0000     0.2768     0.9121     0.8662     0.0459
  4 C      6.2218     6.0000    -0.2218     3.8400     3.5661     0.2739
  5 H      0.8427     1.0000     0.1573     0.9500     0.9015     0.0486
  6 H      0.8860     1.0000     0.1140     0.9637     0.9165     0.0472
  7 N      7.6706     7.0000    -0.6706     2.9672     2.6396     0.3276
  8 C      6.1330     6.0000    -0.1330     3.8856     3.6041     0.2815
  9 H      0.8810     1.0000     0.1190     0.9630     0.9131     0.0499
 10 H      0.8565     1.0000     0.1435     0.9586     0.9093     0.0494
 11 C      6.3301     6.0000    -0.3301     3.9061     3.6542     0.2519
 12 H      0.8326     1.0000     0.1674     0.9599     0.9143     0.0455
 13 C      6.3200     6.0000    -0.3200     3.9314     3.6802     0.2512
 14 H      0.9050     1.0000     0.0950     0.9665     0.9183     0.0482
 15 H      0.8996     1.0000     0.1004     0.9645     0.9165     0.0480
 16 H      0.8897     1.0000     0.1103     0.9553     0.9047     0.0506
 17 H      0.8918     1.0000     0.1082     0.9630     0.9155     0.0474
 18 H      0.8914     1.0000     0.1086     0.9630     0.9157     0.0474
 19 O      8.6234     8.0000    -0.6234     2.0758     1.7203     0.3556
 20 H      0.6308     1.0000     0.3692     0.8786     0.8344     0.0442
 21 O      8.5628     8.0000    -0.5628     2.1657     1.7685     0.3972

  Mayer bond orders larger than 0.100000
B(  0-C ,  1-C ) :   0.8715 B(  0-C ,  4-C ) :   0.8975 B(  0-C ,  5-H ) :   0.9183 
B(  0-C ,  7-N ) :   0.9255 B(  1-C , 19-O ) :   0.9123 B(  1-C , 21-O ) :   1.7170 
B(  2-H ,  7-N ) :   0.8623 B(  3-H ,  7-N ) :   0.8704 B(  4-C ,  8-C ) :   0.9120 
B(  4-C ,  9-H ) :   0.9258 B(  4-C , 10-H ) :   0.9300 B(  6-H , 13-C ) :   0.9397 
B(  8-C , 11-C ) :   0.9230 B(  8-C , 13-C ) :   0.9278 B(  8-C , 16-H ) :   0.9344 
B( 11-C , 12-H ) :   0.9212 B( 11-C , 14-H ) :   0.9368 B( 11-C , 15-H ) :   0.9392 
B( 13-C , 17-H ) :   0.9354 B( 13-C , 18-H ) :   0.9397 B( 19-O , 20-H ) :   0.8052 



                *******************************************
                * RELAXED MP2 DENSITY POPULATION ANALYSIS *
                *******************************************

------------------------------------------------------------------------------
                           ORCA POPULATION ANALYSIS
------------------------------------------------------------------------------
Input electron density              ... 1.pmp2re
BaseName (.gbw .S,...)              ... 1

                    ********************************
                    * MULLIKEN POPULATION ANALYSIS *
[...]
   5 H :    0.081631
   6 H :    0.067429
   7 N :   -0.253184
   8 C :   -0.066578
   9 H :    0.066863
  10 H :    0.074999
  11 C :   -0.198037
  12 H :    0.080248
  13 C :   -0.191699
  14 H :    0.060379
  15 H :    0.063463
  16 H :    0.063220
  17 H :    0.065450
  18 H :    0.064806
  19 O :   -0.178554
  20 H :    0.188147
  21 O :   -0.229704

-------------------------------
LOEWDIN REDUCED ORBITAL CHARGES
-------------------------------
  0 C s       :     2.873941  s :     2.873941
      pz      :     0.940904  p :     3.021537
      px      :     1.043473
      py      :     1.037159
      dz2     :     0.041539  d :     0.152086
      dxz     :     0.030156
      dyz     :     0.034915
      dx2y2   :     0.019368
      dxy     :     0.026110
  1 C s       :     2.862957  s :     2.862957
      pz      :     0.875174  p :     2.689795
      px      :     0.977827
      py      :     0.836795
      dz2     :     0.081942  d :     0.304659
      dxz     :     0.089917
      dyz     :     0.039819
      dx2y2   :     0.039858
      dxy     :     0.053123
  2 H s       :     0.785111  s :     0.785111
      pz      :     0.015992  p :     0.084071
      px      :     0.047717
      py      :     0.020361
  3 H s       :     0.786429  s :     0.786429
      pz      :     0.020997  p :     0.083614
      px      :     0.017797
      py      :     0.044820
  4 C s       :     2.897665  s :     2.897665
      pz      :     1.059647  p :     3.113530
      px      :     1.058657
      py      :     0.995226
      dz2     :     0.027788  d :     0.103486
      dxz     :     0.009143
      dyz     :     0.017530
      dx2y2   :     0.023830
      dxy     :     0.025194
  5 H s       :     0.873903  s :     0.873903
      pz      :     0.007163  p :     0.044466
      px      :     0.025923
      py      :     0.011381
  6 H s       :     0.888837  s :     0.888837
      pz      :     0.009369  p :     0.043734
      px      :     0.018056
      py      :     0.016310
  7 N s       :     3.199941  s :     3.199941
      pz      :     1.235827  p :     3.969963
      px      :     1.370613
      py      :     1.363523
      dz2     :     0.027374  d :     0.083280
      dxz     :     0.010757
      dyz     :     0.015963
      dx2y2   :     0.022977
      dxy     :     0.006209
  8 C s       :     2.873652  s :     2.873652
      pz      :     1.019931  p :     3.071266
      px      :     1.032537
      py      :     1.018798
      dz2     :     0.026711  d :     0.121659
      dxz     :     0.016575
      dyz     :     0.031940
      dx2y2   :     0.014639
      dxy     :     0.031795
  9 H s       :     0.888861  s :     0.888861
      pz      :     0.008713  p :     0.044276
      px      :     0.023902
      py      :     0.011662
 10 H s       :     0.879887  s :     0.879887
      pz      :     0.028377  p :     0.045114
      px      :     0.008413
      py      :     0.008324
 11 C s       :     2.910678  s :     2.910678
      pz      :     1.048071  p :     3.200733
      px      :     1.077316
      py      :     1.075346
      dz2     :     0.020520  d :     0.086625
      dxz     :     0.010602
      dyz     :     0.023706
      dx2y2   :     0.007763
      dxy     :     0.024034
 12 H s       :     0.872345  s :     0.872345
      pz      :     0.019230  p :     0.047407
      px      :     0.008501
      py      :     0.019675
 13 C s       :     2.911647  s :     2.911647
      pz      :     1.052689  p :     3.192654
      px      :     1.082227
      py      :     1.057738
      dz2     :     0.019727  d :     0.087398
      dxz     :     0.011570
      dyz     :     0.022191
      dx2y2   :     0.008495
      dxy     :     0.025415
 14 H s       :     0.896118  s :     0.896118
      pz      :     0.008168  p :     0.043503
      px      :     0.021102
      py      :     0.014233
 15 H s       :     0.892873  s :     0.892873
      pz      :     0.009786  p :     0.043663
      px      :     0.018487
      py      :     0.015390
 16 H s       :     0.893376  s :     0.893376
      pz      :     0.008583  p :     0.043404
      px      :     0.021442
      py      :     0.013379
 17 H s       :     0.890873  s :     0.890873
      pz      :     0.008630  p :     0.043677
      px      :     0.021201
      py      :     0.013846
 18 H s       :     0.891533  s :     0.891533
      pz      :     0.022904  p :     0.043661
      px      :     0.009631
      py      :     0.011126
 19 O s       :     3.481643  s :     3.481643
      pz      :     1.405183  p :     4.624812
      px      :     1.596446
      py      :     1.623183
      dz2     :     0.019978  d :     0.072099
      dxz     :     0.018593
      dyz     :     0.013577
      dx2y2   :     0.006983
      dxy     :     0.012968
 20 H s       :     0.691346  s :     0.691346
      pz      :     0.028413  p :     0.120507
      px      :     0.051772
      py      :     0.040322
 21 O s       :     3.561463  s :     3.561463
      pz      :     1.662578  p :     4.589519
      px      :     1.452013
      py      :     1.474928
      dz2     :     0.012499  d :     0.078722
      dxz     :     0.019864
      dyz     :     0.008271
      dx2y2   :     0.019830
      dxy     :     0.018258


                      *****************************
                      * MAYER POPULATION ANALYSIS *
                      *****************************

  NA   - Mulliken gross atomic population
  ZA   - Total nuclear charge
  QA   - Mulliken gross atomic charge
  VA   - Mayer's total valence
  BVA  - Mayer's bonded valence
  FA   - Mayer's free valence

  ATOM       NA         ZA         QA         VA         BVA        FA
  0 C      6.0519     6.0000    -0.0519     3.8997     3.6249     0.2748
  1 C      5.4445     6.0000     0.5555     3.9532     3.6741     0.2791
  2 H      0.7384     1.0000     0.2616     0.9252     0.8791     0.0461
  3 H      0.7408     1.0000     0.2592     0.9183     0.8719     0.0464
  4 C      6.2066     6.0000    -0.2066     3.9011     3.6301     0.2710
  5 H      0.8567     1.0000     0.1433     0.9545     0.9062     0.0483
  6 H      0.8911     1.0000     0.1089     0.9655     0.9181     0.0474
  7 N      7.6001     7.0000    -0.6001     3.0484     2.7248     0.3236
  8 C      6.0880     6.0000    -0.0880     3.9448     3.6671     0.2777
  9 H      0.8913     1.0000     0.1087     0.9654     0.9152     0.0503
 10 H      0.8710     1.0000     0.1290     0.9636     0.9140     0.0496
 11 C      6.3300     6.0000    -0.3300     3.9422     3.6918     0.2504
 12 H      0.8514     1.0000     0.1486     0.9717     0.9262     0.0455
 13 C      6.3238     6.0000    -0.3238     3.9580     3.7077     0.2503
 14 H      0.9061     1.0000     0.0939     0.9680     0.9197     0.0483
 15 H      0.9003     1.0000     0.0997     0.9662     0.9182     0.0480
 16 H      0.8964     1.0000     0.1036     0.9584     0.9076     0.0508
 17 H      0.8946     1.0000     0.1054     0.9652     0.9176     0.0476
 18 H      0.8940     1.0000     0.1060     0.9648     0.9174     0.0474
 19 O      8.5253     8.0000    -0.5253     2.1955     1.8435     0.3520
 20 H      0.6576     1.0000     0.3424     0.9018     0.8580     0.0438
 21 O      8.4402     8.0000    -0.4402     2.3214     1.9323     0.3891

  Mayer bond orders larger than 0.100000
B(  0-C ,  1-C ) :   0.8660 B(  0-C ,  4-C ) :   0.9183 B(  0-C ,  5-H ) :   0.9065 
B(  0-C ,  7-N ) :   0.9665 B(  1-C , 19-O ) :   0.9830 B(  1-C , 21-O ) :   1.8150 
B(  2-H ,  7-N ) :   0.8635 B(  3-H ,  7-N ) :   0.8719 B(  4-C ,  8-C ) :   0.9213 
B(  4-C ,  9-H ) :   0.9167 B(  4-C , 10-H ) :   0.9184 B(  6-H , 13-C ) :   0.9334 
B(  8-C , 11-C ) :   0.9422 B(  8-C , 13-C ) :   0.9402 B(  8-C , 16-H ) :   0.9239 
B( 11-C , 12-H ) :   0.9187 B( 11-C , 14-H ) :   0.9321 B( 11-C , 15-H ) :   0.9332 
B( 13-C , 17-H ) :   0.9316 B( 13-C , 18-H ) :   0.9339 B( 19-O , 20-H ) :   0.8127 



----------------------------------
MP2 DERIVATIVE INTEGRAL GENERATION
----------------------------------

Input SCF Electron Density              ... 1.scfp
Input Correlated Electron Density       ... 1.pmp2re
Input Energy Weighted Density           ... 1.wmp2.tmp
Input Wavefunction Amplitudes           ... 1.mp2tsaa.tmp

Nuclear repulsion gradient              ... done (  0.0 sec)
HCore & Overlap gradient  (SHARK)       ... done (  0.1 sec)
Analytic two-electron gradient terms    ... 
  Batch handling in the gradient evaluation:
  General contraction                   ... not used
  Memory available                      ... 4081.7 MB
  Memory per occupied orbital in Q2     ...    7.5 MB
  Memory per occupied orbital in Q3     ...    0.0 MB
  Total memory requirement per |i>      ...    7.6 MB
  Number of orbitals treated per batch  ...     27
  Number of batches to be done          ...      1
done ( 21.0 sec)

---------------------------------------
MP2 TOTAL ENERGY:     -440.364092086 Eh
---------------------------------------

The final MP2 gradient
  0:  -0.00001616   0.00002928   0.00000391
  1:   0.00003194  -0.00002590  -0.00004102
  2:   0.00000515   0.00001740   0.00000780
  3:   0.00000924  -0.00000248  -0.00000863
  4:   0.00001033   0.00002766   0.00000075
  5:   0.00000506  -0.00000567   0.00001596
  6:   0.00000350  -0.00001002   0.00000303
  7:  -0.00000406  -0.00002543  -0.00000838
  8:  -0.00000296   0.00000112  -0.00000592
  9:   0.00000224   0.00000479  -0.00000405
 10:   0.00000787  -0.00002747   0.00000543
 11:  -0.00001690   0.00003027  -0.00000395
 12:   0.00001175  -0.00000256   0.00000074
 13:  -0.00001052   0.00001740  -0.00002182
 14:  -0.00000476  -0.00001459   0.00000070
 15:   0.00000487  -0.00001430   0.00000236
 16:  -0.00000386  -0.00000766   0.00000858
 17:  -0.00000155  -0.00000591   0.00000883
 18:   0.00000339  -0.00000011   0.00000578
 19:  -0.00001972   0.00001804   0.00002273
 20:   0.00000419  -0.00000651  -0.00001292
 21:  -0.00001906   0.00000264   0.00002011

-----------------------------------
NORM OF THE MP2 GRADIENT:  0.000115
-----------------------------------

Maximum memory used throughout the entire MP2-calculation: 780.1 MB

-------------------------   --------------------
FINAL SINGLE POINT ENERGY      -440.364092086499
-------------------------   --------------------

                                *** OPTIMIZATION RUN DONE ***


------------------------------------------------------------------------------
                              ORCA PROPERTY CALCULATIONS
------------------------------------------------------------------------------

GBWName                                 ... 1.gbw
Number of atoms                         ...     22
Number of basis functions               ...    191
Max core memory                         ...   4096 MB

Electric properties:
Dipole moment                           ... YES
Quadrupole moment                       ...  NO
Static polarizability (Dipole/Dipole)   ...  NO
Static polarizability (Dipole/Quad.)    ...  NO
Static polarizability (Quad./Quad.)     ...  NO
Static polarizability (Velocity)        ...  NO
Static hyperpolarizability              ...  NO

Atomic electric properties:
Dipole moment                           ...  NO
Quadrupole moment                       ...  NO
Static polarizability                   ...  NO

Choice of electric origin               ... Center of mass
Position of electric origin             ...   -17.386664    10.897850    -3.312299

General magnetic properties:
Magnetizability                         ...  NO

EPR properties:
g-Tensor (aka g-matrix)                 ...  NO
Zero-Field splitting spin-orbit         ...  NO
Zero-field splitting spin-spin          ...  NO
Hyperfine couplings                     ...  NO (   0 nuclei)
Quadrupole couplings                    ...  NO (   0 nuclei)
Contact density                         ...  NO (   0 nuclei)

NMR properties:
Chemical shifts                         ...  NO (   0 nuclei)
Spin-rotation constants                 ...  NO (   0 nuclei)
Spin-spin couplings                     ...  NO (   0 nuclei,    0 pairs)

Choice of magnetic origin               ... GIAO
Position of magnetic origin             ...     0.000000     0.000000     0.000000

Properties with geometric perturbations:
SCF Hessian                             ...  NO
IR spectrum                             ...  NO
VCD spectrum                            ...  NO
X-ray spectroscopy properties:
SCF XES/XAS/RIXS spectra                ...  NO

SCF SOC stabilization energy            ...  NO
Diagonal Born-Oppenheimer correction    ...  NO

-------------
DIPOLE MOMENT
-------------

Method             : SCF
Type of density    : Electron Density
Multiplicity       :   1
Irrep              :   0
Energy             :  -438.9913781418164263 Eh
Basis              : AO
                                X                 Y                 Z
Electronic contribution:      6.347051601      12.527669847       2.502422143
Nuclear contribution   :     -6.587825343     -12.356734319      -2.040322935
                        -----------------------------------------
Total Dipole Moment    :     -0.240773743       0.170935528       0.462099208
                        -----------------------------------------
Magnitude (a.u.)       :      0.548385474
Magnitude (Debye)      :      1.393885100



--------------------
Rotational spectrum 
--------------------
 
Rotational constants in cm-1:             0.092902             0.029712             0.024433 
Rotational constants in MHz :          2785.138931           890.755742           732.493616 

Dipole components along the rotational axes: 
x,y,z [a.u.] :     0.096988     0.482219     0.242456 
x,y,z [Debye]:     0.246523     1.225704     0.616273 

 

-------------
DIPOLE MOMENT
-------------

Method             : MP2
Type of density    : Electron Density
Multiplicity       :   1
Level              : Unrelaxed density
Irrep              :   0
Energy             :     0.0000000000000000 Eh
Basis              : AO
                                X                 Y                 Z
Electronic contribution:      6.377610399      12.539274996       2.491892081
Nuclear contribution   :     -6.587825343     -12.356734319      -2.040322935
                        -----------------------------------------
Total Dipole Moment    :     -0.210214945       0.182540678       0.451569146
                        -----------------------------------------
Magnitude (a.u.)       :      0.530496104
Magnitude (Debye)      :      1.348413935



--------------------
Rotational spectrum 
--------------------
 
Rotational constants in cm-1:             0.092902             0.029712             0.024433 
Rotational constants in MHz :          2785.138931           890.755742           732.493616 

Dipole components along the rotational axes: 
x,y,z [a.u.] :     0.120220     0.466118     0.222951 
x,y,z [Debye]:     0.305575     1.184778     0.566697 

 

-------------
DIPOLE MOMENT
-------------

Method             : MP2
Type of density    : Electron Density
Multiplicity       :   1
Level              : Relaxed density
Irrep              :   0
Energy             :     0.0000000000000000 Eh
Basis              : AO
                                X                 Y                 Z
Electronic contribution:      6.507716694      12.617967400       2.473791371
Nuclear contribution   :     -6.587825343     -12.356734319      -2.040322935
                        -----------------------------------------
Total Dipole Moment    :     -0.080108649       0.261233081       0.433468436
                        -----------------------------------------
Magnitude (a.u.)       :      0.512401213
Magnitude (Debye)      :      1.302420379



--------------------
Rotational spectrum 
--------------------
 
Rotational constants in cm-1:             0.092902             0.029712             0.024433 
Rotational constants in MHz :          2785.138931           890.755742           732.493616 

Dipole components along the rotational axes: 
x,y,z [a.u.] :     0.248225     0.421887     0.151494 
x,y,z [Debye]:     0.630938     1.072352     0.385068 

 

Dipole moment calculation done in   0.0 sec 

Maximum memory used throughout the entire PROP-calculation: 10.5 MB

--------------------------------
SUGGESTED CITATIONS FOR THIS RUN
--------------------------------

Below you find a list of papers that are relevant to this ORCA run
We neither can nor want to force you to cite these papers, but we appreciate if you do
You receive ORCA, which is the product of decades of hard work by many enthusiastic individuals, for free
The only thing we kindly ask in return is that you cite our papers,
We deeply appreciate it, if you show your appreciation for ORCA by not just citing the generic ORCA reference.

Please note that relegating all ORCA citations to the supporting information does *not* help us.
SI sections are not indexed - citations you put there will not count into any citation statistics
But we need these citations in order to attract the funding resources that allow us to do what we are doing

Therefore, if you are a happy ORCA user, please consider citing a few of the papers listed below in the main body of your paper

In addition to the list printed below, the program has created the file 1.bibtex that contains the list in bibtex format
You can import this file easily into all common literature databanks and citation aid programs


List of essential papers. We consider these as the minimum necessary citations

  1. Neese, F.
     Software update: the ORCA program system, version 6.0
     WIRES Comput. Molec. Sci. 2025 15(1), e70019
     doi.org/10.1002/wcms.7019

List of papers to cite with high priority. The work reported in these papers was absolutely
necessary for this run to complete.
Our perspective: the developers of density functionals and basis sets usually get cited in chemistry papers
Good! But without the algorithms to do something with them, the functionals or basis sets would not do anything.
Hence, in our opinion, the algorithm design and method developments papers are equally worthy of getting cited

  1. Neese, F.
     The SHARK Integral Generation and Digestion System
     J. Comp. Chem. 2022 44(3), 381
     doi.org/10.1002/jcc.26942

List of suggested additional citations. These are papers that are important in the 'surrounding' of 
of this run, or papers that preceded the highly important papers. If you like your results we are grateful for a citation.

  1. Neese, F.
     The ORCA program system
     WIRES Comput. Molec. Sci. 2012 2(1), 73-78
     doi.org/10.1002/wcms.81
  2. Neese, F.
     Software update: the ORCA program system, version 4.0
     WIRES Comput. Molec. Sci. 2018 8(1), 1-6
     doi.org/10.1002/wcms.1327
  3. Neese, F.; Wennmohs, F.; Becker, U.; Riplinger, C.
     The ORCA quantum chemistry program package
     J. Chem. Phys. 2020 152(22), 224108
     doi.org/10.1063/5.0004608
  4. Neese, F.
     Software update: The ORCA program system—Version 5.0
     WIRES Comput. Molec. Sci. 2022 12(1), e1606
     doi.org/10.1002/wcms.1606

List of optional additional citations

  1. Neese, F.
     Approximate second-order SCF convergence for spin unrestricted wavefunctions
     Chem. Phys. Lett. 2000 325(1-3), 93-98
     doi.org/10.1016/s0009-2614(00)00662-x

Timings for individual modules:

Sum of individual times          ...     1183.416 sec (=  19.724 min)
Startup calculation              ...        6.858 sec (=   0.114 min)   0.6 %
SCF iterations                   ...      225.696 sec (=   3.762 min)  19.1 %
Property calculations            ...        0.042 sec (=   0.001 min)   0.0 %
MP2 module                       ...      950.795 sec (=  15.847 min)  80.3 %
Geometry relaxation              ...        0.024 sec (=   0.000 min)   0.0 %
                             ****ORCA TERMINATED NORMALLY****
TOTAL RUN TIME: 0 days 0 hours 19 minutes 43 seconds 733 msec
