
                                 *****************
                                 * O   R   C   A *
                                 *****************

                                            #,                                       
                                            ###                                      
                                            ####                                     
                                            #####                                    
                                            ######                                   
                                           ########,                                 
                                     ,,################,,,,,                         
                               ,,#################################,,                 
                          ,,##########################################,,             
                       ,#########################################, ''#####,          
                    ,#############################################,,   '####,        
                  ,##################################################,,,,####,       
                ,###########''''           ''''###############################       
              ,#####''   ,,,,##########,,,,          '''####'''          '####       
            ,##' ,,,,###########################,,,                        '##       
           ' ,,###''''                  '''############,,,                           
         ,,##''                                '''############,,,,        ,,,,,,###''
      ,#''                                            '''#######################'''  
     '                                                          ''''####''''         
             ,#######,   #######,   ,#######,      ##                                
            ,#'     '#,  ##    ##  ,#'     '#,    #''#        ,####,    ,#,          
            ##       ##  ##   ,#'  ##            #'  '#       #'       ,# #          
            ##       ##  #######   ##           ,######,      #####,      #          
            '#,     ,#'  ##    ##  '#,     ,#' ,#      #,     #,   #      #          
             '#######'   ##     ##  '#######'  #'      '#     '####' #    #          



                #########################################################
                #                        -***-                          #
                #          Department of theory and spectroscopy        #
                #                                                       #
                #                      Frank Neese                      #
                #                                                       #
                #     Directorship, Architecture, Infrastructure        #
                #                    SHARK, DRIVERS                     #
                #        Core code/Algorithms in most modules           #
                #                                                       #
                #        Max Planck Institute fuer Kohlenforschung      #
                #                Kaiser Wilhelm Platz 1                 #
                #                 D-45470 Muelheim/Ruhr                 #
                #                      Germany                          #
                #                                                       #
                #                  All rights reserved                  #
                #                        -***-                          #
                #########################################################


                         Program Version 6.1.0  -  RELEASE   -
                                (GIT: $679e74b$)
                          ($2025-06-10 18:02:51 +0200$)


 With contributions from (in alphabetic order):
[Max-Planck-Institut fuer Kohlenforschung]                               
  Daniel Aravena         : Magnetic Suceptibility                        
  Michael Atanasov       : Ab Initio Ligand Field Theory (pilot matlab implementation)
  Alexander A. Auer      : GIAO ZORA, VPT2 properties, NMR spectrum      
  Ute Becker             : All parallelization in ORCA, NUMFREQ, NUMCALC 
  Giovanni Bistoni       : ED, misc. LED, open-shell LED, HFLD           
  Dmytro Bykov           : pre 5.0 version of the SCF Hessian            
  Marcos Casanova-Páez   : Triplet and SCS-CIS(D). UHF-(DLPNO)-IP/EA/STEOM-CCSD. UHF-CVS-IP/STEOM-CCSD   
  Vijay G. Chilkuri      : MRCI spin determinant printing, contributions to CSF-ICE 
  Pauline Colinet        : FMM embedding                                 
  Dipayan Datta          : RHF DLPNO-CCSD density                        
  Achintya Kumar Dutta   : EOM-CC, STEOM-CC                              
  Nicolas Foglia         : Exact transition moments, OPA infrastructure, MCD improvements    
  Dmitry Ganyushin       : Spin-Orbit,Spin-Spin,Magnetic field MRCI      
  Miquel Garcia-Rates    : C-PCM and meta-GGA Hessian, CCSD/C-PCM, Gaussian charge scheme 
  Tiago L. C. Gouveia    : GS-ROHF, GS-ROCIS                             
  Yang Guo               : DLPNO-NEVPT2, F12-NEVPT2, CIM, IAO-localization        
  Andreas Hansen         : Spin unrestricted coupled pair/coupled cluster methods 
  Ingolf Harden          : AUTO-CI MPn and infrastructure                
  Benjamin Helmich-Paris : MC-RPA, TRAH-(SCF,CASSCF), AVAS, COSX integrals, SCF dyn. polar., MC-PDFT, srDFT 
  Lee Huntington         : MR-EOM, pCC                                   
  Robert Izsak           : Overlap fitted RIJCOSX, COSX-SCS-MP3, EOM     
  Riya Kayal             : Wick's Theorem for AUTO-CI, AUTO-CI UHF-CCSDT 
  Emily Kempfer          : AUTO-CI RHF CISDT and CCSDT, approximate NEVPT4
  Christian Kollmar      : KDIIS, OOCD, Brueckner-CCSD(T), CCSD density, CASPT2, CASPT2-K, improved NEVPT2 
  Axel Koslowski         : Symmetry handling                             
  Simone Kossmann        : meta-GGA functionals, TD-DFT gradient, OOMP2, (MP2 Hessian; deprecated post 5.0) 
  Lucas Lang             : DCDCAS, Hyperfine gauge corrections, ICE-SOC+SSC
  Marvin Lechner         : AUTO-CI (C++ implementation), FIC-MRCC        
  Spencer Leger          : CASSCF response                               
  Dagmar Lenk            : GEPOL surface, SMD, ORCA-2-JSON               
  Dimitrios Liakos       : Extrapolation schemes; Compound Job, Property file
  Dimitrios Manganas     : Further ROCIS development; embedding schemes. LFT, Crystal Embedding 
  Dimitrios Pantazis     : SARC Basis sets                               
  Anastasios Papadopoulos: AUTO-CI, single reference methods and gradients 
  Taras Petrenko         : pre 6.0 DFT Hessian and TD-DFT gradient,  ECA, NRVS 
  Petra Pikulova         : Analytic Raman intensities                    
  Peter Pinski           : DLPNO-MP2, DLPNO-MP2 Gradient                 
  Shashank Vittal Rao    : ES-AILFT, MagRelax                            
  Christoph Reimann      : Effective Core Potentials                     
  Marius Retegan         : Local ZFS, SOC                                
  Christoph Riplinger    : Optimizer, TS searches, QM/MM, DLPNO-CCSD(T), (RO)-DLPNO pert. Triples 
  Michael Roemelt        : Original ROCIS implementation, recursive CI coupling coefficients
  Masaaki Saitow         : Open-shell DLPNO-CCSD energy and density      
  Barbara Sandhoefer     : DKH picture change effects                    
  Yorick L. A. Schmerwitz: GMF and freeze-and-release deltaSCF, NEB S-IDPP initial path                    
  Kantharuban Sivalingam : CASSCF convergence/infrastructure, NEVPT2, NEVPT3, NEVPT4(SD), FIC-MRCI and CEPA variants
  Bernardo de Souza      : ESD, SOC TD-DFT                               
  Georgi L. Stoychev     : AutoAux, RI-MP2 NMR, DLPNO-MP2 response, X2C  
  Van Anh Tran           : RI-MP2 g-tensors                              
  Willem Van den Heuvel  : Paramagnetic NMR                              
  Zikuan Wang            : NOTCH, Electric field optimization            
  Frank Wennmohs         : Technical directorship and infrastructure     
  Hang Xu                : AUTO-CI-Response properties                   
                                                                         
[FACCTs GmbH]                                                            
  Markus Bursch, Nicolas Foglia, Miquel Garcia-Rates, Ingolf Harden, Hagen Neugebauer, Anastasios Papadopoulos, 
  Christoph Riplinger, Bernardo de Souza, Georgi L. Stoychev                                                    
                                                                 
  APM, various basis sets, CI-OPT, improved COSX, DLPNO-Multilevel,           
  DOCKER, DRACO, updates on ESD, Fragmentator, GOAT, IRC, LR-CPCM, L-BFGS, MBIS, meta-GGA TD-DFT gradient, ML-optimized integration grids, 
  MM, NACMEs, nearIR, NEB, NEB-TS, NL-DFT gradient (VV10), 2- and 3-layer-ONIOM, interface openCOSMO-RS, QMMM,   
  Crystal-QMMM, RESP, rigid body optimization, SF, symmetry and pop. for TD-DFT, various functionals, SOLVATOR                                   
                                                                         
[Other institutions]                                                     
  V. Asgeirsson          : NEB                                           
  Christoph Bannwarth    : sTDA-DFT, sTD-DFT, PBEh-3c, B97-3c, D3        
  Giovanni Bistoni       : ETS/NOCV, ADLD/ADEX, COVALED                  
  Martin Brehm           : Molecular dynamics                            
  Ronald Cardenas        : ETS/NOCV                                      
  Martina Colucci        : COVALED                                       
  Sebastian Ehlert       : rSCAN, r2SCAN, r2SCAN-3c, D4, dhf basis sets  
  Marvin Friede          : D4 for Fr, Ra, Ac-Lr                          
  Lars Goerigk           : TD-DFT with DH, B97 family of functionals     
  Stefan Grimme          : VdW corrections, initial TS optimization, DFT functionals, gCP, sTDA/sTD-DF 
  Waldemar Hujo          : DFT-NL                                        
  H. Jonsson             : NEB                                           
  Holger Kruse           : gCP                                           
  Marcel Mueller         : wB97X-3c, vDZP basis set                      
  Hagen Neugebauer       : wr2SCAN, Native XTB                           
  Gianluca Regni         : ADLD/ADEX                                     
  Tobias Risthaus        : pre 6.0 range-separated hybrid DFT and stability analysis
  Lukas Wittmann         : regularized MP2, r2SCAN double-hybrids, wr2SCAN        
                                                                         
We gratefully acknowledge several colleagues who have allowed us to      
interface, adapt or use parts of their codes:                            
  Ed Valeev, F. Pavosevic, A. Kumar             : LibInt (2-el integral package), F12 methods 
  Garnet Chan, S. Sharma, J. Yang, R. Olivares  : DMRG                   
  Ulf Ekstrom                                   : XCFun DFT Library      
  Mihaly Kallay                                 : mrcc  (arbitrary order and MRCC methods)
  Frank Weinhold                                : gennbo (NPA and NBO analysis)           
  Simon Mueller                                 : openCOSMO-RS                            
  Christopher J. Cramer and Donald G. Truhlar   : smd solvation model                     
  S Lehtola, MJT Oliveira, MAL Marques          : LibXC Library                           
  Liviu Ungur et al                             : ANISO software                          


 Your calculation uses the libint2 library for the computation of 2-el integrals
 For citations please refer to: http://libint.valeyev.net

 Your ORCA version has been built with support for libXC version: 7.0.0
 For citations please refer to: https://libxc.gitlab.io

 This ORCA versions uses:
   CBLAS   interface :  Fast vector & matrix operations
   LAPACKE interface :  Fast linear algebra routines
   SCALAPACK package :  Parallel linear algebra routines
   Shared memory     :  Shared parallel matrices
   BLAS/LAPACK       :  OpenBLAS 0.3.29  USE64BITINT DYNAMIC_ARCH NO_AFFINITY Haswell SINGLE_THREADED
        Core in use  :  Haswell
   Copyright (c) 2011-2014, The OpenBLAS Project


  ***********************************
  * Starting time: Sat Aug 30 16:09:37 2025
  * Host name:     chemlab03
  * Process ID:    81707
  * Working dir.:  /home/vivek/mm-project/vivek/xtb-goat/B97-D-opt/i/1
  ***********************************



***************************************
The coordinates will be read from file: /home/vivek/mm-project/vivek/xtb-goat/xtb-goat/i/I_CONF/1.xyz
***************************************


Your calculation utilizes empirical dispersion correction


Warning: RI is on but no J-basis has been assigned. Assigning Def2/J (nothing to worry about!)
================================================================================

----- Orbital basis set information -----
Your calculation utilizes the basis: 6-31G**
   H-He, Li-Ne : W. J. Hehre, R. Ditchfield and J.A. Pople, J. Chem. Phys. 56, 2257 (1972).
                 Note: He and Ne are unpublished basis sets taken from the Gaussian program.
                 Note: Li and B from J. D. Dill and J. A. Pople, J. Chem. Phys. 62, 2921 (1975).
   Na - Ar     : M. M. Francl, W. J. Pietro, W. J. Hehre, J. S. Binkley, M. S. Gordon, 
                 D. J. DeFrees and J. A. Pople, J. Chem. Phys. 77, 3654 (1982).
   K - Zn      : V. A. Rassolov, J. A. Pople, M. A. Ratner, and T. L. Windus, J. Chem. Phys. 109, 1223 (1998).

----- AuxJ basis set information -----
Your calculation utilizes the auxiliary basis: def2/J
   H-Rn: F. Weigend, Phys. Chem. Chem. Phys. 8, 1057 (2006).
   Fr-Lr: K. Eichkorn, F. Weigend, O. Treutler, R. Ahlrichs; Theor. Chem. Acc. 97, 119 (1997).

================================================================================
                                        WARNINGS
                       Please study these warnings very carefully!
================================================================================


WARNING: Geometry Optimization
  ===> : Switching off AutoStart
         For restart on a previous wavefunction, please use MOREAD

INFO   : The exchange functional is Grimme's B97(-D)
         As described in S. Grimme, J. Comput. Chem. 27, 1787 (2006).
         Note that this functional defaults to a pure GGA. 

INFO   : The correlation functional is Grimme's B97(-D)
         As described in S. Grimme, J. Comput. Chem. 27, 1787 (2006).

================================================================================
                                       INPUT FILE
================================================================================
NAME = 1.inp
|  1> ! B97-D 6-31G** opt
|  2> 
|  3> * xyzfile 0 1 /home/vivek/mm-project/vivek/xtb-goat/xtb-goat/i/I_CONF/1.xyz
|  4> 
|  5>                          ****END OF INPUT****
================================================================================

                       *****************************
                       * Geometry Optimization Run *
                       *****************************

Geometry optimization settings:
Update method            Update   .... BFGS
Choice of coordinates    CoordSys .... (2022) Redundant Internals
Initial Hessian          InHess   .... Almloef's Model
Max. no of cycles        MaxIter  .... 66

Convergence Tolerances:
Energy Change            TolE     ....  5.0000e-06 Eh
Max. Gradient            TolMAXG  ....  3.0000e-04 Eh/bohr
RMS Gradient             TolRMSG  ....  1.0000e-04 Eh/bohr
Max. Displacement        TolMAXD  ....  4.0000e-03 bohr
RMS Displacement         TolRMSD  ....  2.0000e-03 bohr
Strict Convergence                .... False

------------------------------------------------------------------------------
                        ORCA OPTIMIZATION COORDINATE SETUP
------------------------------------------------------------------------------

The optimization will be done in redundant internal coordinates (2022)
Making redundant internal coordinates   ...  (2022 redundants) done
Evaluating the initial hessian          ...  (Almloef) done
Evaluating the coordinates              ...  done
Calculating the B-matrix                .... done
Calculating the G-matrix                .... done
The number of degrees of freedom        ....   94

    -----------------------------------------------------------------
                    Redundant Internal Coordinates


    -----------------------------------------------------------------
         Definition                    Initial Value    Approx d2E/dq
    -----------------------------------------------------------------
      1. B(C   1,C   0)                  1.5238         0.382211   
      2. B(C   2,C   0)                  1.5322         0.370538   
      3. B(C   5,C   2)                  1.5456         0.352815   
      4. B(C   7,C   2)                  1.5259         0.379245   
      5. B(C   8,C   5)                  1.5216         0.385218   
      6. B(H   9,C   7)                  1.0877         0.363132   
      7. B(N  10,H   3)                  1.0145         0.425590   
      8. B(N  10,C   5)                  1.4536         0.442923   
      9. B(N  10,H   4)                  1.0160         0.423282   
     10. B(O  11,C   8)                  1.3376         0.678273   
     11. B(O  11,H   6)                  0.9713         0.498787   
     12. B(H  12,C   1)                  1.0873         0.363705   
     13. B(O  13,C   8)                  1.2039         1.108832   
     14. B(H  14,C   2)                  1.0955         0.352953   
     15. B(H  15,C   7)                  1.0880         0.362796   
     16. B(H  16,C   7)                  1.0864         0.364905   
     17. B(H  17,C   5)                  1.0943         0.354471   
     18. B(H  18,C   0)                  1.0905         0.359473   
     19. B(H  19,C   0)                  1.0919         0.357572   
     20. B(H  20,C   1)                  1.0874         0.363543   
     21. B(H  21,C   1)                  1.0876         0.363258   
     22. A(H  18,C   0,H  19)          108.0499         0.290438   
     23. A(C   1,C   0,C   2)          112.9899         0.364265   
     24. A(C   1,C   0,H  19)          109.6432         0.325162   
     25. A(C   2,C   0,H  18)          107.9111         0.323792   
     26. A(C   2,C   0,H  19)          108.9956         0.323510   
     27. A(C   1,C   0,H  18)          109.1218         0.325446   
     28. A(C   0,C   1,H  20)          110.0680         0.326049   
     29. A(H  20,C   1,H  21)          108.2947         0.291675   
     30. A(C   0,C   1,H  12)          111.4716         0.326073   
     31. A(H  12,C   1,H  20)          108.0284         0.291731   
     32. A(H  12,C   1,H  21)          108.3902         0.291695   
     33. A(C   0,C   1,H  21)          110.4911         0.326007   
     34. A(C   0,C   2,C   7)          111.8419         0.363780   
     35. A(C   0,C   2,C   5)          109.0237         0.359324   
     36. A(C   5,C   2,H  14)          107.2427         0.320242   
     37. A(C   0,C   2,H  14)          108.7290         0.322821   
     38. A(C   5,C   2,C   7)          110.7659         0.360749   
     39. A(C   7,C   2,H  14)          109.1086         0.324054   
     40. A(C   8,C   5,H  17)          108.6378         0.325116   
     41. A(C   2,C   5,H  17)          109.3180         0.320466   
     42. A(N  10,C   5,H  17)          108.9162         0.330689   
     43. A(C   2,C   5,C   8)          109.4907         0.361712   
     44. A(C   8,C   5,N  10)          110.9482         0.373756   
     45. A(C   2,C   5,N  10)          109.5031         0.368149   
     46. A(C   2,C   7,H   9)          111.1007         0.325571   
     47. A(H  15,C   7,H  16)          108.5953         0.291788   
     48. A(H   9,C   7,H  16)          107.8916         0.291830   
     49. A(C   2,C   7,H  16)          110.2775         0.325832   
     50. A(H   9,C   7,H  15)          108.4136         0.291565   
     51. A(C   2,C   7,H  15)          110.4768         0.325521   
     52. A(C   5,C   8,O  13)          124.4306         0.439491   
     53. A(C   5,C   8,O  11)          112.9283         0.402591   
     54. A(O  11,C   8,O  13)          122.6144         0.484093   
     55. A(H   3,N  10,H   4)          107.4639         0.301393   
     56. A(H   4,N  10,C   5)          109.0743         0.337660   
     57. A(H   3,N  10,C   5)          110.4693         0.337966   
     58. A(H   6,O  11,C   8)          110.6833         0.373204   
     59. D(H  20,C   1,C   0,H  19)     60.7009         0.011636   
     60. D(H  12,C   1,C   0,H  18)   -177.3122         0.011636   
     61. D(H  12,C   1,C   0,H  19)    -59.1510         0.011636   
     62. D(H  12,C   1,C   0,C   2)     62.6427         0.011636   
     63. D(H  20,C   1,C   0,H  18)    -57.4604         0.011636   
     64. D(H  20,C   1,C   0,C   2)   -177.5054         0.011636   
     65. D(C   5,C   2,C   0,C   1)    161.9757         0.010974   
     66. D(C   7,C   2,C   0,H  19)     46.9690         0.010974   
     67. D(C   7,C   2,C   0,H  18)    164.0752         0.010974   
     68. D(C   7,C   2,C   0,C   1)    -75.1883         0.010974   
     69. D(C   5,C   2,C   0,H  18)     41.2392         0.010974   
     70. D(C   5,C   2,C   0,H  19)    -75.8670         0.010974   
     71. D(C   8,C   5,C   2,H  14)    -64.5851         0.010016   
     72. D(C   8,C   5,C   2,C   7)     54.3792         0.010016   
     73. D(C   8,C   5,C   2,C   0)    177.8575         0.010016   
     74. D(N  10,C   5,C   2,H  14)     57.2650         0.010016   
     75. D(N  10,C   5,C   2,C   7)    176.2293         0.010016   
     76. D(N  10,C   5,C   2,C   0)    -60.2924         0.010016   
     77. D(H  15,C   7,C   2,H  14)    172.7576         0.011465   
     78. D(H  15,C   7,C   2,C   5)     54.9264         0.011465   
     79. D(H  15,C   7,C   2,C   0)    -66.9137         0.011465   
     80. D(H   9,C   7,C   2,H  14)     52.3924         0.011465   
     81. D(H   9,C   7,C   2,C   5)    -65.4388         0.011465   
     82. D(H   9,C   7,C   2,C   0)    172.7211         0.011465   
     83. D(O  13,C   8,C   5,N  10)    -41.6283         0.011055   
     84. D(O  13,C   8,C   5,C   2)     79.3501         0.011055   
     85. D(O  11,C   8,C   5,H  17)     16.8312         0.011055   
     86. D(O  11,C   8,C   5,N  10)    136.5310         0.011055   
     87. D(O  11,C   8,C   5,C   2)   -102.4906         0.011055   
     88. D(H   3,N  10,C   5,C   8)    -62.4549         0.016730   
     89. D(H   3,N  10,C   5,C   2)    176.5741         0.016730   
     90. D(H   4,N  10,C   5,C   8)     55.4503         0.016730   
     91. D(H   4,N  10,C   5,C   2)    -65.5207         0.016730   
     92. D(H   3,N  10,C   5,H  17)     57.0785         0.016730   
     93. D(H   6,O  11,C   8,O  13)     -1.7464         0.034250   
     94. D(H   6,O  11,C   8,C   5)   -179.9439         0.034250   
    -----------------------------------------------------------------

Number of atoms                         .... 22
Number of degrees of freedom            .... 94


         *************************************************************
         *                GEOMETRY OPTIMIZATION CYCLE   1            *
         *************************************************************
---------------------------------
CARTESIAN COORDINATES (ANGSTROEM)
---------------------------------
  C     -9.192765    5.277693   -0.936155
  C    -10.691430    5.115997   -0.713088
  C     -8.351633    4.376238   -0.026443
  H     -6.069370    3.647361   -2.361680
  H     -7.326323    2.721556   -1.868627
  C     -6.925588    4.260574   -0.611066
  H     -4.703432    3.564210    1.643420
  C     -8.308097    4.898225    1.406737
  C     -6.065652    3.410356    0.312538
  H     -7.817785    4.187067    2.067779
  N     -6.992184    3.678276   -1.941324
  O     -5.236032    4.138037    1.068517
  H    -10.977033    5.404158    0.295669
  O     -6.089691    2.207294    0.348851
  H     -8.786090    3.370620   -0.028791
  H     -7.765703    5.840246    1.452387
  H     -9.315703    5.060229    1.779206
  H     -6.481544    5.258179   -0.682324
  H     -8.956206    5.024920   -1.970215
  H     -8.906812    6.318044   -0.768267
  H    -11.242235    5.742407   -1.410715
  H    -10.990774    4.082599   -0.872482

----------------------------
CARTESIAN COORDINATES (A.U.)
----------------------------
  NO LB      ZA    FRAG     MASS         X           Y           Z
   0 C     6.0000    0    12.011  -17.371809    9.973395   -1.769077
   1 C     6.0000    0    12.011  -20.203875    9.667833   -1.347540
   2 C     6.0000    0    12.011  -15.782299    8.269891   -0.049969
   3 H     1.0000    0     1.008  -11.469448    6.892514   -4.462928
   4 H     1.0000    0     1.008  -13.844745    5.142995   -3.531194
   5 C     6.0000    0    12.011  -13.087465    8.051318   -1.154747
   6 H     1.0000    0     1.008   -8.888199    6.735382    3.105613
   7 C     6.0000    0    12.011  -15.700029    9.256305    2.658347
   8 C     6.0000    0    12.011  -11.462421    6.444638    0.590612
   9 H     1.0000    0     1.008  -14.773472    7.912411    3.907535
  10 N     7.0000    0    14.007  -13.213313    6.950934   -3.668571
  11 O     8.0000    0    15.999   -9.894666    7.819757    2.019205
  12 H     1.0000    0     1.008  -20.743587   10.212379    0.558734
  13 O     8.0000    0    15.999  -11.507847    4.171180    0.659234
  14 H     1.0000    0     1.008  -16.603304    6.369548   -0.054407
  15 H     1.0000    0     1.008  -14.675053   11.036466    2.744614
  16 H     1.0000    0     1.008  -17.604127    9.562447    3.362212
  17 H     1.0000    0     1.008  -12.248343    9.936518   -1.289405
  18 H     1.0000    0     1.008  -16.924776    9.495722   -3.723166
  19 H     1.0000    0     1.008  -16.831435   11.939372   -1.451814
  20 H     1.0000    0     1.008  -21.244745   10.851577   -2.665866
  21 H     1.0000    0     1.008  -20.769552    7.714995   -1.648753

--------------------------------
INTERNAL COORDINATES (ANGSTROEM)
--------------------------------
 C      0   0   0     0.000000000000     0.00000000     0.00000000
 C      1   0   0     1.523778417862     0.00000000     0.00000000
 C      1   2   0     1.532221669143   112.98985212     0.00000000
 H      3   1   2     3.345641708252    95.06233542   141.28741470
 H      4   3   1     1.637115755537    52.35501557   259.48556839
 C      3   1   2     1.545563453341   109.02369383   161.97569880
 H      6   3   1     3.241234877084   112.67773024   154.92153355
 C      3   1   2     1.525899336254   111.84192814   284.81167545
 C      6   3   1     1.521645735398   109.49067912   177.85749882
 H      8   3   1     1.087717302169   111.10067742   172.72114937
 N      4   3   1     1.014514908985    23.60227034   298.51740418
 O      7   6   3     0.971314448787    23.85898822   265.95188854
 H      2   1   3     1.087288550039   111.47160458    62.64271315
 O      9   6   3     1.203850195834   124.43060752    79.35006745
 H      3   1   2     1.095457280647   108.72898846    45.36184890
 H      8   3   1     1.087969786331   110.47683532   293.08631437
 H      8   3   1     1.086391887437   110.27746404    53.14223259
 H      6   3   1     1.094288952952   109.31802948    58.95577104
 H      1   2   3     1.090474083297   109.12181914   120.04507204
 H      1   2   3     1.091917829129   109.64318294   238.20630949
 H      2   1   3     1.087409888512   110.06800422   182.49455104
 H      2   1   3     1.087622976705   110.49111772   302.05160917

---------------------------
INTERNAL COORDINATES (A.U.)
---------------------------
 C      0   0   0     0.000000000000     0.00000000     0.00000000
 C      1   0   0     2.879523898538     0.00000000     0.00000000
 C      1   2   0     2.895479331140   112.98985212     0.00000000
 H      3   1   2     6.322346570821    95.06233542   141.28741470
 H      4   3   1     3.093700427492    52.35501557   259.48556839
 C      3   1   2     2.920691649412   109.02369383   161.97569880
 H      6   3   1     6.125046253403   112.67773024   154.92153355
 C      3   1   2     2.883531853452   111.84192814   284.81167545
 C      6   3   1     2.875493712751   109.49067912   177.85749882
 H      8   3   1     2.055487812227   111.10067742   172.72114937
 N      4   3   1     1.917155336762    23.60227034   298.51740418
 O      7   6   3     1.835518298128    23.85898822   265.95188854
 H      2   1   3     2.054677588122   111.47160458    62.64271315
 O      9   6   3     2.274947176394   124.43060752    79.35006745
 H      3   1   2     2.070114251833   108.72898846    45.36184890
 H      8   3   1     2.055964938146   110.47683532   293.08631437
 H      8   3   1     2.052983141370   110.27746404    53.14223259
 H      6   3   1     2.067906432454   109.31802948    58.95577104
 H      1   2   3     2.060697373571   109.12181914   120.04507204
 H      1   2   3     2.063425657800   109.64318294   238.20630949
 H      2   1   3     2.054906884605   110.06800422   182.49455104
 H      2   1   3     2.055309562933   110.49111772   302.05160917

---------------------
BASIS SET INFORMATION
---------------------
There are 4 groups of distinct atoms

 Group   1 Type C   : 10s4p1d contracted to 3s2p1d pattern {631/31/1}
 Group   2 Type H   : 4s1p contracted to 2s1p pattern {31/1}
 Group   3 Type N   : 10s4p1d contracted to 3s2p1d pattern {631/31/1}
 Group   4 Type O   : 10s4p1d contracted to 3s2p1d pattern {631/31/1}

Atom   0C    basis set group =>   1
Atom   1C    basis set group =>   1
Atom   2C    basis set group =>   1
Atom   3H    basis set group =>   2
Atom   4H    basis set group =>   2
Atom   5C    basis set group =>   1
Atom   6H    basis set group =>   2
Atom   7C    basis set group =>   1
Atom   8C    basis set group =>   1
Atom   9H    basis set group =>   2
Atom  10N    basis set group =>   3
Atom  11O    basis set group =>   4
Atom  12H    basis set group =>   2
Atom  13O    basis set group =>   4
Atom  14H    basis set group =>   2
Atom  15H    basis set group =>   2
Atom  16H    basis set group =>   2
Atom  17H    basis set group =>   2
Atom  18H    basis set group =>   2
Atom  19H    basis set group =>   2
Atom  20H    basis set group =>   2
Atom  21H    basis set group =>   2
---------------------------------
AUXILIARY/J BASIS SET INFORMATION
---------------------------------
There are 4 groups of distinct atoms

 Group   1 Type C   : 12s5p4d2f1g contracted to 6s4p3d1f1g pattern {711111/2111/211/2/1}
 Group   2 Type H   : 5s2p1d contracted to 3s1p1d pattern {311/2/1}
 Group   3 Type N   : 12s5p4d2f1g contracted to 6s4p3d1f1g pattern {711111/2111/211/2/1}
 Group   4 Type O   : 12s5p4d2f1g contracted to 6s4p3d1f1g pattern {711111/2111/211/2/1}

Atom   0C    basis set group =>   1
Atom   1C    basis set group =>   1
Atom   2C    basis set group =>   1
Atom   3H    basis set group =>   2
Atom   4H    basis set group =>   2
Atom   5C    basis set group =>   1
Atom   6H    basis set group =>   2
Atom   7C    basis set group =>   1
Atom   8C    basis set group =>   1
Atom   9H    basis set group =>   2
Atom  10N    basis set group =>   3
Atom  11O    basis set group =>   4
Atom  12H    basis set group =>   2
Atom  13O    basis set group =>   4
Atom  14H    basis set group =>   2
Atom  15H    basis set group =>   2
Atom  16H    basis set group =>   2
Atom  17H    basis set group =>   2
Atom  18H    basis set group =>   2
Atom  19H    basis set group =>   2
Atom  20H    basis set group =>   2
Atom  21H    basis set group =>   2
------------------------------------------------------------------------------
                             ORCA STARTUP CALCULATIONS
                           -- RI-GTO INTEGRALS CHOSEN --
------------------------------------------------------------------------------
------------------------------------------------------------------------------
                   ___                                                        
                  /   \      - P O W E R E D   B Y -                         
                 /     \                                                     
                 |  |  |   _    _      __       _____    __    __             
                 |  |  |  | |  | |    /  \     |  _  \  |  |  /  |          
                  \  \/   | |  | |   /    \    | | | |  |  | /  /          
                 / \  \   | |__| |  /  /\  \   | |_| |  |  |/  /          
                |  |  |   |  __  | /  /__\  \  |    /   |      \           
                |  |  |   | |  | | |   __   |  |    \   |  |\   \          
                \     /   | |  | | |  |  |  |  | |\  \  |  | \   \       
                 \___/    |_|  |_| |__|  |__|  |_| \__\ |__|  \__/        
                                                                              
                      - O R C A' S   B I G   F R I E N D -                    
                                      &                                       
                       - I N T E G R A L  F E E D E R -                       
                                                                              
 v1 FN, 2020, v2 2021, v3 2022-2024                                           
------------------------------------------------------------------------------


----------------------
SHARK INTEGRAL PACKAGE
----------------------

Number of atoms                             ...     22
Number of basis functions                   ...    191
Number of shells                            ...     93
Maximum angular momentum                    ...      2
Integral batch strategy                     ... SHARK/LIBINT Hybrid
RI-J (if used) integral strategy            ... SPLIT-RIJ (Revised 2003 algorithm where possible)
Printlevel                                  ...      1
Contraction scheme used                     ... SEGMENTED contraction
Prescreening option                         ... SCHWARTZ
   Thresh                                   ... 2.500e-11
   Tcut                                     ... 2.500e-12
   Tpresel                                  ... 2.500e-12 
Coulomb Range Separation                    ... NOT USED
Exchange Range Separation                   ... NOT USED
Multipole approximations                    ... NOT USED
Finite Nucleus Model                        ... NOT USED
CABS basis                                  ... NOT available
Auxiliary Coulomb fitting basis             ... AVAILABLE
   # of basis functions in Aux-J            ...    584
   # of shells in Aux-J                     ...    200
   Maximum angular momentum in Aux-J        ...      4
Auxiliary J/K fitting basis                 ... NOT available
Auxiliary Correlation fitting basis         ... NOT available
Auxiliary 'external' fitting basis          ... NOT available

Checking pre-screening integrals            ... done (  0.0 sec) Dimension = 93
   => SHARK Basis and OBASIS are compatible. Storing Pre-screening
Shell pair information
Shell pair cut-off parameter TPreSel        ...   2.5e-12
Total number of shell pairs                 ...      4371
Shell pairs after pre-screening             ...      3929
Total number of primitive shell pairs       ...     20328
Primitive shell pairs kept                  ...     12221
          la=0 lb=0:   1296 shell pairs
          la=1 lb=0:   1467 shell pairs
          la=1 lb=1:    439 shell pairs
          la=2 lb=0:    434 shell pairs
          la=2 lb=1:    251 shell pairs
          la=2 lb=2:     42 shell pairs

Checking whether 4 symmetric matrices of dimension 191 fit in memory
:Max Core in MB      =   4096.00
 MB in use           =      8.65
 MB left             =   4087.35
 MB needed           =      0.56
 Data fit in memory  = YES
Calculating RI/J V-Matrix + Cholesky decomp.... done (  0.0 sec)
Calculating Nuclear repulsion               ... done (  0.0 sec) ENN=    490.495789961546 Eh

Diagonalization of the overlap matrix:
Smallest eigenvalue                        ... 2.614e-03
Time for diagonalization                   ...    0.002 sec
Threshold for overlap eigenvalues          ... 1.000e-07
Number of eigenvalues below threshold      ... 0
Time for construction of square roots      ...    0.001 sec
Total time needed                          ...    0.003 sec

-------------------
DFT GRID GENERATION
-------------------

General Integration Accuracy     IntAcc      ... 4.388
Radial Grid Type                 RadialGrid  ... OptM3 with GC (2021)
Angular Grid (max. ang.)         AngularGrid ... 4 (Lebedev-302)
Angular grid pruning method      GridPruning ... 4 (adaptive)
Weight generation scheme         WeightScheme... mBecke (2022)
Basis function cutoff            BFCut       ... 1.0000e-11
Integration weight cutoff        WCut        ... 1.0000e-14
Partially contracted basis set               ... off
Rotationally invariant grid construction     ... off
Angular grids for H and He will be reduced by one unit

Total number of grid points                  ...    95578
Total number of batches                      ...     1506
Average number of points per batch           ...       63
Average number of grid points per atom       ...     4344
Grids setup in   0.4 sec
Initializing property integral containers    ... done (  0.0 sec)

SHARK setup successfully completed in   0.5 seconds

Maximum memory used throughout the entire STARTUP-calculation: 40.6 MB
-------------------------------------------------------------------------------
                                 ORCA GUESS
                   Start orbitals & Density for SCF / CASSCF
-------------------------------------------------------------------------------

------------
SCF SETTINGS
------------
Hamiltonian:
 Density Functional     Method          .... DFT(GTOs)
 Exchange Functional    Exchange        .... B97(D)
 Correlation Functional Correlation     .... B97(D)
 Gradients option       PostSCFGGA      .... off
 RI-approximation to the Coulomb term is turned on
   Number of AuxJ basis functions       .... 584


General Settings:
 Integral files         IntName         .... 1
 Hartree-Fock type      HFTyp           .... RHF
 Total Charge           Charge          ....    0
 Multiplicity           Mult            ....    1
 Number of Electrons    NEL             ....   72
 Basis Dimension        Dim             ....  191
 Nuclear Repulsion      ENuc            ....    490.4957899615 Eh

Convergence Acceleration:
 AO-DIIS                CNVDIIS         .... on
   Start iteration      DIISMaxIt       ....    12
   Startup error        DIISStart       ....  0.200000
   # of expansion vecs  DIISMaxEq       ....     5
   Bias factor          DIISBfac        ....   1.050
   Max. coefficient     DIISMaxC        ....  10.000
 MO-DIIS                CNVKDIIS        .... off
 Trust-Rad. Augm. Hess. CNVTRAH         .... auto
   Auto Start mean grad. ratio tolernc. ....  1.125000
   Auto Start start iteration           ....    50
   Auto Start num. interpolation iter.  ....    10
   Max. Number of Micro iterations      ....    24
   Max. Number of Macro iterations      .... Maxiter - #DIIS iter
   Number of Davidson start vectors     ....     2
   Converg. threshold    (grad. norm)   ....   1.000e-05
   Grad. Scal. Fac. for Micro threshold ....   0.100
   Minimum threshold for Micro iter.    ....   1.000e-02
   NR start threshold (gradient norm)   ....   1.000e-04
   Initial trust radius                 ....   0.400
   Minimum AH scaling param. (alpha)    ....   1.000
   Maximum AH scaling param. (alpha)    .... 1000.000
   Quad. conv. algorithm                .... NR
   White noise on init. David. guess    .... on
   Maximum white noise                  ....   0.010
   Pseudo random numbers                .... off
   Inactive MOs                         .... canonical
   Orbital update algorithm             .... Taylor
   Preconditioner                       .... Diag
   Full preconditioner red. dimension   ....   250
 SOSCF                 CNVSOSCF           .... on
   Start iteration     SOSCFMaxIt         ....   150
   Startup grad/error  SOSCFStart         ....  0.003300
   Hessian update      SOSCFHessUp        .... L-BFGS
   Autom. constraints  SOSCFAutoConstrain .... off
 Level Shifting         CNVShift        .... on
   Level shift para.    LevelShift      ....    0.2500
   Turn off err/grad.   ShiftErr        ....    0.0010
 Zerner damping         CNVZerner       .... off
 Static damping         CNVDamp         .... on
   Fraction old density DampFac         ....    0.7000
   Max. Damping (<1)    DampMax         ....    0.9800
   Min. Damping (>=0)   DampMin         ....    0.0000
   Turn off err/grad.   DampErr         ....    0.1000

SCF Procedure:
 Maximum # iterations   MaxIter         ....   125
 SCF integral mode      SCFMode         .... Direct
   Integral package                     .... SHARK and LIBINT hybrid scheme
 Reset frequency        DirectResetFreq ....    20
 Integral Threshold     Thresh          ....  2.500e-11 Eh
 Primitive CutOff       TCut            ....  2.500e-12 Eh

Convergence Tolerance:
 Convergence Check Mode ConvCheckMode   .... Total+1el-Energy
 Convergence forced     ConvForced      .... 0
 Energy Change          TolE            ....  1.000e-08 Eh
 1-El. energy change                    ....  1.000e-05 Eh
 Orbital Gradient       TolG            ....  1.000e-05
 Orbital Rotation angle TolX            ....  1.000e-05
 DIIS Error             TolErr          ....  5.000e-07

------------------------------
INITIAL GUESS: MODEL POTENTIAL
------------------------------
Loading Hartree-Fock densities                     ... done
Calculating cut-offs                               ... done
Initializing the effective Hamiltonian             ... done
Setting up the integral package (SHARK)            ... done
Starting the Coulomb interaction                   ... done (   0.1 sec)
Making the grid                                    ... done (   0.1 sec)
Mapping shells                                     ... done
Starting the XC term evaluation                    ... done (   0.1 sec)
  promolecular density results
     # of electrons  =     71.995527076
     EX              =    -56.846484462
     EC              =     -3.117708391
     EX+EC           =    -59.964192853
Transforming the Hamiltonian                       ... done (   0.0 sec)
Diagonalizing the Hamiltonian                      ... done (   0.0 sec)
Back transforming the eigenvectors                 ... done (   0.0 sec)
Now organizing SCF variables                       ... done
                      ------------------
                      INITIAL GUESS DONE (   0.3 sec)
                      ------------------
             **** ENERGY FILE WAS UPDATED (1.en.tmp) ****
Finished Guess after   0.3 sec
Maximum memory used throughout the entire GUESS-calculation: 13.8 MB

-------------------------------------------------------------------------------------------
                                      ORCA LEAN-SCF
                              memory conserving SCF solver
-------------------------------------------------------------------------------------------

----------------------------------------D-I-I-S--------------------------------------------
Iteration    Energy (Eh)           Delta-E    RMSDP     MaxDP     DIISErr   Damp  Time(sec)
-------------------------------------------------------------------------------------------
               ***  Starting incremental Fock matrix formation  ***
    1    -441.0180613923616875     0.00e+00  3.55e-03  1.02e-01  2.60e-01  0.700   0.6
    2    -441.1960317271970098    -1.78e-01  2.34e-03  5.17e-02  9.77e-02  0.700   0.5
                               ***Turning on AO-DIIS***
    3    -441.2519076846472217    -5.59e-02  9.02e-04  1.65e-02  2.55e-02  0.700   0.5
    4    -441.2876205215031860    -3.57e-02  1.19e-03  2.06e-02  1.28e-02  0.000   0.5
    5    -441.3701445243126500    -8.25e-02  4.05e-04  8.22e-03  8.73e-03  0.000   0.5
                              *** Initializing SOSCF ***
---------------------------------------S-O-S-C-F--------------------------------------
Iteration    Energy (Eh)           Delta-E    RMSDP     MaxDP     MaxGrad    Time(sec)
--------------------------------------------------------------------------------------
    6    -441.3710290611537630    -8.85e-04  1.47e-04  2.86e-03  2.94e-03     0.5
               *** Restarting incremental Fock matrix formation ***
    7    -441.3710961651895559    -6.71e-05  1.24e-04  4.13e-03  7.81e-04     0.6
    8    -441.3710642909261423     3.19e-05  6.94e-05  2.94e-03  2.37e-03     0.5
    9    -441.3711058975296737    -4.16e-05  4.16e-05  8.26e-04  2.10e-04     0.5
   10    -441.3711038539938727     2.04e-06  2.37e-05  4.92e-04  1.68e-04     0.5
   11    -441.3711075022284831    -3.65e-06  6.00e-06  1.61e-04  2.35e-05     0.5
   12    -441.3711074393768286     6.29e-08  3.50e-06  1.06e-04  3.89e-05     0.5
   13    -441.3711075420977750    -1.03e-07  7.27e-07  1.97e-05  3.76e-06     0.4
   14    -441.3711075413019671     7.96e-10  4.10e-07  1.12e-05  5.32e-06     0.4
                 **** Energy Check signals convergence ****

               *****************************************************
               *                     SUCCESS                       *
               *           SCF CONVERGED AFTER  14 CYCLES          *
               *****************************************************

             **** ENERGY FILE WAS UPDATED (1.en.tmp) ****

----------------
TOTAL SCF ENERGY
----------------

Total Energy       :       -441.37110754017306 Eh          -12010.31843 eV

Components:
Nuclear Repulsion  :        490.49578996154617 Eh           13347.06900 eV
Electronic Energy  :       -931.86689750171922 Eh          -25357.38743 eV
One Electron Energy:      -1573.04639025795154 Eh          -42804.76843 eV
Two Electron Energy:        641.17949275623232 Eh           17447.38101 eV

Virial components:
Potential Energy   :       -880.48645228414875 Eh          -23959.25443 eV
Kinetic Energy     :        439.11534474397570 Eh           11948.93600 eV
Virial Ratio       :          2.00513706210270

DFT components:
N(Alpha)           :       35.999988410088 electrons
N(Beta)            :       35.999988410088 electrons
N(Total)           :       71.999976820176 electrons
E(X)               :      -58.277687426328 Eh       
E(C)               :       -3.115405401776 Eh       
E(XC)              :      -61.393092828104 Eh       

---------------
SCF CONVERGENCE
---------------

  Last Energy change         ...   -7.9581e-10  Tolerance :   1.0000e-08
  Last MAX-Density change    ...    1.1212e-05  Tolerance :   1.0000e-07
  Last RMS-Density change    ...    4.1034e-07  Tolerance :   5.0000e-09
  Last DIIS Error            ...    2.9403e-03  Tolerance :   5.0000e-07
  Last Orbital Gradient      ...    5.3171e-06  Tolerance :   1.0000e-05
  Last Orbital Rotation      ...    5.7631e-06  Tolerance :   1.0000e-05


----------------
ORBITAL ENERGIES
----------------

  NO   OCC          E(Eh)            E(eV) 
   0   2.0000     -18.813330      -511.9367 
   1   2.0000     -18.751250      -510.2474 
   2   2.0000     -13.989690      -380.6788 
   3   2.0000     -10.025311      -272.8026 
   4   2.0000      -9.942887      -270.5597 
   5   2.0000      -9.911330      -269.7010 
   6   2.0000      -9.893219      -269.2082 
   7   2.0000      -9.890078      -269.1227 
   8   2.0000      -9.888285      -269.0739 
   9   2.0000      -1.019252       -27.7353 
  10   2.0000      -0.929710       -25.2987 
  11   2.0000      -0.817823       -22.2541 
  12   2.0000      -0.727642       -19.8002 
  13   2.0000      -0.664320       -18.0771 
  14   2.0000      -0.627493       -17.0749 
  15   2.0000      -0.582721       -15.8566 
  16   2.0000      -0.537974       -14.6390 
  17   2.0000      -0.503584       -13.7032 
  18   2.0000      -0.451212       -12.2781 
  19   2.0000      -0.431387       -11.7386 
  20   2.0000      -0.420808       -11.4508 
  21   2.0000      -0.412131       -11.2146 
  22   2.0000      -0.402446       -10.9511 
  23   2.0000      -0.376836       -10.2542 
  24   2.0000      -0.367571       -10.0021 
  25   2.0000      -0.349549        -9.5117 
  26   2.0000      -0.336148        -9.1470 
  27   2.0000      -0.332333        -9.0432 
  28   2.0000      -0.320768        -8.7285 
  29   2.0000      -0.310865        -8.4591 
  30   2.0000      -0.282545        -7.6885 
  31   2.0000      -0.281229        -7.6526 
  32   2.0000      -0.272882        -7.4255 
  33   2.0000      -0.267360        -7.2752 
  34   2.0000      -0.225761        -6.1433 
  35   2.0000      -0.194159        -5.2833 
  36   0.0000      -0.016248        -0.4421 
  37   0.0000       0.052270         1.4223 
  38   0.0000       0.073785         2.0078 
  39   0.0000       0.084416         2.2971 
  40   0.0000       0.092237         2.5099 
  41   0.0000       0.121879         3.3165 
  42   0.0000       0.128218         3.4890 
  43   0.0000       0.143971         3.9177 
  44   0.0000       0.146171         3.9775 
  45   0.0000       0.149024         4.0551 
  46   0.0000       0.155970         4.2442 
*Only the first 10 virtual orbitals were printed.

                    ********************************
                    * MULLIKEN POPULATION ANALYSIS *
                    ********************************

-----------------------
MULLIKEN ATOMIC CHARGES
-----------------------
   0 C :   -0.181124
   1 C :   -0.335276
   2 C :   -0.065936
   3 H :    0.241987
   4 H :    0.249636
   5 C :   -0.024766
   6 H :    0.314320
   7 C :   -0.333758
   8 C :    0.487639
   9 H :    0.111760
  10 N :   -0.557560
  11 O :   -0.455322
  12 H :    0.104981
  13 O :   -0.426744
  14 H :    0.097809
  15 H :    0.112724
  16 H :    0.110756
  17 H :    0.116386
  18 H :    0.130142
  19 H :    0.088591
  20 H :    0.106726
  21 H :    0.107031
Sum of atomic charges:    0.0000000

--------------------------------
MULLIKEN REDUCED ORBITAL CHARGES
--------------------------------
  0 C s       :     3.221889  s :     3.221889
      pz      :     1.030273  p :     2.922571
      px      :     0.908934
      py      :     0.983363
      dz2     :     0.009824  d :     0.036663
      dxz     :     0.006482
      dyz     :     0.003813
      dx2y2   :     0.009754
      dxy     :     0.006791

  1 C s       :     3.247909  s :     3.247909
      pz      :     1.041885  p :     3.056803
      px      :     0.972067
      py      :     1.042851
      dz2     :     0.006975  d :     0.030564
      dxz     :     0.006527
      dyz     :     0.003868
      dx2y2   :     0.007062
      dxy     :     0.006132

  2 C s       :     3.217927  s :     3.217927
      pz      :     0.910103  p :     2.805348
      px      :     0.904058
      py      :     0.991187
      dz2     :     0.010868  d :     0.042661
      dxz     :     0.008408
      dyz     :     0.006463
      dx2y2   :     0.009144
      dxy     :     0.007777

  3 H s       :     0.734045  s :     0.734045
      pz      :     0.007443  p :     0.023968
      px      :     0.010823
      py      :     0.005701

  4 H s       :     0.726440  s :     0.726440
      pz      :     0.005360  p :     0.023924
      px      :     0.007100
      py      :     0.011464

  5 C s       :     3.192192  s :     3.192192
      pz      :     0.817933  p :     2.775485
      px      :     0.994061
      py      :     0.963491
      dz2     :     0.015125  d :     0.057089
      dxz     :     0.013465
      dyz     :     0.011847
      dx2y2   :     0.007269
      dxy     :     0.009384

  6 H s       :     0.647937  s :     0.647937
      pz      :     0.013102  p :     0.037744
      px      :     0.012248
      py      :     0.012393

  7 C s       :     3.245868  s :     3.245868
      pz      :     0.970726  p :     3.057646
      px      :     1.050823
      py      :     1.036096
      dz2     :     0.006849  d :     0.030245
      dxz     :     0.005969
      dyz     :     0.006459
      dx2y2   :     0.005083
      dxy     :     0.005884

  8 C s       :     3.000238  s :     3.000238
      pz      :     0.802362  p :     2.387554
      px      :     0.791730
      py      :     0.793462
      dz2     :     0.014289  d :     0.124569
      dxz     :     0.009333
      dyz     :     0.037939
      dx2y2   :     0.024534
      dxy     :     0.038475

  9 H s       :     0.876553  s :     0.876553
      pz      :     0.004050  p :     0.011688
      px      :     0.003519
      py      :     0.004118

 10 N s       :     3.595530  s :     3.595530
      pz      :     1.278156  p :     3.933370
      px      :     1.350099
      py      :     1.305114
      dz2     :     0.008600  d :     0.028660
      dxz     :     0.005104
      dyz     :     0.003269
      dx2y2   :     0.009860
      dxy     :     0.001827

 11 O s       :     3.825468  s :     3.825468
      pz      :     1.494976  p :     4.607035
      px      :     1.492452
      py      :     1.619607
      dz2     :     0.002202  d :     0.022819
      dxz     :     0.002792
      dyz     :     0.007142
      dx2y2   :     0.003596
      dxy     :     0.007087

 12 H s       :     0.883380  s :     0.883380
      pz      :     0.005847  p :     0.011639
      px      :     0.002865
      py      :     0.002927

 13 O s       :     3.858876  s :     3.858876
      pz      :     1.590023  p :     4.539853
      px      :     1.598315
      py      :     1.351514
      dz2     :     0.002638  d :     0.028016
      dxz     :     0.000138
      dyz     :     0.008854
      dx2y2   :     0.007496
      dxy     :     0.008889

 14 H s       :     0.890637  s :     0.890637
      pz      :     0.002564  p :     0.011554
      px      :     0.003085
      py      :     0.005905

 15 H s       :     0.875717  s :     0.875717
      pz      :     0.002504  p :     0.011559
      px      :     0.003595
      py      :     0.005461

 16 H s       :     0.877496  s :     0.877496
      pz      :     0.003040  p :     0.011748
      px      :     0.005959
      py      :     0.002749

 17 H s       :     0.872715  s :     0.872715
      pz      :     0.001784  p :     0.010899
      px      :     0.003136
      py      :     0.005980

 18 H s       :     0.857549  s :     0.857549
      pz      :     0.006323  p :     0.012310
      px      :     0.003103
      py      :     0.002883

 19 H s       :     0.899827  s :     0.899827
      pz      :     0.002682  p :     0.011582
      px      :     0.002805
      py      :     0.006094

 20 H s       :     0.881707  s :     0.881707
      pz      :     0.004181  p :     0.011568
      px      :     0.003535
      py      :     0.003852

 21 H s       :     0.881423  s :     0.881423
      pz      :     0.002748  p :     0.011546
      px      :     0.002846
      py      :     0.005953



                     *******************************
                     * LOEWDIN POPULATION ANALYSIS *
                     *******************************

----------------------
LOEWDIN ATOMIC CHARGES
----------------------
   0 C :   -0.125987
   1 C :   -0.201397
   2 C :   -0.061162
   3 H :    0.126477
   4 H :    0.128659
   5 C :   -0.045564
   6 H :    0.179482
   7 C :   -0.198639
   8 C :    0.101426
   9 H :    0.070842
  10 N :   -0.237852
  11 O :   -0.139066
  12 H :    0.064026
  13 O :   -0.228123
  14 H :    0.067914
  15 H :    0.071131
  16 H :    0.071919
  17 H :    0.077586
  18 H :    0.078162
  19 H :    0.061936
  20 H :    0.070871
  21 H :    0.067357

-------------------------------
LOEWDIN REDUCED ORBITAL CHARGES
-------------------------------
  0 C s       :     2.897546  s :     2.897546
      pz      :     1.077025  p :     3.146695
      px      :     1.014568
      py      :     1.055103
      dz2     :     0.020815  d :     0.081746
      dxz     :     0.014340
      dyz     :     0.008942
      dx2y2   :     0.022735
      dxy     :     0.014915

  1 C s       :     2.914625  s :     2.914625
      pz      :     1.089115  p :     3.222029
      px      :     1.042818
      py      :     1.090096
      dz2     :     0.014713  d :     0.064743
      dxz     :     0.013458
      dyz     :     0.007672
      dx2y2   :     0.016645
      dxy     :     0.012255

  2 C s       :     2.888333  s :     2.888333
      pz      :     1.022106  p :     3.074474
      px      :     0.994566
      py      :     1.057802
      dz2     :     0.024902  d :     0.098355
      dxz     :     0.019690
      dyz     :     0.015751
      dx2y2   :     0.020868
      dxy     :     0.017143

  3 H s       :     0.794617  s :     0.794617
      pz      :     0.022470  p :     0.078905
      px      :     0.041341
      py      :     0.015094

  4 H s       :     0.791734  s :     0.791734
      pz      :     0.015420  p :     0.079607
      px      :     0.020430
      py      :     0.043758

  5 C s       :     2.884308  s :     2.884308
      pz      :     0.950597  p :     3.031946
      px      :     1.047101
      py      :     1.034247
      dz2     :     0.033318  d :     0.129311
      dxz     :     0.031157
      dyz     :     0.028112
      dx2y2   :     0.016789
      dxy     :     0.019934

  6 H s       :     0.704994  s :     0.704994
      pz      :     0.039389  p :     0.115524
      px      :     0.036685
      py      :     0.039450

  7 C s       :     2.914376  s :     2.914376
      pz      :     1.041556  p :     3.220121
      px      :     1.092143
      py      :     1.086423
      dz2     :     0.016249  d :     0.064142
      dxz     :     0.012107
      dyz     :     0.014053
      dx2y2   :     0.010115
      dxy     :     0.011618

  8 C s       :     2.858617  s :     2.858617
      pz      :     0.862617  p :     2.742282
      px      :     0.860389
      py      :     1.019277
      dz2     :     0.032387  d :     0.297674
      dxz     :     0.021745
      dyz     :     0.091377
      dx2y2   :     0.059483
      dxy     :     0.092682

  9 H s       :     0.888938  s :     0.888938
      pz      :     0.014340  p :     0.040219
      px      :     0.011069
      py      :     0.014811

 10 N s       :     3.198492  s :     3.198492
      pz      :     1.309081  p :     3.981405
      px      :     1.356267
      py      :     1.316057
      dz2     :     0.018149  d :     0.057956
      dxz     :     0.011303
      dyz     :     0.007925
      dx2y2   :     0.016533
      dxy     :     0.004045

 11 O s       :     3.472733  s :     3.472733
      pz      :     1.494997  p :     4.615063
      px      :     1.491027
      py      :     1.629039
      dz2     :     0.004778  d :     0.051270
      dxz     :     0.011513
      dyz     :     0.014017
      dx2y2   :     0.006620
      dxy     :     0.014343

 12 H s       :     0.896110  s :     0.896110
      pz      :     0.022747  p :     0.039864
      px      :     0.008684
      py      :     0.008433

 13 O s       :     3.554306  s :     3.554306
      pz      :     1.575872  p :     4.615909
      px      :     1.578638
      py      :     1.461399
      dz2     :     0.007282  d :     0.057908
      dxz     :     0.000210
      dyz     :     0.014513
      dx2y2   :     0.021290
      dxy     :     0.014614

 14 H s       :     0.892813  s :     0.892813
      pz      :     0.006945  p :     0.039272
      px      :     0.009924
      py      :     0.022403

 15 H s       :     0.889014  s :     0.889014
      pz      :     0.007160  p :     0.039855
      px      :     0.011726
      py      :     0.020969

 16 H s       :     0.887781  s :     0.887781
      pz      :     0.009560  p :     0.040300
      px      :     0.023059
      py      :     0.007681

 17 H s       :     0.882601  s :     0.882601
      pz      :     0.005684  p :     0.039813
      px      :     0.010253
      py      :     0.023876

 18 H s       :     0.879403  s :     0.879403
      pz      :     0.025236  p :     0.042435
      px      :     0.008735
      py      :     0.008463

 19 H s       :     0.899016  s :     0.899016
      pz      :     0.007794  p :     0.039048
      px      :     0.008100
      py      :     0.023153

 20 H s       :     0.889681  s :     0.889681
      pz      :     0.014507  p :     0.039449
      px      :     0.011921
      py      :     0.013021

 21 H s       :     0.893246  s :     0.893246
      pz      :     0.007568  p :     0.039396
      px      :     0.008539
      py      :     0.023289



                      *****************************
                      * MAYER POPULATION ANALYSIS *
                      *****************************

  NA   - Mulliken gross atomic population
  ZA   - Total nuclear charge
  QA   - Mulliken gross atomic charge
  VA   - Mayer's total valence
  BVA  - Mayer's bonded valence
  FA   - Mayer's free valence

  ATOM       NA         ZA         QA         VA         BVA        FA
  0 C      6.1811     6.0000    -0.1811     3.8789     3.8789     0.0000
  1 C      6.3353     6.0000    -0.3353     3.9002     3.9002    -0.0000
  2 C      6.0659     6.0000    -0.0659     3.9116     3.9116     0.0000
  3 H      0.7580     1.0000     0.2420     0.9193     0.9193    -0.0000
  4 H      0.7504     1.0000     0.2496     0.9299     0.9299     0.0000
  5 C      6.0248     6.0000    -0.0248     3.8458     3.8458     0.0000
  6 H      0.6857     1.0000     0.3143     0.9204     0.9204    -0.0000
  7 C      6.3338     6.0000    -0.3338     3.8823     3.8823     0.0000
  8 C      5.5124     6.0000     0.4876     3.9469     3.9469    -0.0000
  9 H      0.8882     1.0000     0.1118     0.9588     0.9588    -0.0000
 10 N      7.5576     7.0000    -0.5576     2.9213     2.9213    -0.0000
 11 O      8.4553     8.0000    -0.4553     2.0375     2.0375    -0.0000
 12 H      0.8950     1.0000     0.1050     0.9561     0.9561    -0.0000
 13 O      8.4267     8.0000    -0.4267     2.1038     2.1038     0.0000
 14 H      0.9022     1.0000     0.0978     0.9585     0.9585     0.0000
 15 H      0.8873     1.0000     0.1127     0.9582     0.9582    -0.0000
 16 H      0.8892     1.0000     0.1108     0.9589     0.9589     0.0000
 17 H      0.8836     1.0000     0.1164     0.9554     0.9554    -0.0000
 18 H      0.8699     1.0000     0.1301     0.9654     0.9654     0.0000
 19 H      0.9114     1.0000     0.0886     0.9562     0.9562    -0.0000
 20 H      0.8933     1.0000     0.1067     0.9543     0.9543    -0.0000
 21 H      0.8930     1.0000     0.1070     0.9557     0.9557     0.0000

  Mayer bond orders larger than 0.100000
B(  0-C ,  1-C ) :   1.0128 B(  0-C ,  2-C ) :   0.9972 B(  0-C , 18-H ) :   0.9303 
B(  0-C , 19-H ) :   0.9483 B(  1-C , 12-H ) :   0.9594 B(  1-C , 20-H ) :   0.9615 
B(  1-C , 21-H ) :   0.9629 B(  2-C ,  5-C ) :   0.9692 B(  2-C ,  7-C ) :   1.0079 
B(  2-C , 14-H ) :   0.9298 B(  3-H , 10-N ) :   0.9085 B(  4-H , 10-N ) :   0.8952 
B(  5-C ,  8-C ) :   0.8939 B(  5-C , 10-N ) :   1.0351 B(  5-C , 17-H ) :   0.9217 
B(  6-H , 11-O ) :   0.8523 B(  7-C ,  9-H ) :   0.9511 B(  7-C , 15-H ) :   0.9560 
B(  7-C , 16-H ) :   0.9537 B(  8-C , 11-O ) :   1.0778 B(  8-C , 13-O ) :   1.9129 


-------
TIMINGS
-------

Total SCF time: 0 days 0 hours 0 min 7 sec 

Total time                  ....       7.564 sec
Sum of individual times     ....       7.084 sec  ( 93.7%)

SCF preparation             ....       0.029 sec  (  0.4%)
Fock matrix formation       ....       6.991 sec  ( 92.4%)
  Startup                   ....       0.001 sec  (  0.0% of F)
  Split-RI-J                ....       2.432 sec  ( 34.8% of F)
  XC integration            ....       4.962 sec  ( 71.0% of F)
    XC Preparation          ....       0.000 sec  (  0.0% of XC)
    Basis function eval.    ....       1.756 sec  ( 35.4% of XC)
    Density eval.           ....       1.107 sec  ( 22.3% of XC)
    XC-Functional eval.     ....       0.876 sec  ( 17.7% of XC)
    XC-Potential eval.      ....       1.085 sec  ( 21.9% of XC)
Diagonalization             ....       0.000 sec  (  0.0%)
Density matrix formation    ....       0.005 sec  (  0.1%)
Total Energy calculation    ....       0.001 sec  (  0.0%)
Population analysis         ....       0.003 sec  (  0.0%)
Orbital Transformation      ....       0.006 sec  (  0.1%)
Orbital Orthonormalization  ....       0.000 sec  (  0.0%)
DIIS solution               ....       0.028 sec  (  0.4%)
SOSCF solution              ....       0.021 sec  (  0.3%)
Finished LeanSCF after   7.6 sec

Maximum memory used throughout the entire LEANSCF-calculation: 21.6 MB



-------------------------------------------------------------------------------
                          DFT DISPERSION CORRECTION                            
-------------------------------------------------------------------------------
Active option DFTDOPT                   ...         2   
Final C6-coefficient scaling factor     ...     1.250
Final VDW-radii scaling factor          ...     1.100
Damping factor alpha                    ...    20.000
-------------------------   ----------------
Dispersion correction           -0.033894763
-------------------------   ----------------


-------------------------   --------------------
FINAL SINGLE POINT ENERGY      -441.405002302757
-------------------------   --------------------

------------------------------------------------------------------------------
                         ORCA SCF GRADIENT CALCULATION
------------------------------------------------------------------------------

Nuc. rep. gradient        (SHARK) ... done (  0.0 sec)
HCore & Overlap gradient  (SHARK) ... done (  0.1 sec)
Split-RIJ-J gradient      (SHARK) ... done (  0.6 sec)
XC gradient                       ... done (  2.8 sec)
Dispersion correction             ... done (  0.0 sec)

-------------------
DISPERSION GRADIENT
-------------------

   1   C   :   -0.001394249   -0.000673610   -0.000093773
   2   C   :    0.000032544    0.000446579   -0.000881772
   3   C   :    0.000401762    0.001437761    0.000400812
   4   H   :   -0.000014273   -0.000374692   -0.000742493
   5   H   :    0.000576198   -0.000354491   -0.001043084
   6   C   :    0.000117607   -0.001053479   -0.000474201
   7   H   :   -0.000012590   -0.000386042   -0.000131955
   8   C   :    0.000293735   -0.000589786    0.000140668
   9   C   :    0.000068788    0.000503535    0.000097034
  10   H   :   -0.001026771    0.001047677    0.000492267
  11   N   :   -0.000217461    0.000657261    0.000272725
  12   O   :    0.001021612   -0.000307349   -0.000138783
  13   H   :   -0.001229080   -0.000097714   -0.001407478
  14   O   :    0.001136274   -0.000173177    0.000598234
  15   H   :   -0.000253143   -0.000048009    0.000343055
  16   H   :   -0.000741564   -0.000386195    0.001381775
  17   H   :    0.001491072   -0.000055630    0.001187790
  18   H   :    0.000811749   -0.000434564   -0.000041053
  19   H   :    0.000512548    0.000367824    0.000282132
  20   H   :   -0.000411997    0.000032736   -0.000936966
  21   H   :   -0.000237713   -0.000630224    0.000712409
  22   H   :   -0.000925046    0.001071591   -0.000017342

Difference to translation invariance:
           :    0.0000000000    0.0000000000    0.0000000000

Difference to rotation invariance:
           :   -0.0000000000   -0.0000000000    0.0000000000

Norm of the Dispersion gradient    ...    0.0055950399
RMS gradient                       ...    0.0006887018
MAX gradient                       ...    0.0014910724

------------------
CARTESIAN GRADIENT
------------------

   1   C   :    0.003355190    0.003761558    0.000322747
   2   C   :   -0.002867131   -0.002726087    0.000335895
   3   C   :   -0.003462316   -0.007039954    0.001926048
   4   H   :   -0.003522619    0.001609009    0.001138903
   5   H   :   -0.001178511    0.004212918   -0.001571991
   6   C   :    0.000248401    0.003339568   -0.000219053
   7   H   :    0.001122808    0.006857803    0.000161661
   8   C   :    0.002786690    0.003519050    0.000499426
   9   C   :   -0.000881668   -0.008274218    0.005485147
  10   H   :   -0.003223966    0.003735408   -0.006025861
  11   N   :    0.002338810   -0.003334569    0.009607384
  12   O   :   -0.011656109   -0.025200437   -0.010550133
  13   H   :    0.003470749   -0.001597600   -0.008078281
  14   O   :    0.004238628    0.032519103   -0.000182188
  15   H   :    0.001187526    0.005643852    0.000188050
  16   H   :   -0.003920999   -0.007082163   -0.000452400
  17   H   :    0.007444115   -0.001685255   -0.003466555
  18   H   :   -0.000056659   -0.004320921    0.000256057
  19   H   :   -0.001025761   -0.000776592    0.005286688
  20   H   :   -0.003227003   -0.006967078   -0.000327159
  21   H   :    0.005718304   -0.004389948    0.004671142
  22   H   :    0.003111521    0.008196553    0.000994472

Difference to translation invariance:
           :   -0.0000000000    0.0000000000   -0.0000000000

Difference to rotation invariance:
           :   -0.0000100343    0.0001879843    0.0005128761

Norm of the Cartesian gradient     ...    0.0543987741
RMS gradient                       ...    0.0066960262
MAX gradient                       ...    0.0325191025

-------
TIMINGS
-------

Total SCF gradient time     ....        3.579 sec

Densities                   ....       0.000 sec  (  0.0%)
One electron gradient       ....       0.138 sec  (  3.9%)
RI-J Coulomb gradient       ....       0.639 sec  ( 17.8%)
XC gradient                 ....       2.802 sec  ( 78.3%)

Maximum memory used throughout the entire SCFGRAD-calculation: 27.8 MB
------------------------------------------------------------------------------
                         ORCA GEOMETRY RELAXATION STEP
------------------------------------------------------------------------------

Reading the OPT-File                    .... done
Getting information on internals        .... done
Copying old internal coords+grads       .... done
Making the new internal coordinates     .... (2022 redundants) done
Validating the new internal coordinates .... (2022 redundants) done
Calculating the B-matrix                .... done
Calculating the G,G- and P matrices     .... done
Transforming gradient to internals      .... done
Projecting the internal gradient        .... done
Number of atoms                         ....  22
Number of internal coordinates          ....  94
Current Energy                          ....  -441.405002303 Eh
Current gradient norm                   ....     0.054398774 Eh/bohr
Maximum allowed component of the step   ....  0.300
Current trust radius                    ....  0.300
Evaluating the initial hessian          ....  (Almloef) done
Projecting the Hessian                  .... done
Forming the augmented Hessian           .... done
Diagonalizing the augmented Hessian     .... done
Last element of RFO vector              ....  0.979511298
Lowest eigenvalues of augmented Hessian:
 -0.006589628  0.010084488  0.011033689  0.011114497  0.011465370
Length of the computed step             ....  0.205601733
The final length of the internal step   ....  0.205601733
Converting the step to Cartesian space:
 Initial RMS(Int)=    0.0212061995
Transforming coordinates:
 Iter   0:  RMS(Cart)=    0.0592824796 RMS(Int)=    0.6437050642
 Iter   5:  RMS(Cart)=    0.0000000071 RMS(Int)=    0.0000000067
done
Storing new coordinates                 .... done

                                .--------------------.
          ----------------------|Geometry convergence|-------------------------
          Item                value                   Tolerance       Converged
          ---------------------------------------------------------------------
          RMS gradient        0.0057215247            0.0001000000      NO
          MAX gradient        0.0325823692            0.0003000000      NO
          RMS step            0.0212061995            0.0020000000      NO
          MAX step            0.0722786672            0.0040000000      NO
          -------------------------------------------------------------------------
          ........................................................
          Max(Bonds)      0.0173      Max(Angles)    1.68
          Max(Dihed)        4.14      Max(Improp)    0.00
          ---------------------------------------------------------------------

The optimization has not yet converged - more geometry cycles are needed


    ---------------------------------------------------------------------------
                         Redundant Internal Coordinates
                            (Angstroem and degrees)

        Definition                    Value    dE/dq     Step     New-Value
    ----------------------------------------------------------------------------
     1. B(C   1,C   0)                1.5238 -0.009541  0.0130    1.5368   
     2. B(C   2,C   0)                1.5322 -0.009216  0.0129    1.5452   
     3. B(C   5,C   2)                1.5456 -0.010757  0.0158    1.5614   
     4. B(C   7,C   2)                1.5259 -0.009301  0.0128    1.5387   
     5. B(C   8,C   5)                1.5216 -0.010428  0.0141    1.5357   
     6. B(H   9,C   7)                1.0877 -0.007558  0.0108    1.0985   
     7. B(N  10,H   3)                1.0145 -0.003726  0.0046    1.0191   
     8. B(N  10,C   5)                1.4536 -0.009283  0.0109    1.4646   
     9. B(N  10,H   4)                1.0160 -0.003689  0.0045    1.0205   
    10. B(O  11,C   8)                1.3376 -0.022392  0.0173    1.3549   
    11. B(O  11,H   6)                0.9713 -0.003335  0.0035    0.9748   
    12. B(H  12,C   1)                1.0873 -0.008831  0.0126    1.0999   
    13. B(O  13,C   8)                1.2039 -0.032582  0.0155    1.2193   
    14. B(H  14,C   2)                1.0955 -0.005653  0.0083    1.1038   
    15. B(H  15,C   7)                1.0880 -0.008105  0.0116    1.0996   
    16. B(H  16,C   7)                1.0864 -0.008344  0.0119    1.0983   
    17. B(H  17,C   5)                1.0943 -0.003982  0.0058    1.1001   
    18. B(H  18,C   0)                1.0905 -0.005055  0.0073    1.0978   
    19. B(H  19,C   0)                1.0919 -0.007530  0.0109    1.1029   
    20. B(H  20,C   1)                1.0874 -0.008418  0.0120    1.0994   
    21. B(H  21,C   1)                1.0876 -0.008797  0.0126    1.1002   
    22. A(H  18,C   0,H  19)          108.05  0.001089   -0.45    107.60   
    23. A(C   1,C   0,C   2)          112.99  0.000337    0.05    113.04   
    24. A(C   1,C   0,H  19)          109.64 -0.000479   -0.08    109.57   
    25. A(C   2,C   0,H  18)          107.91 -0.001519    0.54    108.45   
    26. A(C   2,C   0,H  19)          109.00  0.000983   -0.39    108.61   
    27. A(C   1,C   0,H  18)          109.12 -0.000377    0.31    109.43   
    28. A(C   0,C   1,H  20)          110.07 -0.002200    0.41    110.48   
    29. A(H  20,C   1,H  21)          108.29  0.001001   -0.22    108.08   
    30. A(C   0,C   1,H  12)          111.47 -0.001172    0.23    111.70   
    31. A(H  12,C   1,H  20)          108.03  0.001454   -0.19    107.84   
    32. A(H  12,C   1,H  21)          108.39  0.001370   -0.29    108.10   
    33. A(C   0,C   1,H  21)          110.49 -0.000304    0.03    110.52   
    34. A(C   0,C   2,C   7)          111.84  0.004946   -0.75    111.10   
    35. A(C   0,C   2,C   5)          109.02 -0.005504    1.51    110.53   
    36. A(C   5,C   2,H  14)          107.24  0.002399   -0.74    106.50   
    37. A(C   0,C   2,H  14)          108.73 -0.000348   -0.18    108.55   
    38. A(C   5,C   2,C   7)          110.77 -0.001332    0.63    111.39   
    39. A(C   7,C   2,H  14)          109.11 -0.000229   -0.48    108.63   
    40. A(C   8,C   5,H  17)          108.64 -0.000849    0.03    108.67   
    41. A(C   2,C   5,H  17)          109.32  0.002298   -0.73    108.58   
    42. A(N  10,C   5,H  17)          108.92  0.000186   -0.21    108.70   
    43. A(C   2,C   5,C   8)          109.49  0.000208    0.15    109.64   
    44. A(C   8,C   5,N  10)          110.95  0.002048   -0.19    110.76   
    45. A(C   2,C   5,N  10)          109.50 -0.003833    0.94    110.44   
    46. A(C   2,C   7,H   9)          111.10 -0.002979    0.53    111.63   
    47. A(H  15,C   7,H  16)          108.60  0.001161   -0.22    108.37   
    48. A(H   9,C   7,H  16)          107.89  0.000659   -0.12    107.77   
    49. A(C   2,C   7,H  16)          110.28 -0.000648    0.11    110.39   
    50. A(H   9,C   7,H  15)          108.41  0.001037   -0.17    108.24   
    51. A(C   2,C   7,H  15)          110.48  0.000876   -0.14    110.34   
    52. A(C   5,C   8,O  13)          124.43  0.002234   -0.22    124.21   
    53. A(C   5,C   8,O  11)          112.93  0.002506   -0.27    112.66   
    54. A(O  11,C   8,O  13)          122.61 -0.004801    0.63    123.24   
    55. A(H   3,N  10,H   4)          107.46  0.000910   -0.73    106.73   
    56. A(H   4,N  10,C   5)          109.07  0.002505   -0.67    108.41   
    57. A(H   3,N  10,C   5)          110.47 -0.000015   -0.24    110.23   
    58. A(H   6,O  11,C   8)          110.68  0.011165   -1.68    109.00   
    59. D(H  20,C   1,C   0,H  19)     60.70 -0.000158   -0.33     60.37   
    60. D(H  12,C   1,C   0,H  18)   -177.31 -0.000582   -0.12   -177.43   
    61. D(H  12,C   1,C   0,H  19)    -59.15  0.000235   -0.52    -59.67   
    62. D(H  12,C   1,C   0,C   2)     62.64  0.001381   -1.04     61.60   
    63. D(H  20,C   1,C   0,H  18)    -57.46 -0.000975    0.07    -57.39   
    64. D(H  20,C   1,C   0,C   2)   -177.51  0.000988   -0.85   -178.36   
    65. D(C   5,C   2,C   0,C   1)    161.98  0.000022    1.50    163.48   
    66. D(C   7,C   2,C   0,H  19)     46.97 -0.001888    2.51     49.47   
    67. D(C   7,C   2,C   0,H  18)    164.08 -0.000904    2.07    166.14   
    68. D(C   7,C   2,C   0,C   1)    -75.19 -0.002209    2.85    -72.34   
    69. D(C   5,C   2,C   0,H  18)     41.24  0.001326    0.72     41.96   
    70. D(C   5,C   2,C   0,H  19)    -75.87  0.000342    1.16    -74.71   
    71. D(C   8,C   5,C   2,H  14)    -64.59 -0.000448   -1.58    -66.17   
    72. D(C   8,C   5,C   2,C   7)     54.38 -0.000025   -2.26     52.12   
    73. D(C   8,C   5,C   2,C   0)    177.86  0.001560   -1.76    176.10   
    74. D(N  10,C   5,C   2,H  14)     57.26 -0.000222   -1.13     56.14   
    75. D(N  10,C   5,C   2,C   7)    176.23  0.000201   -1.80    174.42   
    76. D(N  10,C   5,C   2,C   0)    -60.29  0.001786   -1.30    -61.59   
    77. D(H  15,C   7,C   2,H  14)    172.76 -0.000225    0.09    172.85   
    78. D(H  15,C   7,C   2,C   5)     54.93 -0.002229    0.92     55.85   
    79. D(H  15,C   7,C   2,C   0)    -66.91  0.002332   -0.93    -67.84   
    80. D(H   9,C   7,C   2,H  14)     52.39 -0.000150    0.06     52.45   
    81. D(H   9,C   7,C   2,C   5)    -65.44 -0.002154    0.89    -64.55   
    82. D(H   9,C   7,C   2,C   0)    172.72  0.002407   -0.97    171.76   
    83. D(O  13,C   8,C   5,N  10)    -41.63  0.003085   -4.14    -45.77   
    84. D(O  13,C   8,C   5,C   2)     79.35 -0.000249   -2.99     76.36   
    85. D(O  11,C   8,C   5,H  17)     16.83 -0.000063    0.96     17.79   
    86. D(O  11,C   8,C   5,N  10)    136.53  0.000871    0.60    137.13   
    87. D(O  11,C   8,C   5,C   2)   -102.49 -0.002463    1.74   -100.75   
    88. D(H   3,N  10,C   5,C   8)    -62.45 -0.001092   -0.09    -62.55   
    89. D(H   3,N  10,C   5,C   2)    176.57 -0.000142   -0.77    175.80   
    90. D(H   4,N  10,C   5,C   8)     55.45  0.001526   -1.53     53.92   
[...]
      pz      :     1.487335  p :     4.594931
      px      :     1.516890
      py      :     1.590705
      dz2     :     0.002062  d :     0.023268
      dxz     :     0.002530
      dyz     :     0.007659
      dx2y2   :     0.003867
      dxy     :     0.007149

 12 H s       :     0.883346  s :     0.883346
      pz      :     0.005848  p :     0.011363
      px      :     0.002632
      py      :     0.002883

 13 O s       :     3.874020  s :     3.874020
      pz      :     1.594787  p :     4.531327
      px      :     1.593512
      py      :     1.343029
      dz2     :     0.002618  d :     0.027260
      dxz     :     0.000155
      dyz     :     0.008483
      dx2y2   :     0.007401
      dxy     :     0.008602

 14 H s       :     0.889857  s :     0.889857
      pz      :     0.002489  p :     0.011353
      px      :     0.002994
      py      :     0.005870

 15 H s       :     0.878097  s :     0.878097
      pz      :     0.002392  p :     0.011254
      px      :     0.003345
      py      :     0.005517

 16 H s       :     0.876951  s :     0.876951
      pz      :     0.002893  p :     0.011501
      px      :     0.005990
      py      :     0.002618

 17 H s       :     0.871966  s :     0.871966
      pz      :     0.001767  p :     0.010792
      px      :     0.003032
      py      :     0.005993

 18 H s       :     0.858200  s :     0.858200
      pz      :     0.006253  p :     0.011918
      px      :     0.002821
      py      :     0.002844

 19 H s       :     0.900550  s :     0.900550
      pz      :     0.002566  p :     0.011300
      px      :     0.002762
      py      :     0.005973

 20 H s       :     0.882076  s :     0.882076
      pz      :     0.004020  p :     0.011271
      px      :     0.003467
      py      :     0.003783

 21 H s       :     0.881519  s :     0.881519
      pz      :     0.002596  p :     0.011223
      px      :     0.002808
      py      :     0.005819



                     *******************************
                     * LOEWDIN POPULATION ANALYSIS *
                     *******************************

----------------------
LOEWDIN ATOMIC CHARGES
----------------------
   0 C :   -0.125493
   1 C :   -0.203825
   2 C :   -0.060394
   3 H :    0.128159
   4 H :    0.130177
   5 C :   -0.043594
   6 H :    0.181943
   7 C :   -0.202022
   8 C :    0.125046
   9 H :    0.071320
  10 N :   -0.246715
  11 O :   -0.156566
  12 H :    0.065282
  13 O :   -0.236620
  14 H :    0.068770
  15 H :    0.071207
  16 H :    0.073316
  17 H :    0.078025
  18 H :    0.079170
  19 H :    0.062195
  20 H :    0.071861
  21 H :    0.068756

-------------------------------
LOEWDIN REDUCED ORBITAL CHARGES
-------------------------------
  0 C s       :     2.907422  s :     2.907422
      pz      :     1.073791  p :     3.139348
      px      :     1.011429
      py      :     1.054128
      dz2     :     0.020480  d :     0.078722
      dxz     :     0.013419
      dyz     :     0.008500
      dx2y2   :     0.021151
      dxy     :     0.015171

  1 C s       :     2.925913  s :     2.925913
      pz      :     1.087262  p :     3.215685
      px      :     1.038772
      py      :     1.089651
      dz2     :     0.014695  d :     0.062227
      dxz     :     0.012227
      dyz     :     0.007460
      dx2y2   :     0.015322
      dxy     :     0.012524

  2 C s       :     2.899060  s :     2.899060
      pz      :     1.018536  p :     3.066982
      px      :     0.991161
      py      :     1.057285
      dz2     :     0.024259  d :     0.094352
      dxz     :     0.018649
      dyz     :     0.014747
      dx2y2   :     0.020462
      dxy     :     0.016234

  3 H s       :     0.794611  s :     0.794611
      pz      :     0.021571  p :     0.077231
      px      :     0.041718
      py      :     0.013942

  4 H s       :     0.791778  s :     0.791778
      pz      :     0.015358  p :     0.078044
      px      :     0.018312
      py      :     0.044375

  5 C s       :     2.895099  s :     2.895099
      pz      :     0.946913  p :     3.025234
      px      :     1.044801
      py      :     1.033519
      dz2     :     0.031202  d :     0.123261
      dxz     :     0.030556
      dyz     :     0.026078
      dx2y2   :     0.016801
      dxy     :     0.018625

  6 H s       :     0.704412  s :     0.704412
      pz      :     0.038381  p :     0.113645
      px      :     0.033749
      py      :     0.041515

  7 C s       :     2.925481  s :     2.925481
      pz      :     1.037857  p :     3.214789
      px      :     1.091318
      py      :     1.085613
      dz2     :     0.016073  d :     0.061752
      dxz     :     0.011725
      dyz     :     0.013040
      dx2y2   :     0.010744
      dxy     :     0.010169

  8 C s       :     2.874247  s :     2.874247
      pz      :     0.863581  p :     2.723314
      px      :     0.854141
      py      :     1.005592
      dz2     :     0.029979  d :     0.277394
      dxz     :     0.019465
      dyz     :     0.086534
      dx2y2   :     0.055649
      dxy     :     0.085766

  9 H s       :     0.889718  s :     0.889718
      pz      :     0.013986  p :     0.038962
      px      :     0.011041
      py      :     0.013935

 10 N s       :     3.222831  s :     3.222831
      pz      :     1.308838  p :     3.967036
      px      :     1.382544
      py      :     1.275653
      dz2     :     0.017624  d :     0.056849
      dxz     :     0.010051
      dyz     :     0.008470
      dx2y2   :     0.018719
      dxy     :     0.001985

 11 O s       :     3.499436  s :     3.499436
      pz      :     1.489352  p :     4.608262
      px      :     1.513450
      py      :     1.605460
      dz2     :     0.004285  d :     0.048868
      dxz     :     0.010045
      dyz     :     0.014552
      dx2y2   :     0.006272
      dxy     :     0.013714

 12 H s       :     0.896178  s :     0.896178
      pz      :     0.022540  p :     0.038540
      px      :     0.007746
      py      :     0.008254

 13 O s       :     3.569224  s :     3.569224
      pz      :     1.582733  p :     4.611855
      px      :     1.576154
      py      :     1.452968
      dz2     :     0.007071  d :     0.055541
      dxz     :     0.000226
      dyz     :     0.013793
      dx2y2   :     0.020687
      dxy     :     0.013765

 14 H s       :     0.892981  s :     0.892981
      pz      :     0.006588  p :     0.038249
      px      :     0.009453
      py      :     0.022208

 15 H s       :     0.890411  s :     0.890411
      pz      :     0.006720  p :     0.038382
      px      :     0.010593
      py      :     0.021069

 16 H s       :     0.887556  s :     0.887556
      pz      :     0.008993  p :     0.039128
      px      :     0.023013
      py      :     0.007122

 17 H s       :     0.882768  s :     0.882768
      pz      :     0.005583  p :     0.039206
      px      :     0.009739
      py      :     0.023884

 18 H s       :     0.880051  s :     0.880051
      pz      :     0.024823  p :     0.040779
      px      :     0.007699
      py      :     0.008257

 19 H s       :     0.900185  s :     0.900185
      pz      :     0.007187  p :     0.037620
      px      :     0.008024
      py      :     0.022408

 20 H s       :     0.890087  s :     0.890087
      pz      :     0.013724  p :     0.038051
      px      :     0.011675
      py      :     0.012653

 21 H s       :     0.893341  s :     0.893341
      pz      :     0.006975  p :     0.037903
      px      :     0.008448
      py      :     0.022479



                      *****************************
                      * MAYER POPULATION ANALYSIS *
                      *****************************

  NA   - Mulliken gross atomic population
  ZA   - Total nuclear charge
  QA   - Mulliken gross atomic charge
  VA   - Mayer's total valence
  BVA  - Mayer's bonded valence
  FA   - Mayer's free valence

  ATOM       NA         ZA         QA         VA         BVA        FA
  0 C      6.1802     6.0000    -0.1802     3.8771     3.8771    -0.0000
  1 C      6.3344     6.0000    -0.3344     3.8947     3.8947    -0.0000
  2 C      6.0592     6.0000    -0.0592     3.8963     3.8963     0.0000
  3 H      0.7584     1.0000     0.2416     0.9176     0.9176    -0.0000
  4 H      0.7503     1.0000     0.2497     0.9303     0.9303     0.0000
  5 C      6.0305     6.0000    -0.0305     3.8447     3.8447     0.0000
  6 H      0.6837     1.0000     0.3163     0.9195     0.9195     0.0000
  7 C      6.3340     6.0000    -0.3340     3.8764     3.8764    -0.0000
  8 C      5.5044     6.0000     0.4956     3.9119     3.9119    -0.0000
  9 H      0.8890     1.0000     0.1110     0.9598     0.9598    -0.0000
 10 N      7.5561     7.0000    -0.5561     2.9087     2.9087     0.0000
 11 O      8.4626     8.0000    -0.4626     2.0333     2.0333     0.0000
 12 H      0.8947     1.0000     0.1053     0.9571     0.9571    -0.0000
 13 O      8.4326     8.0000    -0.4326     2.0932     2.0932     0.0000
 14 H      0.9012     1.0000     0.0988     0.9577     0.9577     0.0000
 15 H      0.8894     1.0000     0.1106     0.9582     0.9582     0.0000
 16 H      0.8885     1.0000     0.1115     0.9598     0.9598    -0.0000
 17 H      0.8828     1.0000     0.1172     0.9550     0.9550     0.0000
 18 H      0.8701     1.0000     0.1299     0.9632     0.9632    -0.0000
 19 H      0.9119     1.0000     0.0881     0.9566     0.9566    -0.0000
 20 H      0.8933     1.0000     0.1067     0.9551     0.9551    -0.0000
 21 H      0.8927     1.0000     0.1073     0.9559     0.9559     0.0000

  Mayer bond orders larger than 0.100000
B(  0-C ,  1-C ) :   1.0089 B(  0-C ,  2-C ) :   0.9935 B(  0-C , 18-H ) :   0.9328 
B(  0-C , 19-H ) :   0.9471 B(  1-C , 12-H ) :   0.9575 B(  1-C , 20-H ) :   0.9602 
B(  1-C , 21-H ) :   0.9617 B(  2-C ,  5-C ) :   0.9624 B(  2-C ,  7-C ) :   1.0023 
B(  2-C , 14-H ) :   0.9292 B(  3-H , 10-N ) :   0.9071 B(  4-H , 10-N ) :   0.8930 
B(  5-C ,  8-C ) :   0.8974 B(  5-C , 10-N ) :   1.0295 B(  5-C , 17-H ) :   0.9224 
B(  6-H , 11-O ) :   0.8527 B(  7-C ,  9-H ) :   0.9505 B(  7-C , 15-H ) :   0.9556 
B(  7-C , 16-H ) :   0.9519 B(  8-C , 11-O ) :   1.0634 B(  8-C , 13-O ) :   1.8866 


-------
TIMINGS
-------

Total SCF time: 0 days 0 hours 0 min 3 sec 

Total time                  ....       3.421 sec
Sum of individual times     ....       2.943 sec  ( 86.0%)

SCF preparation             ....       0.030 sec  (  0.9%)
Fock matrix formation       ....       2.879 sec  ( 84.2%)
  Startup                   ....       0.001 sec  (  0.0% of F)
  Split-RI-J                ....       1.068 sec  ( 37.1% of F)
  XC integration            ....       2.222 sec  ( 77.2% of F)
    Basis function eval.    ....       0.813 sec  ( 36.6% of XC)
    Density eval.           ....       0.502 sec  ( 22.6% of XC)
    XC-Functional eval.     ....       0.409 sec  ( 18.4% of XC)
    XC-Potential eval.      ....       0.440 sec  ( 19.8% of XC)
Diagonalization             ....       0.000 sec  (  0.0%)
Density matrix formation    ....       0.002 sec  (  0.1%)
Total Energy calculation    ....       0.000 sec  (  0.0%)
Population analysis         ....       0.010 sec  (  0.3%)
Orbital Transformation      ....       0.003 sec  (  0.1%)
Orbital Orthonormalization  ....       0.000 sec  (  0.0%)
DIIS solution               ....       0.004 sec  (  0.1%)
SOSCF solution              ....       0.014 sec  (  0.4%)
Finished LeanSCF after   3.4 sec

Maximum memory used throughout the entire LEANSCF-calculation: 21.9 MB



-------------------------------------------------------------------------------
                          DFT DISPERSION CORRECTION                            
-------------------------------------------------------------------------------
Active option DFTDOPT                   ...         2   
Final C6-coefficient scaling factor     ...     1.250
Final VDW-radii scaling factor          ...     1.100
Damping factor alpha                    ...    20.000
-------------------------   ----------------
Dispersion correction           -0.033623522
-------------------------   ----------------


-------------------------   --------------------
FINAL SINGLE POINT ENERGY      -441.409148739595
-------------------------   --------------------

                                *** OPTIMIZATION RUN DONE ***


------------------------------------------------------------------------------
                              ORCA PROPERTY CALCULATIONS
------------------------------------------------------------------------------

GBWName                                 ... 1.gbw
Number of atoms                         ...     22
Number of basis functions               ...    191
Max core memory                         ...   4096 MB

Electric properties:
Dipole moment                           ... YES
Quadrupole moment                       ...  NO
Static polarizability (Dipole/Dipole)   ...  NO
Static polarizability (Dipole/Quad.)    ...  NO
Static polarizability (Quad./Quad.)     ...  NO
Static polarizability (Velocity)        ...  NO
Static hyperpolarizability              ...  NO

Atomic electric properties:
Dipole moment                           ...  NO
Quadrupole moment                       ...  NO
Static polarizability                   ...  NO

Choice of electric origin               ... Center of mass
Position of electric origin             ...   -14.165896     7.808766    -0.204870

General magnetic properties:
Magnetizability                         ...  NO

EPR properties:
g-Tensor (aka g-matrix)                 ...  NO
Zero-Field splitting spin-orbit         ...  NO
Zero-field splitting spin-spin          ...  NO
Hyperfine couplings                     ...  NO (   0 nuclei)
Quadrupole couplings                    ...  NO (   0 nuclei)
Contact density                         ...  NO (   0 nuclei)

NMR properties:
Chemical shifts                         ...  NO (   0 nuclei)
Spin-rotation constants                 ...  NO (   0 nuclei)
Spin-spin couplings                     ...  NO (   0 nuclei,    0 pairs)

Choice of magnetic origin               ... GIAO
Position of magnetic origin             ...     0.000000     0.000000     0.000000

Properties with geometric perturbations:
SCF Hessian                             ...  NO
IR spectrum                             ...  NO
VCD spectrum                            ...  NO
X-ray spectroscopy properties:
SCF XES/XAS/RIXS spectra                ...  NO

SCF SOC stabilization energy            ...  NO
Diagonal Born-Oppenheimer correction    ...  NO

-------------
DIPOLE MOMENT
-------------

Method             : SCF
Type of density    : Electron Density
Multiplicity       :   1
Irrep              :   0
Energy             :  -441.3755252180773141 Eh
Basis              : AO
                                X                 Y                 Z
Electronic contribution:     11.513462358      -5.810454802       1.418439213
Nuclear contribution   :    -11.155069538       6.079651317      -1.194970451
                        -----------------------------------------
Total Dipole Moment    :      0.358392819       0.269196516       0.223468763
                        -----------------------------------------
Magnitude (a.u.)       :      0.500849743
Magnitude (Debye)      :      1.273058875



--------------------
Rotational spectrum 
--------------------
 
Rotational constants in cm-1:             0.088261             0.032262             0.027570 
Rotational constants in MHz :          2646.001428           967.189534           826.533697 

Dipole components along the rotational axes: 
x,y,z [a.u.] :    -0.262638     0.261240    -0.337084 
x,y,z [Debye]:    -0.667573     0.664019    -0.856799 

 

Dipole moment calculation done in   0.0 sec 

Maximum memory used throughout the entire PROP-calculation: 12.3 MB

--------------------------------
SUGGESTED CITATIONS FOR THIS RUN
--------------------------------

Below you find a list of papers that are relevant to this ORCA run
We neither can nor want to force you to cite these papers, but we appreciate if you do
You receive ORCA, which is the product of decades of hard work by many enthusiastic individuals, for free
The only thing we kindly ask in return is that you cite our papers,
We deeply appreciate it, if you show your appreciation for ORCA by not just citing the generic ORCA reference.

Please note that relegating all ORCA citations to the supporting information does *not* help us.
SI sections are not indexed - citations you put there will not count into any citation statistics
But we need these citations in order to attract the funding resources that allow us to do what we are doing

Therefore, if you are a happy ORCA user, please consider citing a few of the papers listed below in the main body of your paper

In addition to the list printed below, the program has created the file 1.bibtex that contains the list in bibtex format
You can import this file easily into all common literature databanks and citation aid programs


List of essential papers. We consider these as the minimum necessary citations

  1. Neese, F.
     Software update: the ORCA program system, version 6.0
     WIRES Comput. Molec. Sci. 2025 15(1), e70019
     doi.org/10.1002/wcms.7019

List of papers to cite with high priority. The work reported in these papers was absolutely
necessary for this run to complete.
Our perspective: the developers of density functionals and basis sets usually get cited in chemistry papers
Good! But without the algorithms to do something with them, the functionals or basis sets would not do anything.
Hence, in our opinion, the algorithm design and method developments papers are equally worthy of getting cited

  1. Neese, F.
     An improvement of the resolution of the identity approximation for the formation of the Coulomb matrix
     J. Comp. Chem. 2003 24(14), 1740-1747
     doi.org/10.1002/jcc.10318
  2. Grimme, S.
     Semiempirical GGA-type density functional constructed with a long-range dispersion correction
     J.Comput.Chem. 2006 27(15), 1787-1799
     doi.org/10.1002/jcc.20495
  3. Neese, F.
     The SHARK Integral Generation and Digestion System
     J. Comp. Chem. 2022 44(3), 381
     doi.org/10.1002/jcc.26942

List of suggested additional citations. These are papers that are important in the 'surrounding' of 
of this run, or papers that preceded the highly important papers. If you like your results we are grateful for a citation.

  1. Neese, F.
     The ORCA program system
     WIRES Comput. Molec. Sci. 2012 2(1), 73-78
     doi.org/10.1002/wcms.81
  2. Neese, F.
     Software update: the ORCA program system, version 4.0
     WIRES Comput. Molec. Sci. 2018 8(1), 1-6
     doi.org/10.1002/wcms.1327
  3. Neese, F.; Wennmohs, F.; Becker, U.; Riplinger, C.
     The ORCA quantum chemistry program package
     J. Chem. Phys. 2020 152(22), 224108
     doi.org/10.1063/5.0004608
  4. Neese, F.
     Software update: The ORCA program system—Version 5.0
     WIRES Comput. Molec. Sci. 2022 12(1), e1606
     doi.org/10.1002/wcms.1606

List of optional additional citations

  1. Neese, F.
     Approximate second-order SCF convergence for spin unrestricted wavefunctions
     Chem. Phys. Lett. 2000 325(1-3), 93-98
     doi.org/10.1016/s0009-2614(00)00662-x

Timings for individual modules:

Sum of individual times          ...       72.804 sec (=   1.213 min)
Startup calculation              ...        3.736 sec (=   0.062 min)   5.1 %
SCF iterations                   ...       43.709 sec (=   0.728 min)  60.0 %
Property calculations            ...        0.036 sec (=   0.001 min)   0.0 %
SCF Gradient evaluation          ...       25.310 sec (=   0.422 min)  34.8 %
Geometry relaxation              ...        0.014 sec (=   0.000 min)   0.0 %
                             ****ORCA TERMINATED NORMALLY****
TOTAL RUN TIME: 0 days 0 hours 1 minutes 13 seconds 11 msec
