
                                 *****************
                                 * O   R   C   A *
                                 *****************

                                            #,                                       
                                            ###                                      
                                            ####                                     
                                            #####                                    
                                            ######                                   
                                           ########,                                 
                                     ,,################,,,,,                         
                               ,,#################################,,                 
                          ,,##########################################,,             
                       ,#########################################, ''#####,          
                    ,#############################################,,   '####,        
                  ,##################################################,,,,####,       
                ,###########''''           ''''###############################       
              ,#####''   ,,,,##########,,,,          '''####'''          '####       
            ,##' ,,,,###########################,,,                        '##       
           ' ,,###''''                  '''############,,,                           
         ,,##''                                '''############,,,,        ,,,,,,###''
      ,#''                                            '''#######################'''  
     '                                                          ''''####''''         
             ,#######,   #######,   ,#######,      ##                                
            ,#'     '#,  ##    ##  ,#'     '#,    #''#        ,####,    ,#,          
            ##       ##  ##   ,#'  ##            #'  '#       #'       ,# #          
            ##       ##  #######   ##           ,######,      #####,      #          
            '#,     ,#'  ##    ##  '#,     ,#' ,#      #,     #,   #      #          
             '#######'   ##     ##  '#######'  #'      '#     '####' #    #          



                #########################################################
                #                        -***-                          #
                #          Department of theory and spectroscopy        #
                #                                                       #
                #                      Frank Neese                      #
                #                                                       #
                #     Directorship, Architecture, Infrastructure        #
                #                    SHARK, DRIVERS                     #
                #        Core code/Algorithms in most modules           #
                #                                                       #
                #        Max Planck Institute fuer Kohlenforschung      #
                #                Kaiser Wilhelm Platz 1                 #
                #                 D-45470 Muelheim/Ruhr                 #
                #                      Germany                          #
                #                                                       #
                #                  All rights reserved                  #
                #                        -***-                          #
                #########################################################


                         Program Version 6.1.0  -  RELEASE   -
                                (GIT: $679e74b$)
                          ($2025-06-10 18:02:51 +0200$)


 With contributions from (in alphabetic order):
[Max-Planck-Institut fuer Kohlenforschung]                               
  Daniel Aravena         : Magnetic Suceptibility                        
  Michael Atanasov       : Ab Initio Ligand Field Theory (pilot matlab implementation)
  Alexander A. Auer      : GIAO ZORA, VPT2 properties, NMR spectrum      
  Ute Becker             : All parallelization in ORCA, NUMFREQ, NUMCALC 
  Giovanni Bistoni       : ED, misc. LED, open-shell LED, HFLD           
  Dmytro Bykov           : pre 5.0 version of the SCF Hessian            
  Marcos Casanova-Páez   : Triplet and SCS-CIS(D). UHF-(DLPNO)-IP/EA/STEOM-CCSD. UHF-CVS-IP/STEOM-CCSD   
  Vijay G. Chilkuri      : MRCI spin determinant printing, contributions to CSF-ICE 
  Pauline Colinet        : FMM embedding                                 
  Dipayan Datta          : RHF DLPNO-CCSD density                        
  Achintya Kumar Dutta   : EOM-CC, STEOM-CC                              
  Nicolas Foglia         : Exact transition moments, OPA infrastructure, MCD improvements    
  Dmitry Ganyushin       : Spin-Orbit,Spin-Spin,Magnetic field MRCI      
  Miquel Garcia-Rates    : C-PCM and meta-GGA Hessian, CCSD/C-PCM, Gaussian charge scheme 
  Tiago L. C. Gouveia    : GS-ROHF, GS-ROCIS                             
  Yang Guo               : DLPNO-NEVPT2, F12-NEVPT2, CIM, IAO-localization        
  Andreas Hansen         : Spin unrestricted coupled pair/coupled cluster methods 
  Ingolf Harden          : AUTO-CI MPn and infrastructure                
  Benjamin Helmich-Paris : MC-RPA, TRAH-(SCF,CASSCF), AVAS, COSX integrals, SCF dyn. polar., MC-PDFT, srDFT 
  Lee Huntington         : MR-EOM, pCC                                   
  Robert Izsak           : Overlap fitted RIJCOSX, COSX-SCS-MP3, EOM     
  Riya Kayal             : Wick's Theorem for AUTO-CI, AUTO-CI UHF-CCSDT 
  Emily Kempfer          : AUTO-CI RHF CISDT and CCSDT, approximate NEVPT4
  Christian Kollmar      : KDIIS, OOCD, Brueckner-CCSD(T), CCSD density, CASPT2, CASPT2-K, improved NEVPT2 
  Axel Koslowski         : Symmetry handling                             
  Simone Kossmann        : meta-GGA functionals, TD-DFT gradient, OOMP2, (MP2 Hessian; deprecated post 5.0) 
  Lucas Lang             : DCDCAS, Hyperfine gauge corrections, ICE-SOC+SSC
  Marvin Lechner         : AUTO-CI (C++ implementation), FIC-MRCC        
  Spencer Leger          : CASSCF response                               
  Dagmar Lenk            : GEPOL surface, SMD, ORCA-2-JSON               
  Dimitrios Liakos       : Extrapolation schemes; Compound Job, Property file
  Dimitrios Manganas     : Further ROCIS development; embedding schemes. LFT, Crystal Embedding 
  Dimitrios Pantazis     : SARC Basis sets                               
  Anastasios Papadopoulos: AUTO-CI, single reference methods and gradients 
  Taras Petrenko         : pre 6.0 DFT Hessian and TD-DFT gradient,  ECA, NRVS 
  Petra Pikulova         : Analytic Raman intensities                    
  Peter Pinski           : DLPNO-MP2, DLPNO-MP2 Gradient                 
  Shashank Vittal Rao    : ES-AILFT, MagRelax                            
  Christoph Reimann      : Effective Core Potentials                     
  Marius Retegan         : Local ZFS, SOC                                
  Christoph Riplinger    : Optimizer, TS searches, QM/MM, DLPNO-CCSD(T), (RO)-DLPNO pert. Triples 
  Michael Roemelt        : Original ROCIS implementation, recursive CI coupling coefficients
  Masaaki Saitow         : Open-shell DLPNO-CCSD energy and density      
  Barbara Sandhoefer     : DKH picture change effects                    
  Yorick L. A. Schmerwitz: GMF and freeze-and-release deltaSCF, NEB S-IDPP initial path                    
  Kantharuban Sivalingam : CASSCF convergence/infrastructure, NEVPT2, NEVPT3, NEVPT4(SD), FIC-MRCI and CEPA variants
  Bernardo de Souza      : ESD, SOC TD-DFT                               
  Georgi L. Stoychev     : AutoAux, RI-MP2 NMR, DLPNO-MP2 response, X2C  
  Van Anh Tran           : RI-MP2 g-tensors                              
  Willem Van den Heuvel  : Paramagnetic NMR                              
  Zikuan Wang            : NOTCH, Electric field optimization            
  Frank Wennmohs         : Technical directorship and infrastructure     
  Hang Xu                : AUTO-CI-Response properties                   
                                                                         
[FACCTs GmbH]                                                            
  Markus Bursch, Nicolas Foglia, Miquel Garcia-Rates, Ingolf Harden, Hagen Neugebauer, Anastasios Papadopoulos, 
  Christoph Riplinger, Bernardo de Souza, Georgi L. Stoychev                                                    
                                                                 
  APM, various basis sets, CI-OPT, improved COSX, DLPNO-Multilevel,           
  DOCKER, DRACO, updates on ESD, Fragmentator, GOAT, IRC, LR-CPCM, L-BFGS, MBIS, meta-GGA TD-DFT gradient, ML-optimized integration grids, 
  MM, NACMEs, nearIR, NEB, NEB-TS, NL-DFT gradient (VV10), 2- and 3-layer-ONIOM, interface openCOSMO-RS, QMMM,   
  Crystal-QMMM, RESP, rigid body optimization, SF, symmetry and pop. for TD-DFT, various functionals, SOLVATOR                                   
                                                                         
[Other institutions]                                                     
  V. Asgeirsson          : NEB                                           
  Christoph Bannwarth    : sTDA-DFT, sTD-DFT, PBEh-3c, B97-3c, D3        
  Giovanni Bistoni       : ETS/NOCV, ADLD/ADEX, COVALED                  
  Martin Brehm           : Molecular dynamics                            
  Ronald Cardenas        : ETS/NOCV                                      
  Martina Colucci        : COVALED                                       
  Sebastian Ehlert       : rSCAN, r2SCAN, r2SCAN-3c, D4, dhf basis sets  
  Marvin Friede          : D4 for Fr, Ra, Ac-Lr                          
  Lars Goerigk           : TD-DFT with DH, B97 family of functionals     
  Stefan Grimme          : VdW corrections, initial TS optimization, DFT functionals, gCP, sTDA/sTD-DF 
  Waldemar Hujo          : DFT-NL                                        
  H. Jonsson             : NEB                                           
  Holger Kruse           : gCP                                           
  Marcel Mueller         : wB97X-3c, vDZP basis set                      
  Hagen Neugebauer       : wr2SCAN, Native XTB                           
  Gianluca Regni         : ADLD/ADEX                                     
  Tobias Risthaus        : pre 6.0 range-separated hybrid DFT and stability analysis
  Lukas Wittmann         : regularized MP2, r2SCAN double-hybrids, wr2SCAN        
                                                                         
We gratefully acknowledge several colleagues who have allowed us to      
interface, adapt or use parts of their codes:                            
  Ed Valeev, F. Pavosevic, A. Kumar             : LibInt (2-el integral package), F12 methods 
  Garnet Chan, S. Sharma, J. Yang, R. Olivares  : DMRG                   
  Ulf Ekstrom                                   : XCFun DFT Library      
  Mihaly Kallay                                 : mrcc  (arbitrary order and MRCC methods)
  Frank Weinhold                                : gennbo (NPA and NBO analysis)           
  Simon Mueller                                 : openCOSMO-RS                            
  Christopher J. Cramer and Donald G. Truhlar   : smd solvation model                     
  S Lehtola, MJT Oliveira, MAL Marques          : LibXC Library                           
  Liviu Ungur et al                             : ANISO software                          


 Your calculation uses the libint2 library for the computation of 2-el integrals
 For citations please refer to: http://libint.valeyev.net

 Your ORCA version has been built with support for libXC version: 7.0.0
 For citations please refer to: https://libxc.gitlab.io

 This ORCA versions uses:
   CBLAS   interface :  Fast vector & matrix operations
   LAPACKE interface :  Fast linear algebra routines
   SCALAPACK package :  Parallel linear algebra routines
   Shared memory     :  Shared parallel matrices
   BLAS/LAPACK       :  OpenBLAS 0.3.29  USE64BITINT DYNAMIC_ARCH NO_AFFINITY Haswell SINGLE_THREADED
        Core in use  :  Haswell
   Copyright (c) 2011-2014, The OpenBLAS Project


  ***********************************
  * Starting time: Sat Aug 30 16:35:35 2025
  * Host name:     chemlab03
  * Process ID:    83474
  * Working dir.:  /home/vivek/mm-project/vivek/xtb-goat/B97-D-opt/l/5
  ***********************************



***************************************
The coordinates will be read from file: /home/vivek/mm-project/vivek/xtb-goat/xtb-goat/l/L_CONF/5.xyz
***************************************


Your calculation utilizes empirical dispersion correction


Warning: RI is on but no J-basis has been assigned. Assigning Def2/J (nothing to worry about!)
================================================================================

----- Orbital basis set information -----
Your calculation utilizes the basis: 6-31G**
   H-He, Li-Ne : W. J. Hehre, R. Ditchfield and J.A. Pople, J. Chem. Phys. 56, 2257 (1972).
                 Note: He and Ne are unpublished basis sets taken from the Gaussian program.
                 Note: Li and B from J. D. Dill and J. A. Pople, J. Chem. Phys. 62, 2921 (1975).
   Na - Ar     : M. M. Francl, W. J. Pietro, W. J. Hehre, J. S. Binkley, M. S. Gordon, 
                 D. J. DeFrees and J. A. Pople, J. Chem. Phys. 77, 3654 (1982).
   K - Zn      : V. A. Rassolov, J. A. Pople, M. A. Ratner, and T. L. Windus, J. Chem. Phys. 109, 1223 (1998).

----- AuxJ basis set information -----
Your calculation utilizes the auxiliary basis: def2/J
   H-Rn: F. Weigend, Phys. Chem. Chem. Phys. 8, 1057 (2006).
   Fr-Lr: K. Eichkorn, F. Weigend, O. Treutler, R. Ahlrichs; Theor. Chem. Acc. 97, 119 (1997).

================================================================================
                                        WARNINGS
                       Please study these warnings very carefully!
================================================================================


WARNING: Geometry Optimization
  ===> : Switching off AutoStart
         For restart on a previous wavefunction, please use MOREAD

INFO   : The exchange functional is Grimme's B97(-D)
         As described in S. Grimme, J. Comput. Chem. 27, 1787 (2006).
         Note that this functional defaults to a pure GGA. 

INFO   : The correlation functional is Grimme's B97(-D)
         As described in S. Grimme, J. Comput. Chem. 27, 1787 (2006).

================================================================================
                                       INPUT FILE
================================================================================
NAME = 5.inp
|  1> ! B97-D 6-31G** opt
|  2> 
|  3> * xyzfile 0 1 /home/vivek/mm-project/vivek/xtb-goat/xtb-goat/l/L_CONF/5.xyz
|  4> 
|  5>                          ****END OF INPUT****
================================================================================

                       *****************************
                       * Geometry Optimization Run *
                       *****************************

Geometry optimization settings:
Update method            Update   .... BFGS
Choice of coordinates    CoordSys .... (2022) Redundant Internals
Initial Hessian          InHess   .... Almloef's Model
Max. no of cycles        MaxIter  .... 66

Convergence Tolerances:
Energy Change            TolE     ....  5.0000e-06 Eh
Max. Gradient            TolMAXG  ....  3.0000e-04 Eh/bohr
RMS Gradient             TolRMSG  ....  1.0000e-04 Eh/bohr
Max. Displacement        TolMAXD  ....  4.0000e-03 bohr
RMS Displacement         TolRMSD  ....  2.0000e-03 bohr
Strict Convergence                .... False

------------------------------------------------------------------------------
                        ORCA OPTIMIZATION COORDINATE SETUP
------------------------------------------------------------------------------

The optimization will be done in redundant internal coordinates (2022)
Making redundant internal coordinates   ...  (2022 redundants) done
Evaluating the initial hessian          ...  (Almloef) done
Evaluating the coordinates              ...  done
Calculating the B-matrix                .... done
Calculating the G-matrix                .... done
The number of degrees of freedom        ....   94

    -----------------------------------------------------------------
                    Redundant Internal Coordinates


    -----------------------------------------------------------------
         Definition                    Initial Value    Approx d2E/dq
    -----------------------------------------------------------------
      1. B(C   1,C   0)                  1.5220         0.384745   
      2. B(C   4,C   0)                  1.5314         0.371600   
      3. B(H   5,C   0)                  1.0942         0.354589   
      4. B(N   7,H   3)                  1.0155         0.424050   
      5. B(N   7,C   0)                  1.4597         0.433220   
      6. B(N   7,H   2)                  1.0147         0.425301   
      7. B(C   8,C   4)                  1.5307         0.372605   
      8. B(H   9,C   4)                  1.0913         0.358423   
      9. B(H  10,C   4)                  1.0925         0.356796   
     10. B(C  11,C   8)                  1.5279         0.376509   
     11. B(H  12,C  11)                  1.0877         0.363151   
     12. B(C  13,C   8)                  1.5266         0.378308   
     13. B(C  13,H   6)                  1.0879         0.362834   
     14. B(H  14,C  11)                  1.0874         0.363493   
     15. B(H  15,C  11)                  1.0874         0.363553   
     16. B(H  16,C   8)                  1.0960         0.352196   
     17. B(H  17,C  13)                  1.0880         0.362781   
     18. B(H  18,C  13)                  1.0870         0.364120   
     19. B(O  19,C   1)                  1.3413         0.669104   
     20. B(H  20,O  19)                  0.9711         0.499143   
     21. B(O  21,C   1)                  1.2032         1.111281   
     22. A(C   4,C   0,N   7)          108.9302         0.370034   
     23. A(C   1,C   0,H   5)          109.1348         0.325068   
     24. A(H   5,C   0,N   7)          107.9235         0.329499   
     25. A(C   4,C   0,H   5)          111.0194         0.323218   
     26. A(C   1,C   0,N   7)          108.3153         0.372254   
     27. A(C   1,C   0,C   4)          111.4149         0.364856   
     28. A(C   0,C   1,O  21)          124.9250         0.439569   
     29. A(C   0,C   1,O  19)          112.4603         0.401539   
     30. A(O  19,C   1,O  21)          122.3908         0.483075   
     31. A(H   9,C   4,H  10)          108.2285         0.290206   
     32. A(C   0,C   4,H  10)          108.4229         0.323547   
     33. A(C   8,C   4,H   9)          109.2545         0.323932   
     34. A(C   0,C   4,H   9)          106.9026         0.323789   
     35. A(C   0,C   4,C   8)          114.1827         0.362861   
     36. A(C   8,C   4,H  10)          109.6664         0.323690   
     37. A(C   0,N   7,H   2)          110.8214         0.336683   
     38. A(H   2,N   7,H   3)          108.0783         0.301447   
     39. A(C   0,N   7,H   3)          109.5294         0.336518   
     40. A(C  13,C   8,H  16)          108.6100         0.323808   
     41. A(C   4,C   8,H  16)          108.4360         0.323002   
     42. A(C  11,C   8,H  16)          108.4655         0.323555   
     43. A(C  11,C   8,C  13)          110.0882         0.364622   
     44. A(C   4,C   8,C  13)          111.7695         0.363973   
     45. A(C   4,C   8,C  11)          109.3954         0.363676   
     46. A(H  14,C  11,H  15)          108.3811         0.291706   
     47. A(H  12,C  11,H  15)          108.4372         0.291662   
     48. A(C   8,C  11,H  15)          110.7271         0.325246   
     49. A(H  12,C  11,H  14)          108.3728         0.291655   
     50. A(C   8,C  11,H  14)          110.5598         0.325237   
     51. A(C   8,C  11,H  12)          110.2882         0.325187   
     52. A(H   6,C  13,H  18)          107.9722         0.291694   
     53. A(C   8,C  13,H  17)          110.3964         0.325387   
     54. A(H   6,C  13,H  17)          108.4138         0.291525   
     55. A(H   6,C  13,C   8)          110.3131         0.325395   
     56. A(H  17,C  13,H  18)          108.6113         0.291687   
     57. A(C   8,C  13,H  18)          111.0511         0.325584   
     58. A(C   1,O  19,H  20)          110.6255         0.372375   
     59. D(O  19,C   1,C   0,H   5)    -12.6066         0.011030   
     60. D(O  21,C   1,C   0,H   5)    172.7388         0.011030   
     61. D(O  21,C   1,C   0,C   4)     49.7899         0.011030   
     62. D(O  19,C   1,C   0,N   7)    104.6499         0.011030   
     63. D(O  19,C   1,C   0,C   4)   -135.5555         0.011030   
     64. D(C   8,C   4,C   0,C   1)     83.7281         0.011033   
     65. D(C   8,C   4,C   0,H   5)    -38.1356         0.011033   
     66. D(H   9,C   4,C   0,H   5)     82.8127         0.011033   
     67. D(H   9,C   4,C   0,N   7)    -35.8936         0.011033   
     68. D(C   8,C   4,C   0,N   7)   -156.8419         0.011033   
     69. D(H   9,C   4,C   0,C   1)   -155.3236         0.011033   
     70. D(H   2,N   7,C   0,H   5)     59.1603         0.016001   
     71. D(H   2,N   7,C   0,C   4)    179.7884         0.016001   
     72. D(H   3,N   7,C   0,C   1)     60.2823         0.016001   
     73. D(H   2,N   7,C   0,C   1)    -58.8713         0.016001   
     74. D(H   3,N   7,C   0,C   4)    -61.0580         0.016001   
     75. D(C  13,C   8,C   4,H  10)     59.7606         0.011089   
     76. D(C  13,C   8,C   4,H   9)    178.2310         0.011089   
     77. D(C  13,C   8,C   4,C   0)    -62.1352         0.011089   
     78. D(C  11,C   8,C   4,H  10)    -62.4268         0.011089   
     79. D(C  11,C   8,C   4,H   9)     56.0435         0.011089   
     80. D(C  11,C   8,C   4,C   0)    175.6774         0.011089   
     81. D(H  14,C  11,C   8,H  16)    -59.7289         0.011309   
     82. D(H  14,C  11,C   8,C  13)     58.9801         0.011309   
     83. D(H  14,C  11,C   8,C   4)   -177.8303         0.011309   
     84. D(H  12,C  11,C   8,H  16)   -179.5679         0.011309   
     85. D(H  12,C  11,C   8,C  13)    -60.8588         0.011309   
     86. D(H  12,C  11,C   8,C   4)     62.3307         0.011309   
     87. D(H   6,C  13,C   8,H  16)     65.9954         0.011412   
     88. D(H   6,C  13,C   8,C  11)    -52.6250         0.011412   
     89. D(H   6,C  13,C   8,C   4)   -174.4144         0.011412   
     90. D(H  17,C  13,C   8,H  16)   -174.2033         0.011412   
     91. D(H  17,C  13,C   8,C  11)     67.1763         0.011412   
     92. D(H  17,C  13,C   8,C   4)    -54.6131         0.011412   
     93. D(H  20,O  19,C   1,O  21)     -1.2430         0.033250   
     94. D(H  20,O  19,C   1,C   0)   -176.0531         0.033250   
    -----------------------------------------------------------------

Number of atoms                         .... 22
Number of degrees of freedom            .... 94


         *************************************************************
         *                GEOMETRY OPTIMIZATION CYCLE   1            *
         *************************************************************
---------------------------------
CARTESIAN COORDINATES (ANGSTROEM)
---------------------------------
  C     -9.604096    6.500418   -2.235647
  C     -8.831787    6.799469   -0.958725
  H     -9.349704    8.403227   -2.962170
  H     -8.183743    7.343607   -3.429203
  C     -9.333625    5.077253   -2.732401
  H    -10.671765    6.656413   -2.053934
  H    -10.490782    3.097667   -0.124434
  N     -9.179719    7.448575   -3.261104
  C    -10.196588    4.004805   -2.062912
  H     -9.525226    5.074406   -3.806716
  H     -8.276730    4.850999   -2.573158
  C     -9.916063    2.650097   -2.711342
  H     -8.876720    2.367425   -2.559811
  C     -9.941158    3.929553   -0.559744
  H    -10.547831    1.879853   -2.275299
  H    -10.109822    2.687769   -3.780680
  H    -11.250785    4.256291   -2.226404
  H     -8.881462    3.782284   -0.362109
  H    -10.263321    4.841049   -0.062846
  O     -9.583271    7.423750   -0.039615
  H     -9.049733    7.656645    0.737670
  O     -7.655259    6.601256   -0.802827

----------------------------
CARTESIAN COORDINATES (A.U.)
----------------------------
  NO LB      ZA    FRAG     MASS         X           Y           Z
   0 C     6.0000    0    12.011  -18.149112   12.284009   -4.224761
   1 C     6.0000    0    12.011  -16.689658   12.849133   -1.811728
   2 H     1.0000    0     1.008  -17.668381   15.879798   -5.597690
   3 H     1.0000    0     1.008  -15.465033   13.877407   -6.480254
   4 C     6.0000    0    12.011  -17.637995    9.594618   -5.163490
   5 H     1.0000    0     1.008  -20.166713   12.578797   -3.881373
   6 H     1.0000    0     1.008  -19.824706    5.853742   -0.235146
   7 N     7.0000    0    14.007  -17.347155   14.075768   -6.162593
   8 C     6.0000    0    12.011  -19.268759    7.567984   -3.898339
   9 H     1.0000    0     1.008  -18.000069    9.589237   -7.193651
  10 H     1.0000    0     1.008  -15.640753    9.167060   -4.862563
  11 C     6.0000    0    12.011  -18.738643    5.007958   -5.123694
  12 H     1.0000    0     1.008  -16.774570    4.473785   -4.837341
  13 C     6.0000    0    12.011  -18.786065    7.425778   -1.057762
  14 H     1.0000    0     1.008  -19.932513    3.552408   -4.299693
  15 H     1.0000    0     1.008  -19.104795    5.079147   -7.144449
  16 H     1.0000    0     1.008  -21.260902    8.043225   -4.207295
  17 H     1.0000    0     1.008  -16.783531    7.147480   -0.684287
  18 H     1.0000    0     1.008  -19.394866    9.148256   -0.118761
  19 O     8.0000    0    15.999  -18.109758   14.028854   -0.074862
  20 H     1.0000    0     1.008  -17.101516   14.468961    1.393994
  21 O     8.0000    0    15.999  -14.466344   12.474565   -1.517123

--------------------------------
INTERNAL COORDINATES (ANGSTROEM)
--------------------------------
 C      0   0   0     0.000000000000     0.00000000     0.00000000
 C      1   0   0     1.521980102804     0.00000000     0.00000000
 H      1   2   0     2.052616373318    92.97624337     0.00000000
 H      3   1   2     1.643283120238    65.84375675    91.65712552
 C      1   2   3     1.531442695450   111.41486808   143.12678706
 H      1   2   3     1.094198451967   109.13475430   266.07571038
 H      5   1   2     3.472645692727   103.13776033    61.54425161
 N      3   1   2     1.014699934309    41.65844321   125.53682796
 C      5   1   2     1.530707536452   114.18271125    83.72811292
 H      5   1   2     1.091270338476   106.90259603   204.67640461
 H      5   1   2     1.092509239864   108.42286778   321.15160294
 C      9   5   1     1.527870307343   109.39536987   175.67736098
 H     12   9   5     1.087703192399   110.28823453    62.33069294
 C      7   5   1     1.087941129125    25.21431715   313.56924569
 H     12   9   5     1.087446839883   110.55978700   182.16965791
 H     12   9   5     1.087402465307   110.72712070   302.30373544
 H      9   5   1     1.096041323421   108.43598572    57.55744257
 H     14   7   5     1.087980789124   108.41382656   244.37467578
 H     14   7   5     1.086978123241   107.97215080   126.88314199
 O      2   1   3     1.341349824838   112.46033858    81.31767950
 H     20   2   1     0.971120539521   110.62552172   183.94685299
 O      2   1   3     1.203249455521   124.92498630   266.66311623

---------------------------
INTERNAL COORDINATES (A.U.)
---------------------------
 C      0   0   0     0.000000000000     0.00000000     0.00000000
 C      1   0   0     2.876125575577     0.00000000     0.00000000
 H      1   2   0     3.878882803573    92.97624337     0.00000000
 H      3   1   2     3.105355057745    65.84375675    91.65712552
 C      1   2   3     2.894007284194   111.41486808   143.12678706
 H      1   2   3     2.067735410378   109.13475430   266.07571038
 H      5   1   2     6.562349319394   103.13776033    61.54425161
 N      3   1   2     1.917504983952    41.65844321   125.53682796
 C      5   1   2     2.892618035023   114.18271125    83.72811292
 H      5   1   2     2.062202077791   106.90259603   204.67640461
 H      5   1   2     2.064543262120   108.42286778   321.15160294
 C      9   5   1     2.887256449028   109.39536987   175.67736098
 H     12   9   5     2.055461148625   110.28823453    62.33069294
 C      7   5   1     2.055910783876    25.21431715   313.56924569
 H     12   9   5     2.054976712577   110.55978700   182.16965791
 H     12   9   5     2.054892856781   110.72712070   302.30373544
 H      9   5   1     2.071217932725   108.43598572    57.55744257
 H     14   7   5     2.055985730413   108.41382656   244.37467578
 H     14   7   5     2.054090966489   107.97215080   126.88314199
 O      2   1   3     2.534783818726   112.46033858    81.31767950
 H     20   2   1     1.835151862721   110.62552172   183.94685299
 O      2   1   3     2.273811941724   124.92498630   266.66311623

---------------------
BASIS SET INFORMATION
---------------------
There are 4 groups of distinct atoms

 Group   1 Type C   : 10s4p1d contracted to 3s2p1d pattern {631/31/1}
 Group   2 Type H   : 4s1p contracted to 2s1p pattern {31/1}
 Group   3 Type N   : 10s4p1d contracted to 3s2p1d pattern {631/31/1}
 Group   4 Type O   : 10s4p1d contracted to 3s2p1d pattern {631/31/1}

Atom   0C    basis set group =>   1
Atom   1C    basis set group =>   1
Atom   2H    basis set group =>   2
Atom   3H    basis set group =>   2
Atom   4C    basis set group =>   1
Atom   5H    basis set group =>   2
Atom   6H    basis set group =>   2
Atom   7N    basis set group =>   3
Atom   8C    basis set group =>   1
Atom   9H    basis set group =>   2
Atom  10H    basis set group =>   2
Atom  11C    basis set group =>   1
Atom  12H    basis set group =>   2
Atom  13C    basis set group =>   1
Atom  14H    basis set group =>   2
Atom  15H    basis set group =>   2
Atom  16H    basis set group =>   2
Atom  17H    basis set group =>   2
Atom  18H    basis set group =>   2
Atom  19O    basis set group =>   4
Atom  20H    basis set group =>   2
Atom  21O    basis set group =>   4
---------------------------------
AUXILIARY/J BASIS SET INFORMATION
---------------------------------
There are 4 groups of distinct atoms

 Group   1 Type C   : 12s5p4d2f1g contracted to 6s4p3d1f1g pattern {711111/2111/211/2/1}
 Group   2 Type H   : 5s2p1d contracted to 3s1p1d pattern {311/2/1}
 Group   3 Type N   : 12s5p4d2f1g contracted to 6s4p3d1f1g pattern {711111/2111/211/2/1}
 Group   4 Type O   : 12s5p4d2f1g contracted to 6s4p3d1f1g pattern {711111/2111/211/2/1}

Atom   0C    basis set group =>   1
Atom   1C    basis set group =>   1
Atom   2H    basis set group =>   2
Atom   3H    basis set group =>   2
Atom   4C    basis set group =>   1
Atom   5H    basis set group =>   2
Atom   6H    basis set group =>   2
Atom   7N    basis set group =>   3
Atom   8C    basis set group =>   1
Atom   9H    basis set group =>   2
Atom  10H    basis set group =>   2
Atom  11C    basis set group =>   1
Atom  12H    basis set group =>   2
Atom  13C    basis set group =>   1
Atom  14H    basis set group =>   2
Atom  15H    basis set group =>   2
Atom  16H    basis set group =>   2
Atom  17H    basis set group =>   2
Atom  18H    basis set group =>   2
Atom  19O    basis set group =>   4
Atom  20H    basis set group =>   2
Atom  21O    basis set group =>   4
------------------------------------------------------------------------------
                             ORCA STARTUP CALCULATIONS
                           -- RI-GTO INTEGRALS CHOSEN --
------------------------------------------------------------------------------
------------------------------------------------------------------------------
                   ___                                                        
                  /   \      - P O W E R E D   B Y -                         
                 /     \                                                     
                 |  |  |   _    _      __       _____    __    __             
                 |  |  |  | |  | |    /  \     |  _  \  |  |  /  |          
                  \  \/   | |  | |   /    \    | | | |  |  | /  /          
                 / \  \   | |__| |  /  /\  \   | |_| |  |  |/  /          
                |  |  |   |  __  | /  /__\  \  |    /   |      \           
                |  |  |   | |  | | |   __   |  |    \   |  |\   \          
                \     /   | |  | | |  |  |  |  | |\  \  |  | \   \       
                 \___/    |_|  |_| |__|  |__|  |_| \__\ |__|  \__/        
                                                                              
                      - O R C A' S   B I G   F R I E N D -                    
                                      &                                       
                       - I N T E G R A L  F E E D E R -                       
                                                                              
 v1 FN, 2020, v2 2021, v3 2022-2024                                           
------------------------------------------------------------------------------


----------------------
SHARK INTEGRAL PACKAGE
----------------------

Number of atoms                             ...     22
Number of basis functions                   ...    191
Number of shells                            ...     93
Maximum angular momentum                    ...      2
Integral batch strategy                     ... SHARK/LIBINT Hybrid
RI-J (if used) integral strategy            ... SPLIT-RIJ (Revised 2003 algorithm where possible)
Printlevel                                  ...      1
Contraction scheme used                     ... SEGMENTED contraction
Prescreening option                         ... SCHWARTZ
   Thresh                                   ... 2.500e-11
   Tcut                                     ... 2.500e-12
   Tpresel                                  ... 2.500e-12 
Coulomb Range Separation                    ... NOT USED
Exchange Range Separation                   ... NOT USED
Multipole approximations                    ... NOT USED
Finite Nucleus Model                        ... NOT USED
CABS basis                                  ... NOT available
Auxiliary Coulomb fitting basis             ... AVAILABLE
   # of basis functions in Aux-J            ...    584
   # of shells in Aux-J                     ...    200
   Maximum angular momentum in Aux-J        ...      4
Auxiliary J/K fitting basis                 ... NOT available
Auxiliary Correlation fitting basis         ... NOT available
Auxiliary 'external' fitting basis          ... NOT available

Checking pre-screening integrals            ... done (  0.0 sec) Dimension = 93
   => SHARK Basis and OBASIS are compatible. Storing Pre-screening
Shell pair information
Shell pair cut-off parameter TPreSel        ...   2.5e-12
Total number of shell pairs                 ...      4371
Shell pairs after pre-screening             ...      3942
Total number of primitive shell pairs       ...     20328
Primitive shell pairs kept                  ...     12276
          la=0 lb=0:   1299 shell pairs
          la=1 lb=0:   1473 shell pairs
          la=1 lb=1:    442 shell pairs
          la=2 lb=0:    437 shell pairs
          la=2 lb=1:    249 shell pairs
          la=2 lb=2:     42 shell pairs

Checking whether 4 symmetric matrices of dimension 191 fit in memory
:Max Core in MB      =   4096.00
 MB in use           =      8.67
 MB left             =   4087.33
 MB needed           =      0.56
 Data fit in memory  = YES
Calculating RI/J V-Matrix + Cholesky decomp.... done (  0.0 sec)
Calculating Nuclear repulsion               ... done (  0.0 sec) ENN=    490.693122313460 Eh

Diagonalization of the overlap matrix:
Smallest eigenvalue                        ... 3.018e-03
Time for diagonalization                   ...    0.002 sec
Threshold for overlap eigenvalues          ... 1.000e-07
Number of eigenvalues below threshold      ... 0
Time for construction of square roots      ...    0.001 sec
Total time needed                          ...    0.003 sec

-------------------
DFT GRID GENERATION
-------------------

General Integration Accuracy     IntAcc      ... 4.388
Radial Grid Type                 RadialGrid  ... OptM3 with GC (2021)
Angular Grid (max. ang.)         AngularGrid ... 4 (Lebedev-302)
Angular grid pruning method      GridPruning ... 4 (adaptive)
Weight generation scheme         WeightScheme... mBecke (2022)
Basis function cutoff            BFCut       ... 1.0000e-11
Integration weight cutoff        WCut        ... 1.0000e-14
Partially contracted basis set               ... off
Rotationally invariant grid construction     ... off
Angular grids for H and He will be reduced by one unit

Total number of grid points                  ...    95553
Total number of batches                      ...     1505
Average number of points per batch           ...       63
Average number of grid points per atom       ...     4343
Grids setup in   0.4 sec
Initializing property integral containers    ... done (  0.0 sec)

SHARK setup successfully completed in   0.5 seconds

Maximum memory used throughout the entire STARTUP-calculation: 40.6 MB
-------------------------------------------------------------------------------
                                 ORCA GUESS
                   Start orbitals & Density for SCF / CASSCF
-------------------------------------------------------------------------------

------------
SCF SETTINGS
------------
Hamiltonian:
 Density Functional     Method          .... DFT(GTOs)
 Exchange Functional    Exchange        .... B97(D)
 Correlation Functional Correlation     .... B97(D)
 Gradients option       PostSCFGGA      .... off
 RI-approximation to the Coulomb term is turned on
   Number of AuxJ basis functions       .... 584


General Settings:
 Integral files         IntName         .... 5
 Hartree-Fock type      HFTyp           .... RHF
 Total Charge           Charge          ....    0
 Multiplicity           Mult            ....    1
 Number of Electrons    NEL             ....   72
 Basis Dimension        Dim             ....  191
 Nuclear Repulsion      ENuc            ....    490.6931223135 Eh

Convergence Acceleration:
 AO-DIIS                CNVDIIS         .... on
   Start iteration      DIISMaxIt       ....    12
   Startup error        DIISStart       ....  0.200000
   # of expansion vecs  DIISMaxEq       ....     5
   Bias factor          DIISBfac        ....   1.050
   Max. coefficient     DIISMaxC        ....  10.000
 MO-DIIS                CNVKDIIS        .... off
 Trust-Rad. Augm. Hess. CNVTRAH         .... auto
   Auto Start mean grad. ratio tolernc. ....  1.125000
   Auto Start start iteration           ....    50
   Auto Start num. interpolation iter.  ....    10
   Max. Number of Micro iterations      ....    24
   Max. Number of Macro iterations      .... Maxiter - #DIIS iter
   Number of Davidson start vectors     ....     2
   Converg. threshold    (grad. norm)   ....   1.000e-05
   Grad. Scal. Fac. for Micro threshold ....   0.100
   Minimum threshold for Micro iter.    ....   1.000e-02
   NR start threshold (gradient norm)   ....   1.000e-04
   Initial trust radius                 ....   0.400
   Minimum AH scaling param. (alpha)    ....   1.000
   Maximum AH scaling param. (alpha)    .... 1000.000
   Quad. conv. algorithm                .... NR
   White noise on init. David. guess    .... on
   Maximum white noise                  ....   0.010
   Pseudo random numbers                .... off
   Inactive MOs                         .... canonical
   Orbital update algorithm             .... Taylor
   Preconditioner                       .... Diag
   Full preconditioner red. dimension   ....   250
 SOSCF                 CNVSOSCF           .... on
   Start iteration     SOSCFMaxIt         ....   150
   Startup grad/error  SOSCFStart         ....  0.003300
   Hessian update      SOSCFHessUp        .... L-BFGS
   Autom. constraints  SOSCFAutoConstrain .... off
 Level Shifting         CNVShift        .... on
   Level shift para.    LevelShift      ....    0.2500
   Turn off err/grad.   ShiftErr        ....    0.0010
 Zerner damping         CNVZerner       .... off
 Static damping         CNVDamp         .... on
   Fraction old density DampFac         ....    0.7000
   Max. Damping (<1)    DampMax         ....    0.9800
   Min. Damping (>=0)   DampMin         ....    0.0000
   Turn off err/grad.   DampErr         ....    0.1000

SCF Procedure:
 Maximum # iterations   MaxIter         ....   125
 SCF integral mode      SCFMode         .... Direct
   Integral package                     .... SHARK and LIBINT hybrid scheme
 Reset frequency        DirectResetFreq ....    20
 Integral Threshold     Thresh          ....  2.500e-11 Eh
 Primitive CutOff       TCut            ....  2.500e-12 Eh

Convergence Tolerance:
 Convergence Check Mode ConvCheckMode   .... Total+1el-Energy
 Convergence forced     ConvForced      .... 0
 Energy Change          TolE            ....  1.000e-08 Eh
 1-El. energy change                    ....  1.000e-05 Eh
 Orbital Gradient       TolG            ....  1.000e-05
 Orbital Rotation angle TolX            ....  1.000e-05
 DIIS Error             TolErr          ....  5.000e-07

------------------------------
INITIAL GUESS: MODEL POTENTIAL
------------------------------
Loading Hartree-Fock densities                     ... done
Calculating cut-offs                               ... done
Initializing the effective Hamiltonian             ... done
Setting up the integral package (SHARK)            ... done
Starting the Coulomb interaction                   ... done (   0.1 sec)
Making the grid                                    ... done (   0.1 sec)
Mapping shells                                     ... done
Starting the XC term evaluation                    ... done (   0.1 sec)
  promolecular density results
     # of electrons  =     71.992519702
     EX              =    -56.842784754
     EC              =     -3.118492546
     EX+EC           =    -59.961277300
Transforming the Hamiltonian                       ... done (   0.0 sec)
Diagonalizing the Hamiltonian                      ... done (   0.0 sec)
Back transforming the eigenvectors                 ... done (   0.0 sec)
Now organizing SCF variables                       ... done
                      ------------------
                      INITIAL GUESS DONE (   0.3 sec)
                      ------------------
             **** ENERGY FILE WAS UPDATED (5.en.tmp) ****
Finished Guess after   0.3 sec
Maximum memory used throughout the entire GUESS-calculation: 13.8 MB

-------------------------------------------------------------------------------------------
                                      ORCA LEAN-SCF
                              memory conserving SCF solver
-------------------------------------------------------------------------------------------

----------------------------------------D-I-I-S--------------------------------------------
Iteration    Energy (Eh)           Delta-E    RMSDP     MaxDP     DIISErr   Damp  Time(sec)
-------------------------------------------------------------------------------------------
               ***  Starting incremental Fock matrix formation  ***
    1    -441.0182070007327297     0.00e+00  3.52e-03  1.04e-01  2.59e-01  0.700   0.6
    2    -441.1957087884856605    -1.78e-01  2.33e-03  5.41e-02  9.41e-02  0.700   0.5
                               ***Turning on AO-DIIS***
    3    -441.2517313089882123    -5.60e-02  9.03e-04  1.59e-02  2.81e-02  0.700   0.5
    4    -441.2873697679614793    -3.56e-02  1.20e-03  1.99e-02  1.21e-02  0.000   0.5
    5    -441.3696074238325195    -8.22e-02  4.05e-04  8.43e-03  1.02e-02  0.000   0.5
                              *** Initializing SOSCF ***
---------------------------------------S-O-S-C-F--------------------------------------
Iteration    Energy (Eh)           Delta-E    RMSDP     MaxDP     MaxGrad    Time(sec)
--------------------------------------------------------------------------------------
    6    -441.3704922293146069    -8.85e-04  1.44e-04  2.63e-03  2.94e-03     0.5
               *** Restarting incremental Fock matrix formation ***
    7    -441.3705566721593527    -6.44e-05  1.24e-04  4.08e-03  8.11e-04     0.6
    8    -441.3705283345452131     2.83e-05  6.79e-05  3.17e-03  2.27e-03     0.5
    9    -441.3705661837179264    -3.78e-05  4.40e-05  8.18e-04  2.59e-04     0.5
   10    -441.3705637827416126     2.40e-06  2.54e-05  4.82e-04  2.15e-04     0.5
   11    -441.3705679158591124    -4.13e-06  7.25e-06  2.16e-04  3.37e-05     0.5
   12    -441.3705678319235517     8.39e-08  4.18e-06  1.29e-04  4.95e-05     0.5
   13    -441.3705679691309456    -1.37e-07  8.27e-07  2.22e-05  3.52e-06     0.4
   14    -441.3705679717562020    -2.63e-09  4.26e-07  1.33e-05  4.47e-06     0.4
                 **** Energy Check signals convergence ****

               *****************************************************
               *                     SUCCESS                       *
               *           SCF CONVERGED AFTER  14 CYCLES          *
               *****************************************************

             **** ENERGY FILE WAS UPDATED (5.en.tmp) ****

----------------
TOTAL SCF ENERGY
----------------

Total Energy       :       -441.37056797219560 Eh          -12010.30375 eV

Components:
Nuclear Repulsion  :        490.69312231345970 Eh           13352.43868 eV
Electronic Energy  :       -932.06369028565530 Eh          -25362.74243 eV
One Electron Energy:      -1573.38041704262037 Eh          -42813.85776 eV
Two Electron Energy:        641.31672675696507 Eh           17451.11533 eV

Virial components:
Potential Energy   :       -880.48902581687571 Eh          -23959.32446 eV
Kinetic Energy     :        439.11845784468005 Eh           11949.02071 eV
Virial Ratio       :          2.00512870749859

DFT components:
N(Alpha)           :       36.000035857232 electrons
N(Beta)            :       36.000035857232 electrons
N(Total)           :       72.000071714465 electrons
E(X)               :      -58.274798871985 Eh       
E(C)               :       -3.115541193053 Eh       
E(XC)              :      -61.390340065038 Eh       

---------------
SCF CONVERGENCE
---------------

  Last Energy change         ...    2.6253e-09  Tolerance :   1.0000e-08
  Last MAX-Density change    ...    1.3290e-05  Tolerance :   1.0000e-07
  Last RMS-Density change    ...    4.2585e-07  Tolerance :   5.0000e-09
  Last DIIS Error            ...    2.9424e-03  Tolerance :   5.0000e-07
  Last Orbital Gradient      ...    4.4695e-06  Tolerance :   1.0000e-05
  Last Orbital Rotation      ...    5.1553e-06  Tolerance :   1.0000e-05


----------------
ORBITAL ENERGIES
----------------

  NO   OCC          E(Eh)            E(eV) 
   0   2.0000     -18.813863      -511.9512 
   1   2.0000     -18.750407      -510.2245 
   2   2.0000     -13.994883      -380.8201 
   3   2.0000     -10.025727      -272.8139 
   4   2.0000      -9.944180      -270.5949 
   5   2.0000      -9.907774      -269.6042 
   6   2.0000      -9.897775      -269.3322 
   7   2.0000      -9.889318      -269.1020 
   8   2.0000      -9.888499      -269.0797 
   9   2.0000      -1.018821       -27.7235 
  10   2.0000      -0.929320       -25.2881 
  11   2.0000      -0.819757       -22.3067 
  12   2.0000      -0.733075       -19.9480 
  13   2.0000      -0.659410       -17.9435 
  14   2.0000      -0.615584       -16.7509 
  15   2.0000      -0.604503       -16.4494 
  16   2.0000      -0.533272       -14.5111 
  17   2.0000      -0.500714       -13.6251 
  18   2.0000      -0.456663       -12.4264 
  19   2.0000      -0.439210       -11.9515 
  20   2.0000      -0.417181       -11.3521 
  21   2.0000      -0.412928       -11.2363 
  22   2.0000      -0.395936       -10.7740 
  23   2.0000      -0.376944       -10.2572 
  24   2.0000      -0.368180       -10.0187 
  25   2.0000      -0.355581        -9.6759 
  26   2.0000      -0.343066        -9.3353 
  27   2.0000      -0.334288        -9.0964 
  28   2.0000      -0.313513        -8.5311 
  29   2.0000      -0.311135        -8.4664 
  30   2.0000      -0.280283        -7.6269 
  31   2.0000      -0.279124        -7.5953 
  32   2.0000      -0.277226        -7.5437 
  33   2.0000      -0.269702        -7.3390 
  34   2.0000      -0.231855        -6.3091 
  35   2.0000      -0.192625        -5.2416 
  36   0.0000      -0.016795        -0.4570 
  37   0.0000       0.050345         1.3699 
  38   0.0000       0.076447         2.0802 
  39   0.0000       0.078782         2.1438 
  40   0.0000       0.095998         2.6122 
  41   0.0000       0.125170         3.4060 
  42   0.0000       0.131886         3.5888 
  43   0.0000       0.134804         3.6682 
  44   0.0000       0.142640         3.8814 
  45   0.0000       0.147873         4.0238 
  46   0.0000       0.157351         4.2817 
*Only the first 10 virtual orbitals were printed.

                    ********************************
                    * MULLIKEN POPULATION ANALYSIS *
                    ********************************

-----------------------
MULLIKEN ATOMIC CHARGES
-----------------------
   0 C :   -0.024273
   1 C :    0.499830
   2 H :    0.242761
   3 H :    0.249128
   4 C :   -0.176757
   5 H :    0.116688
   6 H :    0.101810
   7 N :   -0.562837
   8 C :   -0.075751
   9 H :    0.111523
  10 H :    0.114287
  11 C :   -0.319023
  12 H :    0.107050
  13 C :   -0.336688
  14 H :    0.102213
  15 H :    0.104224
  16 H :    0.093074
  17 H :    0.117287
  18 H :    0.110860
  19 O :   -0.462861
  20 H :    0.314962
  21 O :   -0.427503
Sum of atomic charges:    0.0000000

--------------------------------
MULLIKEN REDUCED ORBITAL CHARGES
--------------------------------
  0 C s       :     3.204230  s :     3.204230
      pz      :     0.852577  p :     2.762874
      px      :     0.992992
      py      :     0.917305
      dz2     :     0.015193  d :     0.057170
      dxz     :     0.009550
      dyz     :     0.012995
      dx2y2   :     0.011749
      dxy     :     0.007683

  1 C s       :     2.996087  s :     2.996087
      pz      :     0.819406  p :     2.379781
      px      :     0.781774
      py      :     0.778601
      dz2     :     0.017925  d :     0.124303
      dxz     :     0.046332
      dyz     :     0.011343
      dx2y2   :     0.021302
      dxy     :     0.027401

  2 H s       :     0.733360  s :     0.733360
      pz      :     0.006983  p :     0.023879
      px      :     0.005996
      py      :     0.010900

  3 H s       :     0.727077  s :     0.727077
      pz      :     0.007244  p :     0.023795
      px      :     0.011860
      py      :     0.004691

  4 C s       :     3.225298  s :     3.225298
      pz      :     1.009754  p :     2.915857
      px      :     1.011448
      py      :     0.894655
      dz2     :     0.010870  d :     0.035602
      dxz     :     0.002617
      dyz     :     0.005440
      dx2y2   :     0.010827
      dxy     :     0.005848

  5 H s       :     0.872457  s :     0.872457
      pz      :     0.002230  p :     0.010856
      px      :     0.006565
      py      :     0.002061

  6 H s       :     0.886584  s :     0.886584
      pz      :     0.003171  p :     0.011606
      px      :     0.003549
      py      :     0.004886

  7 N s       :     3.604843  s :     3.604843
      pz      :     1.513714  p :     3.929103
      px      :     1.295441
      py      :     1.119949
      dz2     :     0.006467  d :     0.028891
      dxz     :     0.002279
      dyz     :     0.007562
      dx2y2   :     0.011950
      dxy     :     0.000633

  8 C s       :     3.206600  s :     3.206600
      pz      :     0.917426  p :     2.825238
      px      :     0.984029
      py      :     0.923783
      dz2     :     0.011441  d :     0.043913
      dxz     :     0.005586
      dyz     :     0.009396
      dx2y2   :     0.010199
      dxy     :     0.007289

  9 H s       :     0.876831  s :     0.876831
      pz      :     0.006573  p :     0.011645
      px      :     0.002671
      py      :     0.002401

 10 H s       :     0.873886  s :     0.873886
      pz      :     0.002743  p :     0.011827
      px      :     0.006470
      py      :     0.002614

 11 C s       :     3.248266  s :     3.248266
      pz      :     1.026119  p :     3.040366
      px      :     1.038004
      py      :     0.976243
      dz2     :     0.009689  d :     0.030391
      dxz     :     0.002150
      dyz     :     0.004873
      dx2y2   :     0.006566
      dxy     :     0.007114

 12 H s       :     0.881337  s :     0.881337
      pz      :     0.002703  p :     0.011613
      px      :     0.006061
      py      :     0.002849

 13 C s       :     3.251746  s :     3.251746
      pz      :     0.961167  p :     3.054655
      px      :     1.044593
      py      :     1.048895
      dz2     :     0.006910  d :     0.030287
      dxz     :     0.004700
      dyz     :     0.007845
      dx2y2   :     0.006624
      dxy     :     0.004208

 14 H s       :     0.886198  s :     0.886198
      pz      :     0.003196  p :     0.011590
      px      :     0.003875
      py      :     0.004518

 15 H s       :     0.884170  s :     0.884170
      pz      :     0.006309  p :     0.011607
      px      :     0.002775
      py      :     0.002523

 16 H s       :     0.895536  s :     0.895536
      pz      :     0.002576  p :     0.011390
      px      :     0.006134
      py      :     0.002679

 17 H s       :     0.871151  s :     0.871151
      pz      :     0.002629  p :     0.011562
      px      :     0.006223
      py      :     0.002710

 18 H s       :     0.877220  s :     0.877220
      pz      :     0.003454  p :     0.011920
      px      :     0.003054
      py      :     0.005412

 19 O s       :     3.829850  s :     3.829850
      pz      :     1.315976  p :     4.610277
      px      :     1.627079
      py      :     1.667222
      dz2     :     0.002696  d :     0.022734
      dxz     :     0.009000
      dyz     :     0.002072
      dx2y2   :     0.004157
      dxy     :     0.004809

 20 H s       :     0.647304  s :     0.647304
      pz      :     0.016447  p :     0.037734
      px      :     0.011797
      py      :     0.009490

 21 O s       :     3.861311  s :     3.861311
      pz      :     1.694157  p :     4.538159
      px      :     1.354066
      py      :     1.489937
      dz2     :     0.002784  d :     0.028032
      dxz     :     0.007578
      dyz     :     0.000557
      dx2y2   :     0.007747
      dxy     :     0.009366



                     *******************************
                     * LOEWDIN POPULATION ANALYSIS *
                     *******************************

----------------------
LOEWDIN ATOMIC CHARGES
----------------------
   0 C :   -0.041525
   1 C :    0.099997
   2 H :    0.125564
   3 H :    0.129307
   4 C :   -0.118814
   5 H :    0.076038
   6 H :    0.068688
   7 N :   -0.236657
   8 C :   -0.068499
   9 H :    0.075484
  10 H :    0.073709
  11 C :   -0.195683
  12 H :    0.068581
  13 C :   -0.204006
  14 H :    0.067903
  15 H :    0.067990
  16 H :    0.063299
  17 H :    0.072808
  18 H :    0.069198
  19 O :   -0.144487
  20 H :    0.179767
  21 O :   -0.228664

-------------------------------
LOEWDIN REDUCED ORBITAL CHARGES
-------------------------------
  0 C s       :     2.883300  s :     2.883300
      pz      :     0.977213  p :     3.029653
      px      :     1.050507
      py      :     1.001934
      dz2     :     0.033939  d :     0.128571
      dxz     :     0.023021
      dyz     :     0.029543
      dx2y2   :     0.027081
      dxy     :     0.014987

  1 C s       :     2.859916  s :     2.859916
      pz      :     0.921686  p :     2.744088
      px      :     1.006957
      py      :     0.815444
      dz2     :     0.041312  d :     0.295999
      dxz     :     0.114340
      dyz     :     0.024808
      dx2y2   :     0.051612
      dxy     :     0.063928

  2 H s       :     0.795481  s :     0.795481
      pz      :     0.022357  p :     0.078955
      px      :     0.015905
      py      :     0.040693

  3 H s       :     0.791350  s :     0.791350
      pz      :     0.021813  p :     0.079343
      px      :     0.045676
      py      :     0.011854

  4 C s       :     2.904373  s :     2.904373
      pz      :     1.062762  p :     3.134411
      px      :     1.074952
      py      :     0.996697
      dz2     :     0.023009  d :     0.080029
      dxz     :     0.005839
      dyz     :     0.013208
      dx2y2   :     0.023970
      dxy     :     0.014003

  5 H s       :     0.884449  s :     0.884449
      pz      :     0.006373  p :     0.039513
      px      :     0.026262
      py      :     0.006878

  6 H s       :     0.891697  s :     0.891697
      pz      :     0.010267  p :     0.039615
      px      :     0.011685
      py      :     0.017664

  7 N s       :     3.204894  s :     3.204894
      pz      :     1.510760  p :     3.973709
      px      :     1.305031
      py      :     1.157918
      dz2     :     0.011568  d :     0.058054
      dxz     :     0.004479
      dyz     :     0.015174
      dx2y2   :     0.023481
      dxy     :     0.003352

  8 C s       :     2.878897  s :     2.878897
      pz      :     1.021588  p :     3.088696
      px      :     1.050081
      py      :     1.017028
      dz2     :     0.027524  d :     0.100905
      dxz     :     0.012119
      dyz     :     0.021813
      dx2y2   :     0.022652
      dxy     :     0.016797

  9 H s       :     0.884259  s :     0.884259
      pz      :     0.025830  p :     0.040256
      px      :     0.007756
      py      :     0.006671

 10 H s       :     0.885325  s :     0.885325
      pz      :     0.007625  p :     0.040966
      px      :     0.025547
      py      :     0.007794

 11 C s       :     2.918666  s :     2.918666
      pz      :     1.077608  p :     3.212834
      px      :     1.090372
      py      :     1.044854
      dz2     :     0.019635  d :     0.064183
      dxz     :     0.004265
      dyz     :     0.011202
      dx2y2   :     0.014651
      dxy     :     0.014431

 12 H s       :     0.891724  s :     0.891724
      pz      :     0.007475  p :     0.039695
      px      :     0.023725
      py      :     0.008496

 13 C s       :     2.918121  s :     2.918121
      pz      :     1.039146  p :     3.221823
      px      :     1.094090
      py      :     1.088587
      dz2     :     0.017188  d :     0.064062
      dxz     :     0.009554
      dyz     :     0.015817
      dx2y2   :     0.013111
      dxy     :     0.008393

 14 H s       :     0.892545  s :     0.892545
      pz      :     0.009953  p :     0.039552
      px      :     0.013112
      py      :     0.016488

 15 H s       :     0.892449  s :     0.892449
      pz      :     0.024673  p :     0.039560
      px      :     0.007704
      py      :     0.007183

 16 H s       :     0.898449  s :     0.898449
      pz      :     0.007311  p :     0.038252
      px      :     0.023167
      py      :     0.007774

 17 H s       :     0.887132  s :     0.887132
      pz      :     0.007803  p :     0.040060
      px      :     0.024710
      py      :     0.007547

 18 H s       :     0.890040  s :     0.890040
      pz      :     0.011479  p :     0.040762
      px      :     0.008930
      py      :     0.020353

 19 O s       :     3.473985  s :     3.473985
      pz      :     1.337724  p :     4.619510
      px      :     1.636325
      py      :     1.645461
      dz2     :     0.008924  d :     0.050992
      dxz     :     0.019429
      dyz     :     0.008435
      dx2y2   :     0.006044
      dxy     :     0.008160

 20 H s       :     0.704742  s :     0.704742
      pz      :     0.051068  p :     0.115492
      px      :     0.037220
      py      :     0.027204

 21 O s       :     3.553627  s :     3.553627
      pz      :     1.677933  p :     4.616893
      px      :     1.459950
      py      :     1.479010
      dz2     :     0.007257  d :     0.058143
      dxz     :     0.014680
      dyz     :     0.000839
      dx2y2   :     0.020319
      dxy     :     0.015048



                      *****************************
                      * MAYER POPULATION ANALYSIS *
                      *****************************

  NA   - Mulliken gross atomic population
  ZA   - Total nuclear charge
  QA   - Mulliken gross atomic charge
  VA   - Mayer's total valence
  BVA  - Mayer's bonded valence
  FA   - Mayer's free valence

  ATOM       NA         ZA         QA         VA         BVA        FA
  0 C      6.0243     6.0000    -0.0243     3.8570     3.8570    -0.0000
  1 C      5.5002     6.0000     0.4998     3.9294     3.9294     0.0000
  2 H      0.7572     1.0000     0.2428     0.9188     0.9188     0.0000
  3 H      0.7509     1.0000     0.2491     0.9243     0.9243     0.0000
  4 C      6.1768     6.0000    -0.1768     3.8465     3.8465    -0.0000
  5 H      0.8833     1.0000     0.1167     0.9534     0.9534    -0.0000
  6 H      0.8982     1.0000     0.1018     0.9574     0.9574    -0.0000
  7 N      7.5628     7.0000    -0.5628     2.9132     2.9132     0.0000
  8 C      6.0758     6.0000    -0.0758     3.9448     3.9448     0.0000
  9 H      0.8885     1.0000     0.1115     0.9618     0.9618     0.0000
 10 H      0.8857     1.0000     0.1143     0.9671     0.9671     0.0000
 11 C      6.3190     6.0000    -0.3190     3.8868     3.8868     0.0000
 12 H      0.8930     1.0000     0.1070     0.9580     0.9580    -0.0000
 13 C      6.3367     6.0000    -0.3367     3.8757     3.8757    -0.0000
 14 H      0.8978     1.0000     0.1022     0.9570     0.9570     0.0000
 15 H      0.8958     1.0000     0.1042     0.9569     0.9569    -0.0000
 16 H      0.9069     1.0000     0.0931     0.9487     0.9487     0.0000
 17 H      0.8827     1.0000     0.1173     0.9592     0.9592    -0.0000
 18 H      0.8891     1.0000     0.1109     0.9641     0.9641     0.0000
 19 O      8.4629     8.0000    -0.4629     2.0346     2.0346     0.0000
 20 H      0.6850     1.0000     0.3150     0.9199     0.9199     0.0000
 21 O      8.4275     8.0000    -0.4275     2.0985     2.0985     0.0000

  Mayer bond orders larger than 0.100000
B(  0-C ,  1-C ) :   0.8994 B(  0-C ,  4-C ) :   0.9789 B(  0-C ,  5-H ) :   0.9274 
B(  0-C ,  7-N ) :   1.0200 B(  1-C , 19-O ) :   1.0628 B(  1-C , 21-O ) :   1.8948 
B(  2-H ,  7-N ) :   0.9055 B(  3-H ,  7-N ) :   0.8987 B(  4-C ,  8-C ) :   1.0012 
B(  4-C ,  9-H ) :   0.9344 B(  4-C , 10-H ) :   0.9293 B(  6-H , 13-C ) :   0.9577 
B(  8-C , 11-C ) :   1.0084 B(  8-C , 13-C ) :   1.0089 B(  8-C , 16-H ) :   0.9411 
B( 11-C , 12-H ) :   0.9589 B( 11-C , 14-H ) :   0.9590 B( 11-C , 15-H ) :   0.9596 
B( 13-C , 17-H ) :   0.9551 B( 13-C , 18-H ) :   0.9481 B( 19-O , 20-H ) :   0.8531 


-------
TIMINGS
-------

Total SCF time: 0 days 0 hours 0 min 7 sec 

Total time                  ....       7.519 sec
Sum of individual times     ....       7.040 sec  ( 93.6%)

SCF preparation             ....       0.029 sec  (  0.4%)
Fock matrix formation       ....       6.947 sec  ( 92.4%)
  Startup                   ....       0.001 sec  (  0.0% of F)
  Split-RI-J                ....       2.402 sec  ( 34.6% of F)
  XC integration            ....       4.947 sec  ( 71.2% of F)
    XC Preparation          ....       0.000 sec  (  0.0% of XC)
    Basis function eval.    ....       1.756 sec  ( 35.5% of XC)
    Density eval.           ....       1.111 sec  ( 22.5% of XC)
    XC-Functional eval.     ....       0.875 sec  ( 17.7% of XC)
    XC-Potential eval.      ....       1.074 sec  ( 21.7% of XC)
Diagonalization             ....       0.000 sec  (  0.0%)
Density matrix formation    ....       0.005 sec  (  0.1%)
Total Energy calculation    ....       0.001 sec  (  0.0%)
Population analysis         ....       0.003 sec  (  0.0%)
Orbital Transformation      ....       0.006 sec  (  0.1%)
Orbital Orthonormalization  ....       0.000 sec  (  0.0%)
DIIS solution               ....       0.028 sec  (  0.4%)
SOSCF solution              ....       0.021 sec  (  0.3%)
Finished LeanSCF after   7.5 sec

Maximum memory used throughout the entire LEANSCF-calculation: 21.7 MB



-------------------------------------------------------------------------------
                          DFT DISPERSION CORRECTION                            
-------------------------------------------------------------------------------
Active option DFTDOPT                   ...         2   
Final C6-coefficient scaling factor     ...     1.250
Final VDW-radii scaling factor          ...     1.100
Damping factor alpha                    ...    20.000
-------------------------   ----------------
Dispersion correction           -0.034174548
-------------------------   ----------------


-------------------------   --------------------
FINAL SINGLE POINT ENERGY      -441.404742520146
-------------------------   --------------------

------------------------------------------------------------------------------
                         ORCA SCF GRADIENT CALCULATION
------------------------------------------------------------------------------

Nuc. rep. gradient        (SHARK) ... done (  0.0 sec)
HCore & Overlap gradient  (SHARK) ... done (  0.1 sec)
Split-RIJ-J gradient      (SHARK) ... done (  0.6 sec)
XC gradient                       ... done (  2.8 sec)
Dispersion correction             ... done (  0.0 sec)

-------------------
DISPERSION GRADIENT
-------------------

   1   C   :    0.001034046    0.000442241   -0.000746637
   2   C   :   -0.000165039    0.000878819   -0.000203044
   3   H   :    0.000336003    0.000347817   -0.000564061
   4   H   :   -0.000052240    0.000895443   -0.000464653
   5   C   :   -0.000807948    0.000804986    0.000009682
   6   H   :    0.000342776    0.000764062    0.000046516
   7   H   :    0.000551770    0.000903662    0.000660475
   8   N   :   -0.000433052   -0.000051308   -0.000220633
   9   C   :    0.000853624   -0.001393647    0.000020075
  10   H   :    0.000612424    0.000630798    0.000206998
  11   H   :   -0.000155103    0.000262764   -0.000955571
  12   C   :   -0.000586683   -0.000309019   -0.000238004
  13   H   :   -0.000936959   -0.000963668   -0.000743500
  14   C   :   -0.000730030   -0.000572916    0.000164029
  15   H   :    0.000660076   -0.000148856   -0.001124555
  16   H   :    0.000133565   -0.001153045    0.000698187
  17   H   :   -0.000418974   -0.000481159   -0.000093920
  18   H   :   -0.001040114   -0.000450072    0.001262032
  19   H   :    0.000012428   -0.001850752    0.000849033
  20   O   :    0.000155218    0.000619490    0.000361761
  21   H   :    0.000379903   -0.000040402   -0.000076739
  22   O   :    0.000254310    0.000864763    0.001152528

Difference to translation invariance:
           :    0.0000000000    0.0000000000   -0.0000000000

Difference to rotation invariance:
           :   -0.0000000000   -0.0000000000    0.0000000000

Norm of the Dispersion gradient    ...    0.0054864500
RMS gradient                       ...    0.0006753353
MAX gradient                       ...    0.0018507522

------------------
CARTESIAN GRADIENT
------------------

   1   C   :   -0.000436564    0.000953958    0.000606799
   2   C   :    0.009762670    0.000195015    0.003605486
   3   H   :   -0.001007997   -0.004383922   -0.001780926
   4   H   :   -0.004554778   -0.000651057   -0.001316409
   5   C   :    0.006137018   -0.001328247   -0.002009373
   6   H   :    0.003983087    0.000916750    0.000158737
   7   H   :    0.004043854    0.006106744   -0.004267108
   8   N   :    0.004396399   -0.003807440    0.011561138
   9   C   :   -0.004661910    0.002124803    0.000209784
  10   H   :    0.000681016    0.000021899    0.005987293
  11   H   :   -0.006066111    0.001615181    0.000050567
  12   C   :    0.003467126   -0.002970530   -0.000481140
  13   H   :   -0.008544613    0.002690467   -0.001061163
  14   C   :    0.003443529   -0.000592082    0.001430472
  15   H   :    0.004349534    0.006860203   -0.003155236
  16   H   :    0.000877445    0.000600365    0.008810707
  17   H   :    0.004795613   -0.001773499    0.001117283
  18   H   :   -0.008066895    0.001012771   -0.001819560
  19   H   :    0.001761329   -0.006161713   -0.005278250
  20   O   :    0.025205332   -0.010733015   -0.010510542
  21   H   :   -0.006885236    0.001644811    0.000105031
  22   O   :   -0.032679849    0.007658539   -0.001963588

Difference to translation invariance:
           :    0.0000000000   -0.0000000000   -0.0000000000

Difference to rotation invariance:
           :    0.0000119805    0.0001487694    0.0003931761

Norm of the Cartesian gradient     ...    0.0551034273
RMS gradient                       ...    0.0067827630
MAX gradient                       ...    0.0326798490

-------
TIMINGS
-------

Total SCF gradient time     ....        3.567 sec

Densities                   ....       0.000 sec  (  0.0%)
One electron gradient       ....       0.139 sec  (  3.9%)
RI-J Coulomb gradient       ....       0.635 sec  ( 17.8%)
XC gradient                 ....       2.792 sec  ( 78.3%)

Maximum memory used throughout the entire SCFGRAD-calculation: 27.7 MB
------------------------------------------------------------------------------
                         ORCA GEOMETRY RELAXATION STEP
------------------------------------------------------------------------------

Reading the OPT-File                    .... done
Getting information on internals        .... done
Copying old internal coords+grads       .... done
Making the new internal coordinates     .... (2022 redundants) done
Validating the new internal coordinates .... (2022 redundants) done
Calculating the B-matrix                .... done
Calculating the G,G- and P matrices     .... done
Transforming gradient to internals      .... done
Projecting the internal gradient        .... done
Number of atoms                         ....  22
Number of internal coordinates          ....  94
Current Energy                          ....  -441.404742520 Eh
Current gradient norm                   ....     0.055103427 Eh/bohr
Maximum allowed component of the step   ....  0.300
Current trust radius                    ....  0.300
Evaluating the initial hessian          ....  (Almloef) done
Projecting the Hessian                  .... done
Forming the augmented Hessian           .... done
Diagonalizing the augmented Hessian     .... done
Last element of RFO vector              ....  0.990082394
Lowest eigenvalues of augmented Hessian:
 -0.005684044  0.011029978  0.011077432  0.011094522  0.011309437
Length of the computed step             ....  0.141895170
The final length of the internal step   ....  0.141895170
Converting the step to Cartesian space:
 Initial RMS(Int)=    0.0146353693
Transforming coordinates:
 Iter   0:  RMS(Cart)=    0.0319667620 RMS(Int)=    0.0146415214
done
Storing new coordinates                 .... done

                                .--------------------.
          ----------------------|Geometry convergence|-------------------------
          Item                value                   Tolerance       Converged
          ---------------------------------------------------------------------
          RMS gradient        0.0056269065            0.0001000000      NO
          MAX gradient        0.0334677327            0.0003000000      NO
          RMS step            0.0146353693            0.0020000000      NO
          MAX step            0.0375982102            0.0040000000      NO
          -------------------------------------------------------------------------
          ........................................................
          Max(Bonds)      0.0170      Max(Angles)    1.74
          Max(Dihed)        2.15      Max(Improp)    0.00
          ---------------------------------------------------------------------

The optimization has not yet converged - more geometry cycles are needed


    ---------------------------------------------------------------------------
                         Redundant Internal Coordinates
                            (Angstroem and degrees)

        Definition                    Value    dE/dq     Step     New-Value
    ----------------------------------------------------------------------------
     1. B(C   1,C   0)                1.5220 -0.009923  0.0134    1.5354   
     2. B(C   4,C   0)                1.5314 -0.007097  0.0100    1.5414   
     3. B(H   5,C   0)                1.0942 -0.003733  0.0055    1.0997   
     4. B(N   7,H   3)                1.0155 -0.004174  0.0051    1.0206   
     5. B(N   7,C   0)                1.4597 -0.012026  0.0145    1.4742   
     6. B(N   7,H   2)                1.0147 -0.004483  0.0055    1.0202   
     7. B(C   8,C   4)                1.5307 -0.008311  0.0116    1.5423   
     8. B(H   9,C   4)                1.0913 -0.006014  0.0087    1.1000   
     9. B(H  10,C   4)                1.0925 -0.006194  0.0090    1.1016   
    10. B(C  11,C   8)                1.5279 -0.008090  0.0112    1.5391   
    11. B(H  12,C  11)                1.0877 -0.009016  0.0129    1.1006   
    12. B(C  13,C   8)                1.5266 -0.009608  0.0132    1.5398   
    13. B(C  13,H   6)                1.0879 -0.008418  0.0121    1.1000   
    14. B(H  14,C  11)                1.0874 -0.008649  0.0124    1.0998   
    15. B(H  15,C  11)                1.0874 -0.008799  0.0126    1.1000   
    16. B(H  16,C   8)                1.0960 -0.005184  0.0077    1.1037   
    17. B(H  17,C  13)                1.0880 -0.008330  0.0120    1.0999   
    18. B(H  18,C  13)                1.0870 -0.008100  0.0116    1.0986   
    19. B(O  19,C   1)                1.3413 -0.021625  0.0170    1.3583   
    20. B(H  20,O  19)                0.9711 -0.003304  0.0035    0.9746   
    21. B(O  21,C   1)                1.2032 -0.033468  0.0159    1.2191   
    22. A(C   4,C   0,N   7)          108.93 -0.002870    0.74    109.67   
    23. A(C   1,C   0,H   5)          109.13 -0.000284   -0.15    108.98   
    24. A(H   5,C   0,N   7)          107.92  0.001065   -0.21    107.71   
    25. A(C   4,C   0,H   5)          111.02  0.001305   -0.67    110.35   
    26. A(C   1,C   0,N   7)          108.32 -0.000179    0.38    108.69   
    27. A(C   1,C   0,C   4)          111.41  0.000931   -0.06    111.36   
    28. A(C   0,C   1,O  21)          124.92  0.001899   -0.16    124.76   
    29. A(C   0,C   1,O  19)          112.46  0.002961   -0.32    112.14   
    30. A(O  19,C   1,O  21)          122.39 -0.004959    0.66    123.05   
    31. A(H   9,C   4,H  10)          108.23  0.000763   -0.43    107.80   
    32. A(C   0,C   4,H  10)          108.42  0.001036   -0.05    108.37   
    33. A(C   8,C   4,H   9)          109.25  0.000714   -0.07    109.19   
    34. A(C   0,C   4,H   9)          106.90  0.001578   -0.19    106.72   
    35. A(C   0,C   4,C   8)          114.18 -0.004313    0.81    114.99   
    36. A(C   8,C   4,H  10)          109.67  0.000468   -0.13    109.53   
    37. A(C   0,N   7,H   2)          110.82 -0.000077   -0.22    110.60   
    38. A(H   2,N   7,H   3)          108.08  0.001049   -0.71    107.37   
    39. A(C   0,N   7,H   3)          109.53  0.001702   -0.52    109.01   
    40. A(C  13,C   8,H  16)          108.61  0.000486   -0.30    108.31   
    41. A(C   4,C   8,H  16)          108.44  0.001289   -0.55    107.88   
    42. A(C  11,C   8,H  16)          108.47  0.000009   -0.27    108.19   
    43. A(C  11,C   8,C  13)          110.09  0.000351    0.22    110.30   
    44. A(C   4,C   8,C  13)          111.77 -0.002330    0.71    112.48   
    45. A(C   4,C   8,C  11)          109.40  0.000271    0.16    109.56   
    46. A(H  14,C  11,H  15)          108.38  0.000334   -0.03    108.35   
    47. A(H  12,C  11,H  15)          108.44  0.001375   -0.23    108.21   
    48. A(C   8,C  11,H  15)          110.73 -0.001306    0.26    110.99   
    49. A(H  12,C  11,H  14)          108.37  0.000801   -0.21    108.17   
    50. A(C   8,C  11,H  14)          110.56 -0.001411    0.24    110.80   
    51. A(C   8,C  11,H  12)          110.29  0.000302   -0.06    110.23   
    52. A(H   6,C  13,H  18)          107.97  0.001162   -0.19    107.78   
    53. A(C   8,C  13,H  17)          110.40  0.000418   -0.07    110.32   
    54. A(H   6,C  13,H  17)          108.41  0.000534   -0.14    108.27   
    55. A(H   6,C  13,C   8)          110.31 -0.001105    0.19    110.50   
    56. A(H  17,C  13,H  18)          108.61  0.001463   -0.25    108.36   
    57. A(C   8,C  13,H  18)          111.05 -0.002357    0.44    111.49   
    58. A(C   1,O  19,H  20)          110.63  0.011487   -1.74    108.88   
    59. D(O  19,C   1,C   0,H   5)    -12.61  0.000202   -0.04    -12.64   
    60. D(O  21,C   1,C   0,H   5)    172.74  0.001641   -2.15    170.58   
    61. D(O  21,C   1,C   0,C   4)     49.79 -0.000436   -1.16     48.63   
    62. D(O  19,C   1,C   0,N   7)    104.65  0.001216   -0.16    104.49   
    63. D(O  19,C   1,C   0,C   4)   -135.56 -0.001875    0.95   -134.60   
    64. D(C   8,C   4,C   0,C   1)     83.73  0.001586   -1.88     81.85   
    65. D(C   8,C   4,C   0,H   5)    -38.14  0.000386   -1.18    -39.31   
    66. D(H   9,C   4,C   0,H   5)     82.81 -0.000289   -0.89     81.93   
    67. D(H   9,C   4,C   0,N   7)    -35.89 -0.000586   -0.68    -36.58   
    68. D(C   8,C   4,C   0,N   7)   -156.84  0.000089   -0.97   -157.82   
    69. D(H   9,C   4,C   0,C   1)   -155.32  0.000911   -1.59   -156.91   
    70. D(H   2,N   7,C   0,H   5)     59.16 -0.000917    0.25     59.41   
    71. D(H   2,N   7,C   0,C   4)    179.79 -0.000376   -0.25    179.54   
    72. D(H   3,N   7,C   0,C   1)     60.28  0.001261   -1.00     59.28   
    73. D(H   2,N   7,C   0,C   1)    -58.87 -0.001066    0.34    -58.53   
    74. D(H   3,N   7,C   0,C   4)    -61.06  0.001950   -1.59    -62.65   
    75. D(C  13,C   8,C   4,H  10)     59.76 -0.001502    0.97     60.73   
    76. D(C  13,C   8,C   4,H   9)    178.23  0.000128    0.33    178.56   
    77. D(C  13,C   8,C   4,C   0)    -62.14 -0.000180    0.57    -61.56   
    78. D(C  11,C   8,C   4,H  10)    -62.43 -0.000579    0.11    -62.32   
    79. D(C  11,C   8,C   4,H   9)     56.04  0.001051   -0.53     55.51   
    80. D(C  11,C   8,C   4,C   0)    175.68  0.000743   -0.29    175.39   
    81. D(H  14,C  11,C   8,H  16)    -59.73  0.000434   -0.13    -59.86   
    82. D(H  14,C  11,C   8,C  13)     58.98  0.001232   -0.54     58.44   
    83. D(H  14,C  11,C   8,C   4)   -177.83 -0.001275    0.60   -177.23   
    84. D(H  12,C  11,C   8,H  16)   -179.57  0.000146    0.01   -179.56   
    85. D(H  12,C  11,C   8,C  13)    -60.86  0.000944   -0.40    -61.26   
    86. D(H  12,C  11,C   8,C   4)     62.33 -0.001562    0.74     63.07   
    87. D(H   6,C  13,C   8,H  16)     66.00 -0.000047   -0.12     65.87   
    88. D(H   6,C  13,C   8,C  11)    -52.63 -0.000554    0.27    -52.36   
    89. D(H   6,C  13,C   8,C   4)   -174.41  0.000437   -0.57   -174.99   
    90. D(H  17,C  13,C   8,H  16)   -174.20  0.000177   -0.22   -174.42   
[...]
      px      :     0.006004
      py      :     0.002706

 13 C s       :     3.263170  s :     3.263170
      pz      :     0.956500  p :     3.043776
      px      :     1.042945
      py      :     1.044330
      dz2     :     0.006760  d :     0.029428
      dxz     :     0.004500
      dyz     :     0.007679
      dx2y2   :     0.006482
      dxy     :     0.004008

 14 H s       :     0.886209  s :     0.886209
      pz      :     0.003097  p :     0.011272
      px      :     0.003721
      py      :     0.004455

 15 H s       :     0.884710  s :     0.884710
      pz      :     0.006237  p :     0.011285
      px      :     0.002673
      py      :     0.002374

 16 H s       :     0.895684  s :     0.895684
      pz      :     0.002493  p :     0.011222
      px      :     0.006118
      py      :     0.002611

 17 H s       :     0.871089  s :     0.871089
      pz      :     0.002493  p :     0.011249
      px      :     0.006168
      py      :     0.002588

 18 H s       :     0.878628  s :     0.878628
      pz      :     0.003366  p :     0.011619
      px      :     0.002940
      py      :     0.005313

 19 O s       :     3.848343  s :     3.848343
      pz      :     1.321383  p :     4.598127
      px      :     1.601576
      py      :     1.675168
      dz2     :     0.002436  d :     0.023189
      dxz     :     0.009499
      dyz     :     0.001905
      dx2y2   :     0.004485
      dxy     :     0.004864

 20 H s       :     0.646108  s :     0.646108
      pz      :     0.015715  p :     0.037243
      px      :     0.012495
      py      :     0.009032

 21 O s       :     3.876992  s :     3.876992
      pz      :     1.696219  p :     4.529518
      px      :     1.348047
      py      :     1.485252
      dz2     :     0.002796  d :     0.027272
      dxz     :     0.007188
      dyz     :     0.000712
      dx2y2   :     0.007711
      dxy     :     0.008865



                     *******************************
                     * LOEWDIN POPULATION ANALYSIS *
                     *******************************

----------------------
LOEWDIN ATOMIC CHARGES
----------------------
   0 C :   -0.039584
   1 C :    0.122938
   2 H :    0.127983
   3 H :    0.130633
   4 C :   -0.120528
   5 H :    0.077718
   6 H :    0.069862
   7 N :   -0.244179
   8 C :   -0.067686
   9 H :    0.077540
  10 H :    0.073371
  11 C :   -0.197967
  12 H :    0.069260
  13 C :   -0.207215
  14 H :    0.068979
  15 H :    0.068904
  16 H :    0.063764
  17 H :    0.073830
  18 H :    0.069863
  19 O :   -0.162688
  20 H :    0.181903
  21 O :   -0.236702

-------------------------------
LOEWDIN REDUCED ORBITAL CHARGES
-------------------------------
  0 C s       :     2.893283  s :     2.893283
      pz      :     0.972279  p :     3.023614
      px      :     1.049964
      py      :     1.001370
      dz2     :     0.033190  d :     0.122687
      dxz     :     0.020875
      dyz     :     0.027809
      dx2y2   :     0.026514
      dxy     :     0.014299

  1 C s       :     2.875712  s :     2.875712
      pz      :     0.923507  p :     2.725487
      px      :     0.990213
      py      :     0.811768
      dz2     :     0.038965  d :     0.275863
      dxz     :     0.105518
      dyz     :     0.023576
      dx2y2   :     0.048622
      dxy     :     0.059183

  2 H s       :     0.795001  s :     0.795001
      pz      :     0.022499  p :     0.077015
      px      :     0.014841
      py      :     0.039675

  3 H s       :     0.791985  s :     0.791985
      pz      :     0.020434  p :     0.077382
      px      :     0.045309
      py      :     0.011639

  4 C s       :     2.912782  s :     2.912782
      pz      :     1.060427  p :     3.129908
      px      :     1.075148
      py      :     0.994333
      dz2     :     0.021859  d :     0.077839
      dxz     :     0.005825
      dyz     :     0.013095
      dx2y2   :     0.023908
      dxy     :     0.013151

  5 H s       :     0.883298  s :     0.883298
      pz      :     0.006038  p :     0.038984
      px      :     0.026124
      py      :     0.006822

  6 H s       :     0.891959  s :     0.891959
      pz      :     0.009774  p :     0.038179
      px      :     0.011132
      py      :     0.017272

  7 N s       :     3.232307  s :     3.232307
      pz      :     1.523508  p :     3.955342
      px      :     1.276986
      py      :     1.154848
      dz2     :     0.010777  d :     0.056530
      dxz     :     0.004191
      dyz     :     0.015477
      dx2y2   :     0.022897
      dxy     :     0.003188

  8 C s       :     2.888727  s :     2.888727
      pz      :     1.018322  p :     3.082062
      px      :     1.049914
      py      :     1.013825
      dz2     :     0.026457  d :     0.096897
      dxz     :     0.011422
      dyz     :     0.021470
      dx2y2   :     0.022028
      dxy     :     0.015520

  9 H s       :     0.883300  s :     0.883300
      pz      :     0.025136  p :     0.039160
      px      :     0.007694
      py      :     0.006331

 10 H s       :     0.887076  s :     0.887076
      pz      :     0.007022  p :     0.039553
      px      :     0.025148
      py      :     0.007382

 11 C s       :     2.929985  s :     2.929985
      pz      :     1.075233  p :     3.206024
      px      :     1.089242
      py      :     1.041549
      dz2     :     0.018740  d :     0.061957
      dxz     :     0.004110
      dyz     :     0.011084
      dx2y2   :     0.014450
      dxy     :     0.013574

 12 H s       :     0.892636  s :     0.892636
      pz      :     0.006915  p :     0.038105
      px      :     0.023263
      py      :     0.007926

 13 C s       :     2.929308  s :     2.929308
      pz      :     1.035515  p :     3.216249
      px      :     1.093334
      py      :     1.087400
      dz2     :     0.016605  d :     0.061658
      dxz     :     0.009047
      dyz     :     0.015311
      dx2y2   :     0.012760
      dxy     :     0.007935

 14 H s       :     0.892924  s :     0.892924
      pz      :     0.009582  p :     0.038097
      px      :     0.012369
      py      :     0.016146

 15 H s       :     0.893008  s :     0.893008
      pz      :     0.024126  p :     0.038089
      px      :     0.007329
      py      :     0.006633

 16 H s       :     0.898921  s :     0.898921
      pz      :     0.006908  p :     0.037315
      px      :     0.022982
      py      :     0.007425

 17 H s       :     0.887526  s :     0.887526
      pz      :     0.007272  p :     0.038644
      px      :     0.024284
      py      :     0.007088

 18 H s       :     0.890764  s :     0.890764
      pz      :     0.011178  p :     0.039373
      px      :     0.008447
      py      :     0.019747

 19 O s       :     3.501094  s :     3.501094
      pz      :     1.341499  p :     4.612977
      px      :     1.615472
      py      :     1.656006
      dz2     :     0.007539  d :     0.048616
      dxz     :     0.019591
      dyz     :     0.007367
      dx2y2   :     0.006217
      dxy     :     0.007903

 20 H s       :     0.704444  s :     0.704444
      pz      :     0.049016  p :     0.113653
      px      :     0.039057
      py      :     0.025581

 21 O s       :     3.568814  s :     3.568814
      pz      :     1.683190  p :     4.612168
      px      :     1.451449
      py      :     1.477528
      dz2     :     0.007046  d :     0.055720
      dxz     :     0.013873
      dyz     :     0.001067
      dx2y2   :     0.019268
      dxy     :     0.014466



                      *****************************
                      * MAYER POPULATION ANALYSIS *
                      *****************************

  NA   - Mulliken gross atomic population
  ZA   - Total nuclear charge
  QA   - Mulliken gross atomic charge
  VA   - Mayer's total valence
  BVA  - Mayer's bonded valence
  FA   - Mayer's free valence

  ATOM       NA         ZA         QA         VA         BVA        FA
  0 C      6.0300     6.0000    -0.0300     3.8539     3.8539     0.0000
  1 C      5.4937     6.0000     0.5063     3.8943     3.8943     0.0000
  2 H      0.7570     1.0000     0.2430     0.9174     0.9174     0.0000
  3 H      0.7519     1.0000     0.2481     0.9236     0.9236     0.0000
  4 C      6.1745     6.0000    -0.1745     3.8445     3.8445     0.0000
  5 H      0.8803     1.0000     0.1197     0.9525     0.9525    -0.0000
  6 H      0.8982     1.0000     0.1018     0.9577     0.9577     0.0000
  7 N      7.5588     7.0000    -0.5588     2.9042     2.9042    -0.0000
  8 C      6.0726     6.0000    -0.0726     3.9330     3.9330    -0.0000
  9 H      0.8863     1.0000     0.1137     0.9603     0.9603    -0.0000
 10 H      0.8881     1.0000     0.1119     0.9663     0.9663     0.0000
 11 C      6.3192     6.0000    -0.3192     3.8821     3.8821     0.0000
 12 H      0.8933     1.0000     0.1067     0.9582     0.9582     0.0000
 13 C      6.3364     6.0000    -0.3364     3.8726     3.8726     0.0000
 14 H      0.8975     1.0000     0.1025     0.9576     0.9576    -0.0000
 15 H      0.8960     1.0000     0.1040     0.9577     0.9577     0.0000
 16 H      0.9069     1.0000     0.0931     0.9488     0.9488    -0.0000
 17 H      0.8823     1.0000     0.1177     0.9594     0.9594     0.0000
 18 H      0.8902     1.0000     0.1098     0.9649     0.9649     0.0000
 19 O      8.4697     8.0000    -0.4697     2.0297     2.0297     0.0000
 20 H      0.6834     1.0000     0.3166     0.9194     0.9194     0.0000
 21 O      8.4338     8.0000    -0.4338     2.0871     2.0871     0.0000

  Mayer bond orders larger than 0.100000
B(  0-C ,  1-C ) :   0.9015 B(  0-C ,  4-C ) :   0.9778 B(  0-C ,  5-H ) :   0.9270 
B(  0-C ,  7-N ) :   1.0124 B(  1-C , 19-O ) :   1.0475 B(  1-C , 21-O ) :   1.8717 
B(  2-H ,  7-N ) :   0.9041 B(  3-H ,  7-N ) :   0.8980 B(  4-C ,  8-C ) :   0.9963 
B(  4-C ,  9-H ) :   0.9334 B(  4-C , 10-H ) :   0.9308 B(  6-H , 13-C ) :   0.9564 
B(  8-C , 11-C ) :   1.0035 B(  8-C , 13-C ) :   1.0053 B(  8-C , 16-H ) :   0.9400 
B( 11-C , 12-H ) :   0.9582 B( 11-C , 14-H ) :   0.9581 B( 11-C , 15-H ) :   0.9584 
B( 13-C , 17-H ) :   0.9544 B( 13-C , 18-H ) :   0.9470 B( 19-O , 20-H ) :   0.8534 


-------
TIMINGS
-------

Total SCF time: 0 days 0 hours 0 min 3 sec 

Total time                  ....       3.801 sec
Sum of individual times     ....       3.335 sec  ( 87.8%)

SCF preparation             ....       0.030 sec  (  0.8%)
Fock matrix formation       ....       3.271 sec  ( 86.1%)
  Startup                   ....       0.001 sec  (  0.0% of F)
  Split-RI-J                ....       1.193 sec  ( 36.5% of F)
  XC integration            ....       2.473 sec  ( 75.6% of F)
    Basis function eval.    ....       0.927 sec  ( 37.5% of XC)
    Density eval.           ....       0.566 sec  ( 22.9% of XC)
    XC-Functional eval.     ....       0.467 sec  ( 18.9% of XC)
    XC-Potential eval.      ....       0.445 sec  ( 18.0% of XC)
Diagonalization             ....       0.000 sec  (  0.0%)
Density matrix formation    ....       0.002 sec  (  0.1%)
Total Energy calculation    ....       0.000 sec  (  0.0%)
Population analysis         ....       0.008 sec  (  0.2%)
Orbital Transformation      ....       0.003 sec  (  0.1%)
Orbital Orthonormalization  ....       0.000 sec  (  0.0%)
DIIS solution               ....       0.004 sec  (  0.1%)
SOSCF solution              ....       0.016 sec  (  0.4%)
Finished LeanSCF after   3.8 sec

Maximum memory used throughout the entire LEANSCF-calculation: 21.9 MB



-------------------------------------------------------------------------------
                          DFT DISPERSION CORRECTION                            
-------------------------------------------------------------------------------
Active option DFTDOPT                   ...         2   
Final C6-coefficient scaling factor     ...     1.250
Final VDW-radii scaling factor          ...     1.100
Damping factor alpha                    ...    20.000
-------------------------   ----------------
Dispersion correction           -0.033655581
-------------------------   ----------------


-------------------------   --------------------
FINAL SINGLE POINT ENERGY      -441.408556231451
-------------------------   --------------------

                                *** OPTIMIZATION RUN DONE ***


------------------------------------------------------------------------------
                              ORCA PROPERTY CALCULATIONS
------------------------------------------------------------------------------

GBWName                                 ... 5.gbw
Number of atoms                         ...     22
Number of basis functions               ...    191
Max core memory                         ...   4096 MB

Electric properties:
Dipole moment                           ... YES
Quadrupole moment                       ...  NO
Static polarizability (Dipole/Dipole)   ...  NO
Static polarizability (Dipole/Quad.)    ...  NO
Static polarizability (Quad./Quad.)     ...  NO
Static polarizability (Velocity)        ...  NO
Static hyperpolarizability              ...  NO

Atomic electric properties:
Dipole moment                           ...  NO
Quadrupole moment                       ...  NO
Static polarizability                   ...  NO

Choice of electric origin               ... Center of mass
Position of electric origin             ...   -17.665972    10.664562    -3.169600

General magnetic properties:
Magnetizability                         ...  NO

EPR properties:
g-Tensor (aka g-matrix)                 ...  NO
Zero-Field splitting spin-orbit         ...  NO
Zero-field splitting spin-spin          ...  NO
Hyperfine couplings                     ...  NO (   0 nuclei)
Quadrupole couplings                    ...  NO (   0 nuclei)
Contact density                         ...  NO (   0 nuclei)

NMR properties:
Chemical shifts                         ...  NO (   0 nuclei)
Spin-rotation constants                 ...  NO (   0 nuclei)
Spin-spin couplings                     ...  NO (   0 nuclei,    0 pairs)

Choice of magnetic origin               ... GIAO
Position of magnetic origin             ...     0.000000     0.000000     0.000000

Properties with geometric perturbations:
SCF Hessian                             ...  NO
IR spectrum                             ...  NO
VCD spectrum                            ...  NO
X-ray spectroscopy properties:
SCF XES/XAS/RIXS spectra                ...  NO

SCF SOC stabilization energy            ...  NO
Diagonal Born-Oppenheimer correction    ...  NO

-------------
DIPOLE MOMENT
-------------

Method             : SCF
Type of density    : Electron Density
Multiplicity       :   1
Irrep              :   0
Energy             :  -441.3749006508559205 Eh
Basis              : AO
                                X                 Y                 Z
Electronic contribution:      3.372384659      10.070366231       3.736022969
Nuclear contribution   :     -3.622875824      -9.793782552      -3.415800094
                        -----------------------------------------
Total Dipole Moment    :     -0.250491165       0.276583679       0.320222875
                        -----------------------------------------
Magnitude (a.u.)       :      0.491718461
Magnitude (Debye)      :      1.249849000



--------------------
Rotational spectrum 
--------------------
 
Rotational constants in cm-1:             0.076618             0.035314             0.028868 
Rotational constants in MHz :          2296.944195          1058.678994           865.450452 

Dipole components along the rotational axes: 
x,y,z [a.u.] :    -0.271211     0.248125    -0.326597 
x,y,z [Debye]:    -0.689364     0.630683    -0.830143 

 

Dipole moment calculation done in   0.0 sec 

Maximum memory used throughout the entire PROP-calculation: 12.3 MB

--------------------------------
SUGGESTED CITATIONS FOR THIS RUN
--------------------------------

Below you find a list of papers that are relevant to this ORCA run
We neither can nor want to force you to cite these papers, but we appreciate if you do
You receive ORCA, which is the product of decades of hard work by many enthusiastic individuals, for free
The only thing we kindly ask in return is that you cite our papers,
We deeply appreciate it, if you show your appreciation for ORCA by not just citing the generic ORCA reference.

Please note that relegating all ORCA citations to the supporting information does *not* help us.
SI sections are not indexed - citations you put there will not count into any citation statistics
But we need these citations in order to attract the funding resources that allow us to do what we are doing

Therefore, if you are a happy ORCA user, please consider citing a few of the papers listed below in the main body of your paper

In addition to the list printed below, the program has created the file 5.bibtex that contains the list in bibtex format
You can import this file easily into all common literature databanks and citation aid programs


List of essential papers. We consider these as the minimum necessary citations

  1. Neese, F.
     Software update: the ORCA program system, version 6.0
     WIRES Comput. Molec. Sci. 2025 15(1), e70019
     doi.org/10.1002/wcms.7019

List of papers to cite with high priority. The work reported in these papers was absolutely
necessary for this run to complete.
Our perspective: the developers of density functionals and basis sets usually get cited in chemistry papers
Good! But without the algorithms to do something with them, the functionals or basis sets would not do anything.
Hence, in our opinion, the algorithm design and method developments papers are equally worthy of getting cited

  1. Neese, F.
     An improvement of the resolution of the identity approximation for the formation of the Coulomb matrix
     J. Comp. Chem. 2003 24(14), 1740-1747
     doi.org/10.1002/jcc.10318
  2. Grimme, S.
     Semiempirical GGA-type density functional constructed with a long-range dispersion correction
     J.Comput.Chem. 2006 27(15), 1787-1799
     doi.org/10.1002/jcc.20495
  3. Neese, F.
     The SHARK Integral Generation and Digestion System
     J. Comp. Chem. 2022 44(3), 381
     doi.org/10.1002/jcc.26942

List of suggested additional citations. These are papers that are important in the 'surrounding' of 
of this run, or papers that preceded the highly important papers. If you like your results we are grateful for a citation.

  1. Neese, F.
     The ORCA program system
     WIRES Comput. Molec. Sci. 2012 2(1), 73-78
     doi.org/10.1002/wcms.81
  2. Neese, F.
     Software update: the ORCA program system, version 4.0
     WIRES Comput. Molec. Sci. 2018 8(1), 1-6
     doi.org/10.1002/wcms.1327
  3. Neese, F.; Wennmohs, F.; Becker, U.; Riplinger, C.
     The ORCA quantum chemistry program package
     J. Chem. Phys. 2020 152(22), 224108
     doi.org/10.1063/5.0004608
  4. Neese, F.
     Software update: The ORCA program system—Version 5.0
     WIRES Comput. Molec. Sci. 2022 12(1), e1606
     doi.org/10.1002/wcms.1606

List of optional additional citations

  1. Neese, F.
     Approximate second-order SCF convergence for spin unrestricted wavefunctions
     Chem. Phys. Lett. 2000 325(1-3), 93-98
     doi.org/10.1016/s0009-2614(00)00662-x

Timings for individual modules:

Sum of individual times          ...       71.796 sec (=   1.197 min)
Startup calculation              ...        3.740 sec (=   0.062 min)   5.2 %
SCF iterations                   ...       42.897 sec (=   0.715 min)  59.7 %
Property calculations            ...        0.036 sec (=   0.001 min)   0.0 %
SCF Gradient evaluation          ...       25.109 sec (=   0.418 min)  35.0 %
Geometry relaxation              ...        0.014 sec (=   0.000 min)   0.0 %
                             ****ORCA TERMINATED NORMALLY****
TOTAL RUN TIME: 0 days 0 hours 1 minutes 11 seconds 977 msec
