
                                 *****************
                                 * O   R   C   A *
                                 *****************

                                            #,                                       
                                            ###                                      
                                            ####                                     
                                            #####                                    
                                            ######                                   
                                           ########,                                 
                                     ,,################,,,,,                         
                               ,,#################################,,                 
                          ,,##########################################,,             
                       ,#########################################, ''#####,          
                    ,#############################################,,   '####,        
                  ,##################################################,,,,####,       
                ,###########''''           ''''###############################       
              ,#####''   ,,,,##########,,,,          '''####'''          '####       
            ,##' ,,,,###########################,,,                        '##       
           ' ,,###''''                  '''############,,,                           
         ,,##''                                '''############,,,,        ,,,,,,###''
      ,#''                                            '''#######################'''  
     '                                                          ''''####''''         
             ,#######,   #######,   ,#######,      ##                                
            ,#'     '#,  ##    ##  ,#'     '#,    #''#        ,####,    ,#,          
            ##       ##  ##   ,#'  ##            #'  '#       #'       ,# #          
            ##       ##  #######   ##           ,######,      #####,      #          
            '#,     ,#'  ##    ##  '#,     ,#' ,#      #,     #,   #      #          
             '#######'   ##     ##  '#######'  #'      '#     '####' #    #          



                #########################################################
                #                        -***-                          #
                #          Department of theory and spectroscopy        #
                #                                                       #
                #                      Frank Neese                      #
                #                                                       #
                #     Directorship, Architecture, Infrastructure        #
                #                    SHARK, DRIVERS                     #
                #        Core code/Algorithms in most modules           #
                #                                                       #
                #        Max Planck Institute fuer Kohlenforschung      #
                #                Kaiser Wilhelm Platz 1                 #
                #                 D-45470 Muelheim/Ruhr                 #
                #                      Germany                          #
                #                                                       #
                #                  All rights reserved                  #
                #                        -***-                          #
                #########################################################


                         Program Version 6.1.0  -  RELEASE   -
                                (GIT: $679e74b$)
                          ($2025-06-10 18:02:51 +0200$)


 With contributions from (in alphabetic order):
[Max-Planck-Institut fuer Kohlenforschung]                               
  Daniel Aravena         : Magnetic Suceptibility                        
  Michael Atanasov       : Ab Initio Ligand Field Theory (pilot matlab implementation)
  Alexander A. Auer      : GIAO ZORA, VPT2 properties, NMR spectrum      
  Ute Becker             : All parallelization in ORCA, NUMFREQ, NUMCALC 
  Giovanni Bistoni       : ED, misc. LED, open-shell LED, HFLD           
  Dmytro Bykov           : pre 5.0 version of the SCF Hessian            
  Marcos Casanova-Páez   : Triplet and SCS-CIS(D). UHF-(DLPNO)-IP/EA/STEOM-CCSD. UHF-CVS-IP/STEOM-CCSD   
  Vijay G. Chilkuri      : MRCI spin determinant printing, contributions to CSF-ICE 
  Pauline Colinet        : FMM embedding                                 
  Dipayan Datta          : RHF DLPNO-CCSD density                        
  Achintya Kumar Dutta   : EOM-CC, STEOM-CC                              
  Nicolas Foglia         : Exact transition moments, OPA infrastructure, MCD improvements    
  Dmitry Ganyushin       : Spin-Orbit,Spin-Spin,Magnetic field MRCI      
  Miquel Garcia-Rates    : C-PCM and meta-GGA Hessian, CCSD/C-PCM, Gaussian charge scheme 
  Tiago L. C. Gouveia    : GS-ROHF, GS-ROCIS                             
  Yang Guo               : DLPNO-NEVPT2, F12-NEVPT2, CIM, IAO-localization        
  Andreas Hansen         : Spin unrestricted coupled pair/coupled cluster methods 
  Ingolf Harden          : AUTO-CI MPn and infrastructure                
  Benjamin Helmich-Paris : MC-RPA, TRAH-(SCF,CASSCF), AVAS, COSX integrals, SCF dyn. polar., MC-PDFT, srDFT 
  Lee Huntington         : MR-EOM, pCC                                   
  Robert Izsak           : Overlap fitted RIJCOSX, COSX-SCS-MP3, EOM     
  Riya Kayal             : Wick's Theorem for AUTO-CI, AUTO-CI UHF-CCSDT 
  Emily Kempfer          : AUTO-CI RHF CISDT and CCSDT, approximate NEVPT4
  Christian Kollmar      : KDIIS, OOCD, Brueckner-CCSD(T), CCSD density, CASPT2, CASPT2-K, improved NEVPT2 
  Axel Koslowski         : Symmetry handling                             
  Simone Kossmann        : meta-GGA functionals, TD-DFT gradient, OOMP2, (MP2 Hessian; deprecated post 5.0) 
  Lucas Lang             : DCDCAS, Hyperfine gauge corrections, ICE-SOC+SSC
  Marvin Lechner         : AUTO-CI (C++ implementation), FIC-MRCC        
  Spencer Leger          : CASSCF response                               
  Dagmar Lenk            : GEPOL surface, SMD, ORCA-2-JSON               
  Dimitrios Liakos       : Extrapolation schemes; Compound Job, Property file
  Dimitrios Manganas     : Further ROCIS development; embedding schemes. LFT, Crystal Embedding 
  Dimitrios Pantazis     : SARC Basis sets                               
  Anastasios Papadopoulos: AUTO-CI, single reference methods and gradients 
  Taras Petrenko         : pre 6.0 DFT Hessian and TD-DFT gradient,  ECA, NRVS 
  Petra Pikulova         : Analytic Raman intensities                    
  Peter Pinski           : DLPNO-MP2, DLPNO-MP2 Gradient                 
  Shashank Vittal Rao    : ES-AILFT, MagRelax                            
  Christoph Reimann      : Effective Core Potentials                     
  Marius Retegan         : Local ZFS, SOC                                
  Christoph Riplinger    : Optimizer, TS searches, QM/MM, DLPNO-CCSD(T), (RO)-DLPNO pert. Triples 
  Michael Roemelt        : Original ROCIS implementation, recursive CI coupling coefficients
  Masaaki Saitow         : Open-shell DLPNO-CCSD energy and density      
  Barbara Sandhoefer     : DKH picture change effects                    
  Yorick L. A. Schmerwitz: GMF and freeze-and-release deltaSCF, NEB S-IDPP initial path                    
  Kantharuban Sivalingam : CASSCF convergence/infrastructure, NEVPT2, NEVPT3, NEVPT4(SD), FIC-MRCI and CEPA variants
  Bernardo de Souza      : ESD, SOC TD-DFT                               
  Georgi L. Stoychev     : AutoAux, RI-MP2 NMR, DLPNO-MP2 response, X2C  
  Van Anh Tran           : RI-MP2 g-tensors                              
  Willem Van den Heuvel  : Paramagnetic NMR                              
  Zikuan Wang            : NOTCH, Electric field optimization            
  Frank Wennmohs         : Technical directorship and infrastructure     
  Hang Xu                : AUTO-CI-Response properties                   
                                                                         
[FACCTs GmbH]                                                            
  Markus Bursch, Nicolas Foglia, Miquel Garcia-Rates, Ingolf Harden, Hagen Neugebauer, Anastasios Papadopoulos, 
  Christoph Riplinger, Bernardo de Souza, Georgi L. Stoychev                                                    
                                                                 
  APM, various basis sets, CI-OPT, improved COSX, DLPNO-Multilevel,           
  DOCKER, DRACO, updates on ESD, Fragmentator, GOAT, IRC, LR-CPCM, L-BFGS, MBIS, meta-GGA TD-DFT gradient, ML-optimized integration grids, 
  MM, NACMEs, nearIR, NEB, NEB-TS, NL-DFT gradient (VV10), 2- and 3-layer-ONIOM, interface openCOSMO-RS, QMMM,   
  Crystal-QMMM, RESP, rigid body optimization, SF, symmetry and pop. for TD-DFT, various functionals, SOLVATOR                                   
                                                                         
[Other institutions]                                                     
  V. Asgeirsson          : NEB                                           
  Christoph Bannwarth    : sTDA-DFT, sTD-DFT, PBEh-3c, B97-3c, D3        
  Giovanni Bistoni       : ETS/NOCV, ADLD/ADEX, COVALED                  
  Martin Brehm           : Molecular dynamics                            
  Ronald Cardenas        : ETS/NOCV                                      
  Martina Colucci        : COVALED                                       
  Sebastian Ehlert       : rSCAN, r2SCAN, r2SCAN-3c, D4, dhf basis sets  
  Marvin Friede          : D4 for Fr, Ra, Ac-Lr                          
  Lars Goerigk           : TD-DFT with DH, B97 family of functionals     
  Stefan Grimme          : VdW corrections, initial TS optimization, DFT functionals, gCP, sTDA/sTD-DF 
  Waldemar Hujo          : DFT-NL                                        
  H. Jonsson             : NEB                                           
  Holger Kruse           : gCP                                           
  Marcel Mueller         : wB97X-3c, vDZP basis set                      
  Hagen Neugebauer       : wr2SCAN, Native XTB                           
  Gianluca Regni         : ADLD/ADEX                                     
  Tobias Risthaus        : pre 6.0 range-separated hybrid DFT and stability analysis
  Lukas Wittmann         : regularized MP2, r2SCAN double-hybrids, wr2SCAN        
                                                                         
We gratefully acknowledge several colleagues who have allowed us to      
interface, adapt or use parts of their codes:                            
  Ed Valeev, F. Pavosevic, A. Kumar             : LibInt (2-el integral package), F12 methods 
  Garnet Chan, S. Sharma, J. Yang, R. Olivares  : DMRG                   
  Ulf Ekstrom                                   : XCFun DFT Library      
  Mihaly Kallay                                 : mrcc  (arbitrary order and MRCC methods)
  Frank Weinhold                                : gennbo (NPA and NBO analysis)           
  Simon Mueller                                 : openCOSMO-RS                            
  Christopher J. Cramer and Donald G. Truhlar   : smd solvation model                     
  S Lehtola, MJT Oliveira, MAL Marques          : LibXC Library                           
  Liviu Ungur et al                             : ANISO software                          


 Your calculation uses the libint2 library for the computation of 2-el integrals
 For citations please refer to: http://libint.valeyev.net

 Your ORCA version has been built with support for libXC version: 7.0.0
 For citations please refer to: https://libxc.gitlab.io

 This ORCA versions uses:
   CBLAS   interface :  Fast vector & matrix operations
   LAPACKE interface :  Fast linear algebra routines
   SCALAPACK package :  Parallel linear algebra routines
   Shared memory     :  Shared parallel matrices
   BLAS/LAPACK       :  OpenBLAS 0.3.29  USE64BITINT DYNAMIC_ARCH NO_AFFINITY Haswell SINGLE_THREADED
        Core in use  :  Haswell
   Copyright (c) 2011-2014, The OpenBLAS Project


  ***********************************
  * Starting time: Thu Aug 14 12:13:54 2025
  * Host name:     CHEMLAB02
  * Process ID:    1769890
  * Working dir.:  /home/vivek/mm-project/vivek/MP2/d/1
  ***********************************



***************************************
The coordinates will be read from file: /home/vivek/mm-project/vivek/xtb-goat/d/D_CONF/1.xyz
***************************************


================================================================================

----- Orbital basis set information -----
Your calculation utilizes the basis: 6-31G**
   H-He, Li-Ne : W. J. Hehre, R. Ditchfield and J.A. Pople, J. Chem. Phys. 56, 2257 (1972).
                 Note: He and Ne are unpublished basis sets taken from the Gaussian program.
                 Note: Li and B from J. D. Dill and J. A. Pople, J. Chem. Phys. 62, 2921 (1975).
   Na - Ar     : M. M. Francl, W. J. Pietro, W. J. Hehre, J. S. Binkley, M. S. Gordon, 
                 D. J. DeFrees and J. A. Pople, J. Chem. Phys. 77, 3654 (1982).
   K - Zn      : V. A. Rassolov, J. A. Pople, M. A. Ratner, and T. L. Windus, J. Chem. Phys. 109, 1223 (1998).

================================================================================
                                        WARNINGS
                       Please study these warnings very carefully!
================================================================================


WARNING: No MP2 level density has been requested!
         To calculate MP2 level properties use
         %mp2 Density relaxed end
         or
         %mp2 Density unrelaxed end

WARNING: Post HF methods need fully converged wavefunctions
  ===> : Setting SCFConvForced true
         You can overwrite this default with %scf ConvForced false 


================================================================================
                                       INPUT FILE
================================================================================
NAME = 1.inp
|  1> ! MP2 6-31G** 
|  2> 
|  3> * xyzfile 0 1 /home/vivek/mm-project/vivek/xtb-goat/d/D_CONF/1.xyz
|  4> 
|  5>                          ****END OF INPUT****
================================================================================

                       ****************************
                       * Single Point Calculation *
                       ****************************

---------------------------------
CARTESIAN COORDINATES (ANGSTROEM)
---------------------------------
  C     -4.383114    1.357501    1.271349
  C     -3.935311    1.138097   -0.151622
  O     -4.400642    3.933498   -0.477047
  H     -2.687408    5.187029    0.484796
  O     -5.379758    0.539153    1.612005
  C     -2.806563    2.108175   -0.519457
  H     -3.593716    0.108646   -0.260199
  H     -4.798008    1.291261   -0.800910
  C     -3.293833    3.533434   -0.232492
  O     -3.916869    2.165306    2.030876
  N     -1.582192    1.729775    0.152881
  O     -2.336575    4.305567    0.283943
  H     -0.834355    2.367943   -0.095978
  H     -5.663949    0.707423    2.524632
  H     -2.630976    2.048661   -1.602293
  H     -1.716540    1.802853    1.156974

----------------------------
CARTESIAN COORDINATES (A.U.)
----------------------------
  NO LB      ZA    FRAG     MASS         X           Y           Z
   0 C     6.0000    0    12.011   -8.282886    2.565306    2.402501
   1 C     6.0000    0    12.011   -7.436660    2.150692   -0.286524
   2 O     8.0000    0    15.999   -8.316008    7.433234   -0.901488
   3 H     1.0000    0     1.008   -5.078465    9.802064    0.916131
   4 O     8.0000    0    15.999  -10.166269    1.018852    3.046248
   5 C     6.0000    0    12.011   -5.303636    3.983872   -0.981631
   6 H     1.0000    0     1.008   -6.791140    0.205311   -0.491706
   7 H     1.0000    0     1.008   -9.066921    2.440130   -1.513500
   8 C     6.0000    0    12.011   -6.224443    6.677222   -0.439346
   9 O     8.0000    0    15.999   -7.401810    4.091836    3.837800
  10 N     7.0000    0    14.007   -2.989909    3.268802    0.288904
  11 O     8.0000    0    15.999   -4.415486    8.136343    0.536574
  12 H     1.0000    0     1.008   -1.576702    4.474764   -0.181372
  13 H     1.0000    0     1.008  -10.703312    1.336835    4.770863
  14 H     1.0000    0     1.008   -4.971824    3.871408   -3.027894
  15 H     1.0000    0     1.008   -3.243790    3.406899    2.186365

--------------------------------
INTERNAL COORDINATES (ANGSTROEM)
--------------------------------
 C      0   0   0     0.000000000000     0.00000000     0.00000000
 C      1   0   0     1.507817001383     0.00000000     0.00000000
 O      2   1   0     2.852490213147    85.21699938     0.00000000
 H      3   2   1     2.330590214989   111.10590897    76.34942053
 O      1   2   3     1.333806146402   111.94194961   125.72119496
 C      2   1   3     1.533109312540   110.67156053    53.33165581
 H      2   1   3     1.090066963208   108.93455300   174.45954453
 H      2   1   3     1.090540926428   107.84861849   292.31508067
 C      3   2   1     1.202033173287    60.02772173    95.86632316
 O      1   2   3     1.202836389804   125.34644085   305.72724475
 N      6   2   1     1.447173257678   110.24173701    71.99991377
 O      4   3   2     0.969742487731    72.03550149    23.29387257
 H     11   6   2     1.014124529154   110.20274383   179.60033056
 H      5   1   2     0.970549872211   110.64531120   181.05326768
 H      6   2   1     1.098592628651   108.65580643   190.13694592
 H     11   6   2     1.015673641832   109.18179304   297.03093180

---------------------------
INTERNAL COORDINATES (A.U.)
---------------------------
 C      0   0   0     0.000000000000     0.00000000     0.00000000
 C      1   0   0     2.849361192685     0.00000000     0.00000000
 O      2   1   0     5.390425302538    85.21699938     0.00000000
 H      3   2   1     4.404177236725   111.10590897    76.34942053
 O      1   2   3     2.520528332441   111.94194961   125.72119496
 C      2   1   3     2.897156734064   110.67156053    53.33165581
 H      2   1   3     2.059928028099   108.93455300   174.45954453
 H      2   1   3     2.060823688782   107.84861849   292.31508067
 C      3   2   1     2.271513501401    60.02772173    95.86632316
 O      1   2   3     2.273031360644   125.34644085   305.72724475
 N      6   2   1     2.734761125347   110.24173701    71.99991377
 O      4   3   2     1.832547722239    72.03550149    23.29387257
 H     11   6   2     1.916417625793   110.20274383   179.60033056
 H      5   1   2     1.834073457791   110.64531120   181.05326768
 H      6   2   1     2.076039200895   108.65580643   190.13694592
 H     11   6   2     1.919345024505   109.18179304   297.03093180

---------------------
BASIS SET INFORMATION
---------------------
There are 4 groups of distinct atoms

 Group   1 Type C   : 10s4p1d contracted to 3s2p1d pattern {631/31/1}
 Group   2 Type O   : 10s4p1d contracted to 3s2p1d pattern {631/31/1}
 Group   3 Type H   : 4s1p contracted to 2s1p pattern {31/1}
 Group   4 Type N   : 10s4p1d contracted to 3s2p1d pattern {631/31/1}

Atom   0C    basis set group =>   1
Atom   1C    basis set group =>   1
Atom   2O    basis set group =>   2
Atom   3H    basis set group =>   3
Atom   4O    basis set group =>   2
Atom   5C    basis set group =>   1
Atom   6H    basis set group =>   3
Atom   7H    basis set group =>   3
Atom   8C    basis set group =>   1
Atom   9O    basis set group =>   2
Atom  10N    basis set group =>   4
Atom  11O    basis set group =>   2
Atom  12H    basis set group =>   3
Atom  13H    basis set group =>   3
Atom  14H    basis set group =>   3
Atom  15H    basis set group =>   3
------------------------------------------------------------------------------
                             ORCA STARTUP CALCULATIONS
------------------------------------------------------------------------------
------------------------------------------------------------------------------
                   ___                                                        
                  /   \      - P O W E R E D   B Y -                         
                 /     \                                                     
                 |  |  |   _    _      __       _____    __    __             
                 |  |  |  | |  | |    /  \     |  _  \  |  |  /  |          
                  \  \/   | |  | |   /    \    | | | |  |  | /  /          
                 / \  \   | |__| |  /  /\  \   | |_| |  |  |/  /          
                |  |  |   |  __  | /  /__\  \  |    /   |      \           
                |  |  |   | |  | | |   __   |  |    \   |  |\   \          
                \     /   | |  | | |  |  |  |  | |\  \  |  | \   \       
                 \___/    |_|  |_| |__|  |__|  |_| \__\ |__|  \__/        
                                                                              
                      - O R C A' S   B I G   F R I E N D -                    
                                      &                                       
                       - I N T E G R A L  F E E D E R -                       
                                                                              
 v1 FN, 2020, v2 2021, v3 2022-2024                                           
------------------------------------------------------------------------------


----------------------
SHARK INTEGRAL PACKAGE
----------------------

Number of atoms                             ...     16
Number of basis functions                   ...    161
Number of shells                            ...     75
Maximum angular momentum                    ...      2
Integral batch strategy                     ... SHARK/LIBINT Hybrid
RI-J (if used) integral strategy            ... SPLIT-RIJ (Revised 2003 algorithm where possible)
Printlevel                                  ...      1
Contraction scheme used                     ... SEGMENTED contraction
Prescreening option                         ... SCHWARTZ
   Thresh                                   ... 1.000e-10
   Tcut                                     ... 1.000e-11
   Tpresel                                  ... 1.000e-11 
Coulomb Range Separation                    ... NOT USED
Exchange Range Separation                   ... NOT USED
Multipole approximations                    ... NOT USED
Finite Nucleus Model                        ... NOT USED
CABS basis                                  ... NOT available
Auxiliary Coulomb fitting basis             ... NOT available
Auxiliary J/K fitting basis                 ... NOT available
Auxiliary Correlation fitting basis         ... NOT available
Auxiliary 'external' fitting basis          ... NOT available

Checking pre-screening integrals            ... done (  0.0 sec) Dimension = 75
   => SHARK Basis and OBASIS are compatible. Storing Pre-screening
Shell pair information
Shell pair cut-off parameter TPreSel        ...   1.0e-11
Total number of shell pairs                 ...      2850
Shell pairs after pre-screening             ...      2626
Total number of primitive shell pairs       ...     14745
Primitive shell pairs kept                  ...      8960
          la=0 lb=0:    777 shell pairs
          la=1 lb=0:    937 shell pairs
          la=1 lb=1:    308 shell pairs
          la=2 lb=0:    346 shell pairs
          la=2 lb=1:    214 shell pairs
          la=2 lb=2:     44 shell pairs

Checking whether 4 symmetric matrices of dimension 161 fit in memory
:Max Core in MB      =   4096.00
 MB in use           =      4.86
 MB left             =   4091.14
 MB needed           =      0.40
 Data fit in memory  = YES
Calculating Nuclear repulsion               ... done (  0.0 sec) ENN=    485.336435240437 Eh

Diagonalization of the overlap matrix:
Smallest eigenvalue                        ... 2.754e-03
Time for diagonalization                   ...    0.001 sec
Threshold for overlap eigenvalues          ... 1.000e-07
Number of eigenvalues below threshold      ... 0
Time for construction of square roots      ...    0.000 sec
Total time needed                          ...    0.002 sec

-------------------
DFT GRID GENERATION
-------------------

General Integration Accuracy     IntAcc      ... 4.388
Radial Grid Type                 RadialGrid  ... OptM3 with GC (2021)
Angular Grid (max. ang.)         AngularGrid ... 4 (Lebedev-302)
Angular grid pruning method      GridPruning ... 4 (adaptive)
Weight generation scheme         WeightScheme... mBecke (2022)
Basis function cutoff            BFCut       ... 1.0000e-10
Integration weight cutoff        WCut        ... 1.0000e-14
Partially contracted basis set               ... off
Rotationally invariant grid construction     ... off
Angular grids for H and He will be reduced by one unit

Total number of grid points                  ...    76923
Total number of batches                      ...     1210
Average number of points per batch           ...       63
Average number of grid points per atom       ...     4808
Grids setup in   0.3 sec
Initializing property integral containers    ... done (  0.0 sec)

SHARK setup successfully completed in   0.3 seconds

Maximum memory used throughout the entire STARTUP-calculation: 30.2 MB
-------------------------------------------------------------------------------
                                 ORCA GUESS
                   Start orbitals & Density for SCF / CASSCF
-------------------------------------------------------------------------------

------------
SCF SETTINGS
------------
Hamiltonian:
 Ab initio Hamiltonian  Method          .... Hartree-Fock(GTOs)


General Settings:
 Integral files         IntName         .... 1
 Hartree-Fock type      HFTyp           .... RHF
 Total Charge           Charge          ....    0
 Multiplicity           Mult            ....    1
 Number of Electrons    NEL             ....   70
 Basis Dimension        Dim             ....  161
 Nuclear Repulsion      ENuc            ....    485.3364352404 Eh

Convergence Acceleration:
 AO-DIIS                CNVDIIS         .... on
   Start iteration      DIISMaxIt       ....    12
   Startup error        DIISStart       ....  0.200000
   # of expansion vecs  DIISMaxEq       ....     5
   Bias factor          DIISBfac        ....   1.050
   Max. coefficient     DIISMaxC        ....  10.000
 MO-DIIS                CNVKDIIS        .... off
 Trust-Rad. Augm. Hess. CNVTRAH         .... auto
   Auto Start mean grad. ratio tolernc. ....  1.125000
   Auto Start start iteration           ....    50
   Auto Start num. interpolation iter.  ....    10
   Max. Number of Micro iterations      ....    24
   Max. Number of Macro iterations      .... Maxiter - #DIIS iter
   Number of Davidson start vectors     ....     2
   Converg. threshold    (grad. norm)   ....   5.000e-05
   Grad. Scal. Fac. for Micro threshold ....   0.100
   Minimum threshold for Micro iter.    ....   1.000e-02
   NR start threshold (gradient norm)   ....   1.000e-04
   Initial trust radius                 ....   0.400
   Minimum AH scaling param. (alpha)    ....   1.000
   Maximum AH scaling param. (alpha)    .... 1000.000
   Quad. conv. algorithm                .... NR
   White noise on init. David. guess    .... on
   Maximum white noise                  ....   0.010
   Pseudo random numbers                .... off
   Inactive MOs                         .... canonical
   Orbital update algorithm             .... Taylor
   Preconditioner                       .... Diag
   Full preconditioner red. dimension   ....   250
 SOSCF                 CNVSOSCF           .... on
   Start iteration     SOSCFMaxIt         ....   150
   Startup grad/error  SOSCFStart         ....  0.003300
   Hessian update      SOSCFHessUp        .... L-BFGS
   Autom. constraints  SOSCFAutoConstrain .... off
 Level Shifting         CNVShift        .... on
   Level shift para.    LevelShift      ....    0.2500
   Turn off err/grad.   ShiftErr        ....    0.0010
 Zerner damping         CNVZerner       .... off
 Static damping         CNVDamp         .... on
   Fraction old density DampFac         ....    0.7000
   Max. Damping (<1)    DampMax         ....    0.9800
   Min. Damping (>=0)   DampMin         ....    0.0000
   Turn off err/grad.   DampErr         ....    0.1000

SCF Procedure:
 Maximum # iterations   MaxIter         ....   125
 SCF integral mode      SCFMode         .... Direct
   Integral package                     .... SHARK and LIBINT hybrid scheme
 Reset frequency        DirectResetFreq ....    20
 Integral Threshold     Thresh          ....  1.000e-10 Eh
 Primitive CutOff       TCut            ....  1.000e-11 Eh

Convergence Tolerance:
 Convergence Check Mode ConvCheckMode   .... Total+1el-Energy
 Convergence forced     ConvForced      .... 1
 Energy Change          TolE            ....  1.000e-06 Eh
 1-El. energy change                    ....  1.000e-03 Eh
 Orbital Gradient       TolG            ....  5.000e-05
 Orbital Rotation angle TolX            ....  5.000e-05
 DIIS Error             TolErr          ....  1.000e-06

------------------------------
INITIAL GUESS: MODEL POTENTIAL
------------------------------
Loading Hartree-Fock densities                     ... done
Calculating cut-offs                               ... done
Initializing the effective Hamiltonian             ... done
Setting up the integral package (SHARK)            ... done
Starting the Coulomb interaction                   ... done (   0.0 sec)
Making the grid                                    ... done (   0.1 sec)
Mapping shells                                     ... done
Starting the XC term evaluation                    ... done (   0.0 sec)
Transforming the Hamiltonian                       ... done (   0.0 sec)
Diagonalizing the Hamiltonian                      ... done (   0.0 sec)
Back transforming the eigenvectors                 ... done (   0.0 sec)
Now organizing SCF variables                       ... done
                      ------------------
                      INITIAL GUESS DONE (   0.2 sec)
                      ------------------
             **** ENERGY FILE WAS UPDATED (1.en.tmp) ****
Finished Guess after   0.2 sec
Maximum memory used throughout the entire GUESS-calculation: 9.6 MB

-------------------------------------------------------------------------------------------
                                      ORCA LEAN-SCF
                              memory conserving SCF solver
-------------------------------------------------------------------------------------------

----------------------------------------D-I-I-S--------------------------------------------
Iteration    Energy (Eh)           Delta-E    RMSDP     MaxDP     DIISErr   Damp  Time(sec)
-------------------------------------------------------------------------------------------
               ***  Starting incremental Fock matrix formation  ***
    1    -509.1298257454376994     0.00e+00  2.74e-03  6.67e-02  2.54e-01  0.700   1.2
    2    -509.2655112948652345    -1.36e-01  1.99e-03  4.77e-02  1.55e-01  0.700   1.1
                               ***Turning on AO-DIIS***
    3    -509.3436097764072770    -7.81e-02  1.07e-03  2.05e-02  8.71e-02  0.700   1.1
    4    -509.3928483196962702    -4.92e-02  2.45e-03  4.49e-02  6.12e-02  0.000   1.1
    5    -509.5031269096988922    -1.10e-01  3.26e-04  5.58e-03  5.52e-03  0.000   1.1
    6    -509.5036967332890185    -5.70e-04  1.58e-04  2.35e-03  3.38e-03  0.000   1.1
                              *** Initializing SOSCF ***
---------------------------------------S-O-S-C-F--------------------------------------
Iteration    Energy (Eh)           Delta-E    RMSDP     MaxDP     MaxGrad    Time(sec)
--------------------------------------------------------------------------------------
    7    -509.5038290775495966    -1.32e-04  1.01e-04  1.90e-03  1.66e-03     1.0
               *** Restarting incremental Fock matrix formation ***
    8    -509.5038741196003116    -4.50e-05  4.76e-05  7.17e-04  6.50e-04     1.2
    9    -509.5038840288180495    -9.91e-06  5.22e-05  1.04e-03  3.85e-04     0.9
   10    -509.5038878590425497    -3.83e-06  8.60e-06  2.36e-04  1.04e-04     0.9
   11    -509.5038880813523861    -2.22e-07  3.24e-06  8.32e-05  4.07e-05     0.8
                 **** Energy Check signals convergence ****

               *****************************************************
               *                     SUCCESS                       *
               *           SCF CONVERGED AFTER  11 CYCLES          *
               *****************************************************

             **** ENERGY FILE WAS UPDATED (1.en.tmp) ****

----------------
TOTAL SCF ENERGY
----------------

Total Energy       :       -509.50388813051910 Eh          -13864.30564 eV

Components:
Nuclear Repulsion  :        485.33643524043742 Eh           13206.67582 eV
Electronic Energy  :       -994.84032337095653 Eh          -27070.98146 eV
One Electron Energy:      -1662.51055600740506 Eh          -45239.21215 eV
Two Electron Energy:        667.67023263644853 Eh           18168.23069 eV

Virial components:
Potential Energy   :      -1018.24982655545546 Eh          -27707.98643 eV
Kinetic Energy     :        508.74593842493641 Eh           13843.68078 eV
Virial Ratio       :          2.00148983932516

---------------
SCF CONVERGENCE
---------------

  Last Energy change         ...    2.2231e-07  Tolerance :   1.0000e-06
  Last MAX-Density change    ...    8.3244e-05  Tolerance :   1.0000e-05
  Last RMS-Density change    ...    3.2442e-06  Tolerance :   1.0000e-06
  Last DIIS Error            ...    1.6585e-03  Tolerance :   1.0000e-06
  Last Orbital Gradient      ...    4.0659e-05  Tolerance :   5.0000e-05
  Last Orbital Rotation      ...    3.5765e-05  Tolerance :   5.0000e-05


----------------
ORBITAL ENERGIES
----------------

  NO   OCC          E(Eh)            E(eV) 
   0   2.0000     -20.623347      -561.1898 
   1   2.0000     -20.614722      -560.9551 
   2   2.0000     -20.564057      -559.5764 
   3   2.0000     -20.547752      -559.1328 
   4   2.0000     -15.547712      -423.0748 
   5   2.0000     -11.398427      -310.1670 
   6   2.0000     -11.383295      -309.7552 
   7   2.0000     -11.284645      -307.0708 
   8   2.0000     -11.253946      -306.2354 
   9   2.0000      -1.478718       -40.2380 
  10   2.0000      -1.466174       -39.8966 
  11   2.0000      -1.373442       -37.3733 
  12   2.0000      -1.359483       -36.9934 
  13   2.0000      -1.202894       -32.7324 
  14   2.0000      -1.052738       -28.6465 
  15   2.0000      -0.940539       -25.5934 
  16   2.0000      -0.850531       -23.1441 
  17   2.0000      -0.794454       -21.6182 
  18   2.0000      -0.722216       -19.6525 
  19   2.0000      -0.710095       -19.3227 
  20   2.0000      -0.698641       -19.0110 
  21   2.0000      -0.690973       -18.8023 
  22   2.0000      -0.665580       -18.1113 
  23   2.0000      -0.652320       -17.7505 
  24   2.0000      -0.618637       -16.8340 
  25   2.0000      -0.594905       -16.1882 
  26   2.0000      -0.585902       -15.9432 
  27   2.0000      -0.549545       -14.9539 
  28   2.0000      -0.543531       -14.7902 
  29   2.0000      -0.528046       -14.3689 
  30   2.0000      -0.491310       -13.3692 
  31   2.0000      -0.476429       -12.9643 
  32   2.0000      -0.471790       -12.8380 
  33   2.0000      -0.456848       -12.4315 
  34   2.0000      -0.391405       -10.6507 
  35   0.0000       0.178875         4.8674 
  36   0.0000       0.191047         5.1986 
  37   0.0000       0.219182         5.9642 
  38   0.0000       0.223405         6.0792 
  39   0.0000       0.249602         6.7920 
  40   0.0000       0.276469         7.5231 
  41   0.0000       0.293156         7.9772 
  42   0.0000       0.328514         8.9393 
  43   0.0000       0.335450         9.1281 
  44   0.0000       0.392296        10.6749 
  45   0.0000       0.403637        10.9835 
*Only the first 10 virtual orbitals were printed.

                    ********************************
                    * MULLIKEN POPULATION ANALYSIS *
                    ********************************

-----------------------
MULLIKEN ATOMIC CHARGES
-----------------------
   0 C :    0.814357
   1 C :   -0.307155
   2 O :   -0.598238
   3 H :    0.373419
   4 O :   -0.635719
   5 C :   -0.057255
   6 H :    0.187845
   7 H :    0.192543
   8 C :    0.833039
   9 O :   -0.595081
  10 N :   -0.692355
  11 O :   -0.641903
  12 H :    0.284142
  13 H :    0.374443
  14 H :    0.171952
  15 H :    0.295967
Sum of atomic charges:    0.0000000

--------------------------------
MULLIKEN REDUCED ORBITAL CHARGES
--------------------------------
  0 C s       :     2.937132  s :     2.937132
      pz      :     0.844392  p :     2.099457
      px      :     0.627594
      py      :     0.627471
      dz2     :     0.038637  d :     0.149054
      dxz     :     0.024319
      dyz     :     0.026232
      dx2y2   :     0.029519
      dxy     :     0.030347

  1 C s       :     3.259240  s :     3.259240
      pz      :     0.927936  p :     3.002676
      px      :     1.020968
      py      :     1.053772
      dz2     :     0.013081  d :     0.045239
      dxz     :     0.010784
      dyz     :     0.002653
      dx2y2   :     0.009324
      dxy     :     0.009397

  2 O s       :     3.874016  s :     3.874016
      pz      :     1.528194  p :     4.691491
      px      :     1.403732
      py      :     1.759564
      dz2     :     0.003518  d :     0.032731
      dxz     :     0.010535
      dyz     :     0.002060
      dx2y2   :     0.009216
      dxy     :     0.007404

  3 H s       :     0.584911  s :     0.584911
      pz      :     0.009385  p :     0.041670
      px      :     0.008808
      py      :     0.023477

  4 O s       :     3.840634  s :     3.840634
      pz      :     1.478914  p :     4.769330
      px      :     1.578911
      py      :     1.711505
      dz2     :     0.008495  d :     0.025755
      dxz     :     0.001798
      dyz     :     0.003244
      dx2y2   :     0.004670
      dxy     :     0.007548

  5 C s       :     3.216458  s :     3.216458
      pz      :     1.068112  p :     2.770419
      px      :     0.833969
      py      :     0.868338
      dz2     :     0.018451  d :     0.070378
      dxz     :     0.012206
      dyz     :     0.004456
      dx2y2   :     0.015813
      dxy     :     0.019453

  6 H s       :     0.799239  s :     0.799239
      pz      :     0.001829  p :     0.012916
      px      :     0.002540
      py      :     0.008547

  7 H s       :     0.794437  s :     0.794437
      pz      :     0.004553  p :     0.013020
      px      :     0.006543
      py      :     0.001924

  8 C s       :     2.937098  s :     2.937098
      pz      :     0.609211  p :     2.082410
      px      :     0.665124
      py      :     0.808076
      dz2     :     0.014291  d :     0.147453
      dxz     :     0.032869
      dyz     :     0.011891
      dx2y2   :     0.037106
      dxy     :     0.051295

  9 O s       :     3.879418  s :     3.879418
      pz      :     1.612089  p :     4.683053
      px      :     1.614067
      py      :     1.456897
      dz2     :     0.005912  d :     0.032610
      dxz     :     0.006607
      dyz     :     0.007872
      dx2y2   :     0.007478
      dxy     :     0.004742

 10 N s       :     3.600318  s :     3.600318
      pz      :     1.220233  p :     4.057737
      px      :     1.137379
      py      :     1.700124
      dz2     :     0.012056  d :     0.034300
      dxz     :     0.005155
      dyz     :     0.002827
      dx2y2   :     0.003102
      dxy     :     0.011160

 11 O s       :     3.837962  s :     3.837962
      pz      :     1.765993  p :     4.778319
      px      :     1.650936
      py      :     1.361390
      dz2     :     0.003701  d :     0.025622
      dxz     :     0.005598
      dyz     :     0.001156
      dx2y2   :     0.004886
      dxy     :     0.010281

 12 H s       :     0.689707  s :     0.689707
      pz      :     0.004788  p :     0.026151
      px      :     0.011047
      py      :     0.010316

 13 H s       :     0.583914  s :     0.583914
      pz      :     0.024692  p :     0.041643
      px      :     0.009109
      py      :     0.007842

 14 H s       :     0.815772  s :     0.815772
      pz      :     0.009092  p :     0.012276
      px      :     0.001395
      py      :     0.001789

 15 H s       :     0.677645  s :     0.677645
      pz      :     0.015921  p :     0.026388
      px      :     0.003841
      py      :     0.006627



                     *******************************
                     * LOEWDIN POPULATION ANALYSIS *
                     *******************************

----------------------
LOEWDIN ATOMIC CHARGES
----------------------
   0 C :    0.253222
   1 C :   -0.127066
   2 O :   -0.318737
   3 H :    0.202480
   4 O :   -0.199461
   5 C :   -0.019605
   6 H :    0.101711
   7 H :    0.104884
   8 C :    0.234180
   9 O :   -0.311647
  10 N :   -0.281090
  11 O :   -0.202544
  12 H :    0.133702
  13 H :    0.203546
  14 H :    0.090115
  15 H :    0.136310

-------------------------------
LOEWDIN REDUCED ORBITAL CHARGES
-------------------------------
  0 C s       :     2.836067  s :     2.836067
      pz      :     0.991391  p :     2.589275
      px      :     0.785211
      py      :     0.812672
      dz2     :     0.083770  d :     0.321437
      dxz     :     0.048949
      dyz     :     0.056656
      dx2y2   :     0.059940
      dxy     :     0.072122

  1 C s       :     2.896331  s :     2.896331
      pz      :     1.020102  p :     3.145195
      px      :     1.056662
      py      :     1.068431
      dz2     :     0.026159  d :     0.085540
      dxz     :     0.020354
      dyz     :     0.005880
      dx2y2   :     0.015390
      dxy     :     0.017757

  2 O s       :     3.545853  s :     3.545853
      pz      :     1.499396  p :     4.715537
      px      :     1.481757
      py      :     1.734384
      dz2     :     0.007064  d :     0.057347
      dxz     :     0.013596
      dyz     :     0.002466
      dx2y2   :     0.017551
      dxy     :     0.016670

  3 H s       :     0.676838  s :     0.676838
      pz      :     0.028306  p :     0.120682
      px      :     0.028301
      py      :     0.064076

  4 O s       :     3.455489  s :     3.455489
      pz      :     1.446368  p :     4.695981
      px      :     1.562868
      py      :     1.686745
      dz2     :     0.014720  d :     0.047991
      dxz     :     0.007407
      dyz     :     0.005407
      dx2y2   :     0.006674
      dxy     :     0.013782

  5 C s       :     2.868812  s :     2.868812
      pz      :     1.052399  p :     3.010415
      px      :     0.964208
      py      :     0.993808
      dz2     :     0.034030  d :     0.140378
      dxz     :     0.023727
      dyz     :     0.008615
      dx2y2   :     0.032415
      dxy     :     0.041591

  6 H s       :     0.856150  s :     0.856150
      pz      :     0.006940  p :     0.042139
      px      :     0.008761
      py      :     0.026438

  7 H s       :     0.852670  s :     0.852670
      pz      :     0.014643  p :     0.042446
      px      :     0.020435
      py      :     0.007368

  8 C s       :     2.848510  s :     2.848510
      pz      :     0.693118  p :     2.597645
      px      :     0.949610
      py      :     0.954917
      dz2     :     0.029930  d :     0.319665
      dxz     :     0.069988
      dyz     :     0.023770
      dx2y2   :     0.083570
      dxy     :     0.112408

  9 O s       :     3.546318  s :     3.546318
      pz      :     1.629911  p :     4.708284
      px      :     1.593969
      py      :     1.484403
      dz2     :     0.009820  d :     0.057045
      dxz     :     0.009994
      dyz     :     0.017907
      dx2y2   :     0.009397
      dxy     :     0.009927

 10 N s       :     3.182777  s :     3.182777
      pz      :     1.211858  p :     4.037423
      px      :     1.171295
      py      :     1.654270
      dz2     :     0.020889  d :     0.060889
      dxz     :     0.011703
      dyz     :     0.003618
      dx2y2   :     0.006824
      dxy     :     0.017855

 11 O s       :     3.454759  s :     3.454759
      pz      :     1.723283  p :     4.699376
      px      :     1.637587
      py      :     1.338506
      dz2     :     0.005846  d :     0.048408
      dxz     :     0.008230
      dyz     :     0.004667
      dx2y2   :     0.011809
      dxy     :     0.017856

 12 H s       :     0.784194  s :     0.784194
      pz      :     0.014730  p :     0.082104
      px      :     0.033214
      py      :     0.034161

 13 H s       :     0.676174  s :     0.676174
      pz      :     0.068409  p :     0.120280
      px      :     0.026853
      py      :     0.025018

 14 H s       :     0.870720  s :     0.870720
      pz      :     0.026856  p :     0.039164
      px      :     0.005868
      py      :     0.006441

 15 H s       :     0.780077  s :     0.780077
      pz      :     0.048702  p :     0.083612
      px      :     0.012414
      py      :     0.022497



                      *****************************
                      * MAYER POPULATION ANALYSIS *
                      *****************************

  NA   - Mulliken gross atomic population
  ZA   - Total nuclear charge
  QA   - Mulliken gross atomic charge
  VA   - Mayer's total valence
  BVA  - Mayer's bonded valence
  FA   - Mayer's free valence

  ATOM       NA         ZA         QA         VA         BVA        FA
  0 C      5.1856     6.0000     0.8144     3.7196     3.7196     0.0000
  1 C      6.3072     6.0000    -0.3072     3.7369     3.7369    -0.0000
  2 O      8.5982     8.0000    -0.5982     1.8654     1.8654     0.0000
  3 H      0.6266     1.0000     0.3734     0.8713     0.8713     0.0000
  4 O      8.6357     8.0000    -0.6357     1.8438     1.8438     0.0000
  5 C      6.0573     6.0000    -0.0573     3.7663     3.7663     0.0000
  6 H      0.8122     1.0000     0.1878     0.9419     0.9419    -0.0000
  7 H      0.8075     1.0000     0.1925     0.9412     0.9412    -0.0000
  8 C      5.1670     6.0000     0.8330     3.6733     3.6733     0.0000
  9 O      8.5951     8.0000    -0.5951     1.8706     1.8706     0.0000
 10 N      7.6924     7.0000    -0.6924     2.7483     2.7483     0.0000
 11 O      8.6419     8.0000    -0.6419     1.8456     1.8456    -0.0000
 12 H      0.7159     1.0000     0.2841     0.9041     0.9041     0.0000
 13 H      0.6256     1.0000     0.3744     0.8699     0.8699    -0.0000
 14 H      0.8280     1.0000     0.1720     0.9391     0.9391     0.0000
 15 H      0.7040     1.0000     0.2960     0.9047     0.9047    -0.0000

  Mayer bond orders larger than 0.100000
B(  0-C ,  1-C ) :   0.9560 B(  0-C ,  4-O ) :   0.9921 B(  0-C ,  9-O ) :   1.7778 
B(  1-C ,  5-C ) :   0.9534 B(  1-C ,  6-H ) :   0.9480 B(  1-C ,  7-H ) :   0.9447 
B(  2-O ,  8-C ) :   1.7924 B(  3-H , 11-O ) :   0.8403 B(  4-O , 13-H ) :   0.8386 
B(  5-C ,  8-C ) :   0.9108 B(  5-C , 10-N ) :   0.9829 B(  5-C , 14-H ) :   0.9606 
B(  8-C , 11-O ) :   0.9829 B( 10-N , 12-H ) :   0.9046 B( 10-N , 15-H ) :   0.8894 


-------
TIMINGS
-------

Total SCF time: 0 days 0 hours 0 min 12 sec 

Total time                  ....      12.453 sec
Sum of individual times     ....      11.675 sec  ( 93.7%)

SCF preparation             ....       0.014 sec  (  0.1%)
Fock matrix formation       ....      11.623 sec  ( 93.3%)
  Startup                   ....       0.001 sec  (  0.0% of F)
  Coulomb+Exchange Fock     ....      12.394 sec  (106.6% of F)
Diagonalization             ....       0.000 sec  (  0.0%)
Density matrix formation    ....       0.003 sec  (  0.0%)
Total Energy calculation    ....       0.001 sec  (  0.0%)
Population analysis         ....       0.002 sec  (  0.0%)
Orbital Transformation      ....       0.004 sec  (  0.0%)
Orbital Orthonormalization  ....       0.000 sec  (  0.0%)
DIIS solution               ....       0.020 sec  (  0.2%)
SOSCF solution              ....       0.007 sec  (  0.1%)
Finished LeanSCF after  12.5 sec

Maximum memory used throughout the entire LEANSCF-calculation: 13.2 MB

------------------------------------------------------------------------------
                                ORCA  MP2 
------------------------------------------------------------------------------

Freezing NCore=18 chemical core electrons

----------
MP2 ENERGY (disk based algorithm)
----------

Dimension of the basis                      ...  161
Memory devoted to MP2                       ... 4096 MB   
Data format for buffers                     ... DOUBLE
Compression type for matrix containers      ... UNCOMPRESSED

-------------------------
SHARK HALF TRANSFORMATION (Exchange order)
-------------------------

Number of basis functions                   ...    161
Number of operators                         ...      1
   Operator  0:    9-  34 (p-index in (p*|q*))
   Operator  0:    9-  34 (q-index in (p*|q*)
Integral generator used                     ... SHARK
Contraction scheme used                     ... SEGMENTED CONTRACTION
MaxCore in resort                           ...   4096 MB

Half transformed integrals for op=   0      ... 1.SHARK_MNPQ0.tmp
Resorted half transformed integrals         ... 1.KAO_aa.tmp

Half trafo (segmented) done. Total time =  6.9 sec. integrals=  6.3 sec trafo=  0.5 sec

----------------------
SHARK INTEGRAL SORTING (Exchange)
----------------------

Input container                             ... 1.SHARK_MNPQ0.tmp
Output container                            ... 1.KAO_aa.tmp
Range of AO-indices                         ...    0 -  160
Range of bra indices i                      ...    9 -   34
Range of ket indices j                      ...    9 -   34
Symmetric i,j range                         ... YES
Number of (i,j) pairs generated             ...  351
Max Core memory in MB                       ...   4096

Available core memory in MB                 ...   4088.23
MB needed for one item                      ...      0.20
Fixed MB needed                             ...      0.00
Number of items                             ...       351
Number of batches                           ...         1
Items treated per batch                     ...       351
Batch   0                                   ...      0-   350 (   351)
   => Closing output file and leaving
done (  0.1 sec)

SHARK half integral transformation done. Total time =  7.0 sec.


Finished integral transformation - now doing MP2 part

OPERATOR COMBINATION   0   0: ij=(  9.. 34,  9.. 34)
  Internal MO  11
  Internal MO  14
  Internal MO  17
  Internal MO  20
  Internal MO  23
  Internal MO  26
  Internal MO  29
  Internal MO  32
-----------------------------------------------
 MP2 CORRELATION ENERGY   :     -1.400798929 Eh
-----------------------------------------------


-------
TIMINGS
-------
Total time                :    7.038 sec
Integral trafo            :    6.954 sec ( 98.8%)
K(i,j)                    :    0.066 sec (  0.9%)
T(i,j)                    :    0.002 sec (  0.0%)

---------------------------------------
MP2 TOTAL ENERGY:     -510.904687060 Eh
---------------------------------------

Maximum memory used throughout the entire MP2-calculation: 78.0 MB

-------------------------   --------------------
FINAL SINGLE POINT ENERGY      -510.904687059844
-------------------------   --------------------


------------------------------------------------------------------------------
                              ORCA PROPERTY CALCULATIONS
------------------------------------------------------------------------------

GBWName                                 ... 1.gbw
Number of atoms                         ...     16
Number of basis functions               ...    161
Max core memory                         ...   4096 MB

Electric properties:
Dipole moment                           ... YES
Quadrupole moment                       ...  NO
Static polarizability (Dipole/Dipole)   ...  NO
Static polarizability (Dipole/Quad.)    ...  NO
Static polarizability (Quad./Quad.)     ...  NO
Static polarizability (Velocity)        ...  NO
Static hyperpolarizability              ...  NO

Atomic electric properties:
Dipole moment                           ...  NO
Quadrupole moment                       ...  NO
Static polarizability                   ...  NO

Choice of electric origin               ... Center of mass
Position of electric origin             ...    -6.729205     4.410762     0.896855

General magnetic properties:
Magnetizability                         ...  NO

EPR properties:
g-Tensor (aka g-matrix)                 ...  NO
Zero-Field splitting spin-orbit         ...  NO
Zero-field splitting spin-spin          ...  NO
Hyperfine couplings                     ...  NO (   0 nuclei)
Quadrupole couplings                    ...  NO (   0 nuclei)
Contact density                         ...  NO (   0 nuclei)

NMR properties:
Chemical shifts                         ...  NO (   0 nuclei)
Spin-rotation constants                 ...  NO (   0 nuclei)
Spin-spin couplings                     ...  NO (   0 nuclei,    0 pairs)

Choice of magnetic origin               ... GIAO
Position of magnetic origin             ...     0.000000     0.000000     0.000000

Properties with geometric perturbations:
SCF Hessian                             ...  NO
IR spectrum                             ...  NO
VCD spectrum                            ...  NO
X-ray spectroscopy properties:
SCF XES/XAS/RIXS spectra                ...  NO

SCF SOC stabilization energy            ...  NO
Diagonal Born-Oppenheimer correction    ...  NO

-------------
DIPOLE MOMENT
-------------

Method             : SCF
Type of density    : Electron Density
Multiplicity       :   1
Irrep              :   0
Energy             :  -509.5038881305191012 Eh
Basis              : AO
                                X                 Y                 Z
Electronic contribution:     -2.605834037       2.466971905       1.860936127
Nuclear contribution   :      2.800491701      -2.629631575      -1.775570441
                        -----------------------------------------
Total Dipole Moment    :      0.194657664      -0.162659671       0.085365686
                        -----------------------------------------
Magnitude (a.u.)       :      0.267651032
Magnitude (Debye)      :      0.680314858



--------------------
Rotational spectrum 
--------------------
 
Rotational constants in cm-1:             0.085711             0.042228             0.037461 
Rotational constants in MHz :          2569.557142          1265.963072          1123.052396 

Dipole components along the rotational axes: 
x,y,z [a.u.] :     0.043219     0.243721    -0.101829 
x,y,z [Debye]:     0.109853     0.619491    -0.258828 

 

Dipole moment calculation done in   0.0 sec 

Maximum memory used throughout the entire PROP-calculation: 7.9 MB

--------------------------------
SUGGESTED CITATIONS FOR THIS RUN
--------------------------------

Below you find a list of papers that are relevant to this ORCA run
We neither can nor want to force you to cite these papers, but we appreciate if you do
You receive ORCA, which is the product of decades of hard work by many enthusiastic individuals, for free
The only thing we kindly ask in return is that you cite our papers,
We deeply appreciate it, if you show your appreciation for ORCA by not just citing the generic ORCA reference.

Please note that relegating all ORCA citations to the supporting information does *not* help us.
SI sections are not indexed - citations you put there will not count into any citation statistics
But we need these citations in order to attract the funding resources that allow us to do what we are doing

Therefore, if you are a happy ORCA user, please consider citing a few of the papers listed below in the main body of your paper

In addition to the list printed below, the program has created the file 1.bibtex that contains the list in bibtex format
You can import this file easily into all common literature databanks and citation aid programs


List of essential papers. We consider these as the minimum necessary citations

  1. Neese, F.
     Software update: the ORCA program system, version 6.0
     WIRES Comput. Molec. Sci. 2025 15(1), e70019
     doi.org/10.1002/wcms.7019

List of papers to cite with high priority. The work reported in these papers was absolutely
necessary for this run to complete.
Our perspective: the developers of density functionals and basis sets usually get cited in chemistry papers
Good! But without the algorithms to do something with them, the functionals or basis sets would not do anything.
Hence, in our opinion, the algorithm design and method developments papers are equally worthy of getting cited

  1. Neese, F.
     The SHARK Integral Generation and Digestion System
     J. Comp. Chem. 2022 44(3), 381
     doi.org/10.1002/jcc.26942

List of suggested additional citations. These are papers that are important in the 'surrounding' of 
of this run, or papers that preceded the highly important papers. If you like your results we are grateful for a citation.

  1. Neese, F.
     The ORCA program system
     WIRES Comput. Molec. Sci. 2012 2(1), 73-78
     doi.org/10.1002/wcms.81
  2. Neese, F.
     Software update: the ORCA program system, version 4.0
     WIRES Comput. Molec. Sci. 2018 8(1), 1-6
     doi.org/10.1002/wcms.1327
  3. Neese, F.; Wennmohs, F.; Becker, U.; Riplinger, C.
     The ORCA quantum chemistry program package
     J. Chem. Phys. 2020 152(22), 224108
     doi.org/10.1063/5.0004608
  4. Neese, F.
     Software update: The ORCA program system—Version 5.0
     WIRES Comput. Molec. Sci. 2022 12(1), e1606
     doi.org/10.1002/wcms.1606

List of optional additional citations

  1. Neese, F.
     Approximate second-order SCF convergence for spin unrestricted wavefunctions
     Chem. Phys. Lett. 2000 325(1-3), 93-98
     doi.org/10.1016/s0009-2614(00)00662-x

Timings for individual modules:

Sum of individual times          ...       20.079 sec (=   0.335 min)
Startup calculation              ...        0.341 sec (=   0.006 min)   1.7 %
SCF iterations                   ...       12.654 sec (=   0.211 min)  63.0 %
Property calculations            ...        0.024 sec (=   0.000 min)   0.1 %
MP2 module                       ...        7.061 sec (=   0.118 min)  35.2 %
                             ****ORCA TERMINATED NORMALLY****
TOTAL RUN TIME: 0 days 0 hours 0 minutes 20 seconds 116 msec
